Title
81347
    1CHL1    C3    1   6.247   0.430  10.339 -1.1867 -0.1835 -0.2176
    1CHL1    H3    2   6.242   0.320  10.325  1.8211 -0.6365  1.4010
    1CHL1    O3    3   6.225   0.449  10.478  0.2841 -0.2344 -0.0617
    1CHL1   H3'    4   6.262   0.534  10.501 -0.5600  0.0801  0.1676
    1CHL1    C4    5   6.391   0.471  10.311  0.1169  0.0101 -0.4109
    1CHL1   H4A    6   6.409   0.566  10.366  0.3478  0.2598 -0.9131
    1CHL1   H4B    7   6.454   0.394  10.361 -2.7687 -2.0249  0.3685
    1CHL1    C5    8   6.415   0.479  10.166  0.2726 -0.1312  0.8159
    1CHL1    C6    9   6.526   0.429  10.117 -0.0638  0.0444 -0.3942
    1CHL1    H6   10   6.591   0.377  10.189  1.7299  1.3624 -0.9699
    1CHL1    C7   11   6.574   0.436   9.974  0.3361 -0.2836 -0.6748
    1CHL1   H7A   12   6.680   0.470   9.975  0.0501  0.6424  0.7803
    1CHL1   H7B   13   6.569   0.342   9.916 -0.7020  0.7591 -2.3946
    1CHL1    C8   14   6.490   0.536   9.892 -0.0264 -0.8085  0.1018
    1CHL1    H8   15   6.521   0.642   9.909  1.4965 -1.3378  0.7916
    1CHL1   C14   16   6.514   0.515   9.743 -0.3984 -0.1306 -0.3886
    1CHL1   H14   17   6.466   0.416   9.728 -1.0752  0.1299  0.0403
    1CHL1   C15   18   6.657   0.492   9.696 -1.1576 -0.7325  0.9534
    1CHL1  H15A   19   6.731   0.568   9.731  0.5582 -0.8201 -2.1049
    1CHL1  H15B   20   6.708   0.395   9.718 -2.0826 -1.7014 -0.9530
    1CHL1   C16   21   6.648   0.507   9.544  0.3442 -0.4932 -0.2289
    1CHL1  H16A   22   6.719   0.584   9.507  0.3183 -0.2708  0.1796
    1CHL1  H16B   23   6.680   0.412   9.498 -3.4744 -2.3029  0.3922
    1CHL1   C17   24   6.498   0.539   9.510 -1.5591  0.2690 -0.6454
    1CHL1   H17   25   6.444   0.444   9.493 -2.6374  1.0667 -1.8192
    1CHL1   C13   26   6.442   0.598   9.645  0.4702  0.2900  0.8692
    1CHL1   C18   27   6.491   0.747   9.663  0.0559 -0.1523  0.4952
    1CHL1  H18A   28   6.464   0.778   9.766 -3.2498  0.3811 -0.4230
    1CHL1  H18B   29   6.601   0.754   9.646  0.2716 -0.8066  1.5541
    1CHL1  H18C   30   6.440   0.812   9.589  0.2325  0.2718  0.7401
    1CHL1   C12   31   6.291   0.586   9.675 -0.6461  0.0481 -0.1277
    1CHL1  H12A   32   6.235   0.668   9.624 -0.2802 -0.1179 -0.8078
    1CHL1  H12B   33   6.249   0.486   9.650  0.0855  0.2930 -2.5773
    1CHL1   C11   34   6.259   0.603   9.826  0.2137 -0.1362 -0.2215
    1CHL1  H11A   35   6.284   0.711   9.835  0.7981 -0.1542 -1.3496
    1CHL1  H11B   36   6.151   0.582   9.842  0.3824 -0.4859  0.4859
    1CHL1    C9   37   6.343   0.520   9.918  0.3299  0.1149 -0.1631
    1CHL1    H9   38   6.313   0.413   9.909 -0.0237  0.1664  0.3974
    1CHL1   C10   39   6.314   0.553  10.071 -0.4411  0.9007 -0.3084
    1CHL1   C19   40   6.332   0.706  10.089  0.7641 -0.0551 -0.2933
    1CHL1  H19A   41   6.266   0.769  10.025  2.3956  0.6476 -1.3498
    1CHL1  H19B   42   6.291   0.727  10.190 -1.2073 -2.7224 -0.4341
    1CHL1  H19C   43   6.440   0.731  10.083  1.2570 -1.6535  1.1218
    1CHL1    C1   44   6.165   0.507  10.113 -0.3841  0.4223 -0.3341
    1CHL1   H1A   45   6.100   0.577  10.056  0.8486  0.3605 -1.8805
    1CHL1   H1B   46   6.160   0.408  10.063  0.9345  0.7188 -1.1069
    1CHL1    C2   47   6.141   0.507  10.269  0.7872 -0.0260  0.7768
    1CHL1   H2A   48   6.049   0.451  10.296 -0.1713  1.2261  0.2092
    1CHL1   H2B   49   6.129   0.607  10.316 -2.1354 -0.7086  1.6669
    1CHL1   C20   50   6.469   0.617   9.380 -0.4182  0.0025 -0.3065
    1CHL1   H20   51   6.520   0.715   9.398  1.9178 -1.5027  1.9221
    1CHL1   C21   52   6.318   0.647   9.366  0.1594  0.9334 -0.1485
    1CHL1  H21A   53   6.256   0.556   9.376 -1.1326  1.7892 -0.1093
    1CHL1  H21B   54   6.286   0.705   9.276  1.2400  0.2782 -0.9691
    1CHL1  H21C   55   6.287   0.719   9.445  1.1951 -1.4484  2.5692
    1CHL1   C22   56   6.530   0.551   9.258  0.1164  0.2776  0.3496
    1CHL1  H22A   57   6.641   0.553   9.268  0.1985 -2.8075  0.9560
    1CHL1  H22B   58   6.503   0.445   9.241 -2.1857  0.7470  0.6709
    1CHL1   C23   59   6.489   0.610   9.120  0.3545 -0.5562 -0.2837
    1CHL1  H23A   60   6.382   0.604   9.091  0.7074  0.1355 -1.8049
    1CHL1  H23B   61   6.505   0.719   9.123 -1.9785 -0.1612 -0.6921
    1CHL1   C24   62   6.567   0.555   9.001  0.2258 -0.3789 -0.9989
    1CHL1  H24A   63   6.674   0.571   9.025 -0.2802  0.5871  0.8355
    1CHL1  H24B   64   6.558   0.444   9.003  1.2625 -0.4740  0.4804
    1CHL1   C25   65   6.537   0.621   8.858  0.0451  0.5338  1.1440
    1CHL1   H25   66   6.441   0.585   8.814  1.3554 -0.8794 -0.7428
    1CHL1   C26   67   6.546   0.772   8.865 -0.1078 -0.0598 -0.8859
    1CHL1  H26A   68   6.454   0.818   8.908  1.5225  3.7016 -1.0596
    1CHL1  H26B   69   6.638   0.804   8.919 -0.5949  3.5291 -1.9510
    1CHL1  H26C   70   6.550   0.808   8.760  0.1627 -0.9248 -1.1794
    1CHL1   C27   71   6.644   0.568   8.762  0.1396  0.2993  0.8953
    1CHL1  H27A   72   6.643   0.612   8.660  0.2477 -0.9653  0.3362
    1CHL1  H27B   73   6.745   0.597   8.800 -0.1955  0.0969  1.9797
    1CHL1  H27C   74   6.645   0.457   8.757  0.0230  0.2608  1.5446
    2CHL1    C3   75   5.893   4.468  10.113  0.4143 -0.3500  0.1450
    2CHL1    H3   76   5.947   4.387  10.061  0.3139  0.2373 -0.8958
    2CHL1    O3   77   5.910   4.463  10.252  0.1988  0.1598 -0.8272
    2CHL1   H3'   78   5.833   4.410  10.274 -0.0481 -0.6876 -3.3939
    2CHL1    C4   79   5.958   4.597  10.066  0.1853 -0.8760  0.0315
    2CHL1   H4A   80   5.898   4.681  10.105  1.1655 -0.8879  1.6298
    2CHL1   H4B   81   6.059   4.606  10.111 -0.8796  3.2668  2.0425
    2CHL1    C5   82   5.954   4.605   9.915 -0.3858  0.1029 -0.1470
    2CHL1    C6   83   6.073   4.607   9.856 -0.1192  0.0634 -0.4167
    2CHL1    H6   84   6.169   4.612   9.911 -0.9446 -0.2125  1.0919
    2CHL1    C7   85   6.079   4.597   9.704 -0.5630 -0.0380 -0.0210
    2CHL1   H7A   86   6.174   4.639   9.663  0.2319 -1.3798  0.3787
    2CHL1   H7B   87   6.075   4.492   9.669  0.2318  0.2769 -1.0967
    2CHL1    C8   88   5.955   4.659   9.635 -0.1168 -0.4626 -0.1124
    2CHL1    H8   89   5.943   4.764   9.668 -2.0877  0.1834 -2.5841
    2CHL1   C14   90   5.957   4.643   9.489  0.9443  0.1029  0.1741
    2CHL1   H14   91   5.966   4.535   9.464  1.9758  0.3888 -0.7801
    2CHL1   C15   92   6.069   4.713   9.410  0.1099  0.5093 -0.5014
    2CHL1  H15A   93   6.073   4.813   9.457  0.2284 -0.9156  2.8810
    2CHL1  H15B   94   6.170   4.665   9.411 -1.4741 -3.3058 -1.9766
    2CHL1   C16   95   6.016   4.715   9.266  0.6409 -0.0057 -0.4136
    2CHL1  H16A   96   6.028   4.817   9.223 -0.8513 -0.3223 -1.6419
    2CHL1  H16B   97   6.073   4.636   9.213 -0.3618 -1.5255  0.6868
    2CHL1   C17   98   5.871   4.668   9.272 -0.0838  0.0475 -0.7677
    2CHL1   H17   99   5.879   4.559   9.250  0.4911  0.1490 -1.0741
    2CHL1   C13  100   5.827   4.688   9.421 -0.3149  0.3896 -0.0886
    2CHL1   C18  101   5.789   4.835   9.445  0.8888 -0.4764 -0.0048
    2CHL1  H18A  102   5.799   4.873   9.548  1.9789 -0.2083 -0.1938
    2CHL1  H18B  103   5.844   4.912   9.387 -0.0982 -0.0868 -0.4581
    2CHL1  H18C  104   5.683   4.851   9.414  1.3816  1.2599 -0.9372
    2CHL1   C12  105   5.711   4.594   9.472 -0.5052  0.6492  0.4239
    2CHL1  H12A  106   5.613   4.610   9.420 -0.5259 -1.4782 -0.2737
    2CHL1  H12B  107   5.741   4.488   9.464  0.0595  0.9010 -1.1581
    2CHL1   C11  108   5.693   4.611   9.620  0.0499  0.1044  0.3642
    2CHL1  H11A  109   5.655   4.715   9.618  0.7836  0.3553 -1.1068
    2CHL1  H11B  110   5.615   4.538   9.653 -0.5590  1.4952  2.1711
    2CHL1    C9  111   5.828   4.583   9.700  0.2469 -0.3951  0.5106
    2CHL1    H9  112   5.854   4.478   9.675  0.0063 -0.0084 -1.6045
    2CHL1   C10  113   5.811   4.591   9.856  0.1283 -0.2287 -0.0027
    2CHL1   C19  114   5.724   4.717   9.879 -0.4306  0.6091 -0.7738
    2CHL1  H19A  115   5.778   4.805   9.838 -0.7745  1.5279  0.6410
    2CHL1  H19B  116   5.622   4.723   9.837  0.5793  1.0360 -3.3091
    2CHL1  H19C  117   5.725   4.733   9.989  2.9771  0.1526 -0.6365
    2CHL1    C1  118   5.749   4.456   9.909  0.1504  0.1143  0.2737
    2CHL1   H1A  119   5.650   4.450   9.861  0.0647 -2.7484  0.6705
    2CHL1   H1B  120   5.814   4.374   9.873  2.2842  0.9450  1.9653
    2CHL1    C2  121   5.747   4.449  10.058 -0.7631 -0.2583  0.0946
    2CHL1   H2A  122   5.696   4.361  10.101  0.3703 -0.5984  0.8083
    2CHL1   H2B  123   5.694   4.540  10.094 -0.5613  0.4664 -1.3698
    2CHL1   C20  124   5.787   4.733   9.166  0.5131 -0.0601 -0.0203
    2CHL1   H20  125   5.771   4.840   9.188  0.1474 -0.5035  2.0779
    2CHL1   C21  126   5.648   4.661   9.167 -0.1191  0.1342  0.1366
    2CHL1  H21A  127   5.589   4.718   9.241 -0.2900 -1.2423  1.1080
    2CHL1  H21B  128   5.655   4.550   9.178 -0.6288 -0.0762 -1.4366
    2CHL1  H21C  129   5.597   4.675   9.069 -1.2914  0.1082  0.7266
    2CHL1   C22  130   5.856   4.719   9.024 -0.0778  0.9286  0.1305
    2CHL1  H22A  131   5.781   4.762   8.954 -0.9599  0.0726  0.5115
    2CHL1  H22B  132   5.953   4.772   9.018  0.3488  0.2110  0.4424
    2CHL1   C23  133   5.888   4.577   8.970  0.1940  0.5540 -0.4921
    2CHL1  H23A  134   5.963   4.524   9.033 -0.6812 -0.0408  0.0855
    2CHL1  H23B  135   5.798   4.514   8.990 -0.0536  1.1833  0.4812
    2CHL1   C24  136   5.933   4.575   8.817  0.1906 -0.1624  0.2505
    2CHL1  H24A  137   6.028   4.632   8.816  0.5478 -0.7501 -0.6834
    2CHL1  H24B  138   5.956   4.472   8.783 -1.9210 -0.5970 -0.0378
    2CHL1   C25  139   5.853   4.643   8.701 -0.1113  0.3857 -0.1557
    2CHL1   H25  140   5.809   4.740   8.733  0.4674  0.6331 -0.1026
    2CHL1   C26  141   5.951   4.685   8.584  1.3757  0.5977  0.3962
    2CHL1  H26A  142   5.889   4.713   8.496  3.4664  2.4425 -0.5903
    2CHL1  H26B  143   6.034   4.756   8.605  4.0851 -1.7139 -1.7514
    2CHL1  H26C  144   5.999   4.592   8.548  0.4082 -0.2773  1.3186
    2CHL1   C27  145   5.730   4.563   8.659 -0.5492  0.1197  0.0916
    2CHL1  H27A  146   5.765   4.468   8.614 -2.4378 -0.1528 -0.9373
    2CHL1  H27B  147   5.655   4.541   8.738  0.0971  0.5984  0.8518
    2CHL1  H27C  148   5.669   4.612   8.580 -0.6475  0.5116  0.4075
    3CHL1    C3  149   5.569   3.376  10.316 -0.0251  0.1116  0.3241
    3CHL1    H3  150   5.570   3.266  10.309 -0.7653  0.1112  0.1993
    3CHL1    O3  151   5.567   3.399  10.459 -0.3290 -0.2254 -0.0200
    3CHL1   H3'  152   5.475   3.404  10.486 -0.4610  0.9309 -0.6371
    3CHL1    C4  153   5.682   3.459  10.251 -0.1305  0.3196  0.0687
    3CHL1   H4A  154   5.664   3.565  10.280  1.1218  0.3610  0.7708
    3CHL1   H4B  155   5.780   3.424  10.290 -0.1951 -2.4189 -1.8965
    3CHL1    C5  156   5.683   3.440  10.102  0.1356 -0.2322  0.0542
    3CHL1    C6  157   5.793   3.395  10.033 -0.0154 -0.9381 -0.5387
    3CHL1    H6  158   5.889   3.372  10.083  0.0125 -1.4739 -0.8257
    3CHL1    C7  159   5.801   3.372   9.890 -0.0965 -0.3498  0.3775
    3CHL1   H7A  160   5.896   3.415   9.851 -0.1570 -1.8455 -1.5911
    3CHL1   H7B  161   5.804   3.264   9.865 -1.5259  0.2890 -3.1916
    3CHL1    C8  162   5.677   3.430   9.809  0.8118 -0.3010  0.6390
    3CHL1    H8  163   5.693   3.539   9.798 -2.2229  0.1582 -0.0773
    3CHL1   C14  164   5.673   3.378   9.666  0.4253 -0.4188 -0.6580
    3CHL1   H14  165   5.658   3.269   9.673  2.4364 -0.9101 -2.7057
    3CHL1   C15  166   5.798   3.377   9.575 -0.2191 -0.0814  0.0744
    3CHL1  H15A  167   5.859   3.466   9.600 -1.3121  0.7547 -0.1987
    3CHL1  H15B  168   5.867   3.292   9.598  0.8800  0.5963 -0.6150
    3CHL1   C16  169   5.745   3.377   9.426 -0.2874 -0.3721  0.0985
    3CHL1  H16A  170   5.773   3.473   9.377  1.0099 -1.7439 -2.0232
    3CHL1  H16B  171   5.797   3.293   9.376  1.6214  0.5144  0.4776
    3CHL1   C17  172   5.592   3.370   9.438  0.2227 -1.0872 -0.3526
    3CHL1   H17  173   5.573   3.261   9.452  1.5233 -1.3706 -0.6722
    3CHL1   C13  174   5.555   3.427   9.579  0.1106 -0.1375 -0.1626
    3CHL1   C18  175   5.582   3.579   9.571 -0.4347  0.1995 -0.6717
    3CHL1  H18A  176   5.597   3.629   9.668 -0.2579  0.2471 -0.7224
    3CHL1  H18B  177   5.674   3.600   9.511  0.5807  1.5387  1.2551
    3CHL1  H18C  178   5.488   3.622   9.532 -0.7766  0.1499  0.1011
    3CHL1   C12  179   5.424   3.385   9.647 -0.2782  0.2116 -0.3050
    3CHL1  H12A  180   5.334   3.421   9.593 -2.8601 -0.7289  3.0508
    3CHL1  H12B  181   5.415   3.275   9.647 -3.3855  0.3073  2.8042
    3CHL1   C11  182   5.422   3.424   9.794 -0.2713  0.1465 -0.2583
    3CHL1  H11A  183   5.385   3.529   9.788 -2.6942 -0.5616  0.9363
    3CHL1  H11B  184   5.329   3.383   9.841 -1.7487  2.6899 -0.7601
    3CHL1    C9  185   5.548   3.400   9.884 -0.2382 -0.4836  0.2112
    3CHL1    H9  186   5.545   3.289   9.890  1.1746 -0.5352  0.4270
    3CHL1   C10  187   5.548   3.459  10.028 -0.2607  0.9409 -0.4624
    3CHL1   C19  188   5.533   3.614  10.014  0.4845 -0.0701 -0.0720
    3CHL1  H19A  189   5.560   3.662  10.111 -1.1006 -0.4649  0.6024
    3CHL1  H19B  190   5.603   3.659   9.940 -2.3082  3.6440 -0.6915
    3CHL1  H19C  191   5.430   3.638   9.982  0.4675  1.5723  1.1213
    3CHL1    C1  192   5.436   3.395  10.112 -0.1728  0.3434  0.5229
    3CHL1   H1A  193   5.336   3.416  10.068 -0.4887 -0.1453  0.9928
    3CHL1   H1B  194   5.450   3.288  10.087  1.8961  0.6433  0.1571
    3CHL1    C2  195   5.430   3.421  10.263 -0.5164  0.1740 -0.2734
    3CHL1   H2A  196   5.342   3.381  10.317 -0.7920  1.8176  0.5504
    3CHL1   H2B  197   5.434   3.531  10.271  2.7270  0.3339 -1.9874
    3CHL1   C20  198   5.520   3.418   9.315 -0.2840 -0.5141  0.1847
    3CHL1   H20  199   5.546   3.525   9.298  3.5342 -1.1695  0.9496
    3CHL1   C21  200   5.365   3.406   9.312  0.2017  0.4262 -0.7785
    3CHL1  H21A  201   5.332   3.301   9.297  0.5291  0.1405  0.3449
    3CHL1  H21B  202   5.324   3.458   9.223  1.3207 -0.0821 -1.6102
    3CHL1  H21C  203   5.315   3.436   9.407  2.3940 -0.8021  0.8751
    3CHL1   C22  204   5.562   3.335   9.190  0.0915  0.0490  0.8687
    3CHL1  H22A  205   5.671   3.319   9.176 -0.2681 -1.1574 -0.9701
    3CHL1  H22B  206   5.510   3.236   9.190 -0.2498  0.2195 -0.0248
    3CHL1   C23  207   5.520   3.407   9.053  0.1220  0.2922 -0.4134
    3CHL1  H23A  208   5.414   3.438   9.055 -0.0812 -0.3298 -1.1451
    3CHL1  H23B  209   5.580   3.500   9.038  2.0551 -0.9222 -0.6605
    3CHL1   C24  210   5.559   3.324   8.932 -0.5175 -0.3207 -0.2138
    3CHL1  H24A  211   5.533   3.388   8.845  0.4587 -0.7999 -0.8791
    3CHL1  H24B  212   5.667   3.295   8.929 -0.7693 -1.3252  0.1929
    3CHL1   C25  213   5.475   3.198   8.911  0.2099 -0.1804  0.4198
    3CHL1   H25  214   5.462   3.138   9.004  0.9143 -0.0264  0.6259
    3CHL1   C26  215   5.336   3.236   8.858  0.0539 -1.1558 -0.2744
    3CHL1  H26A  216   5.281   3.285   8.941  0.7257 -0.6667 -0.1074
    3CHL1  H26B  217   5.342   3.312   8.777 -0.2147  0.8990  1.5598
    3CHL1  H26C  218   5.271   3.154   8.820  0.7090 -1.3300 -1.0636
    3CHL1   C27  219   5.549   3.105   8.810 -0.0675  0.6006 -0.4915
    3CHL1  H27A  220   5.483   3.042   8.747 -0.4742  0.4632  0.0561
    3CHL1  H27B  221   5.613   3.168   8.745  0.3329 -1.0351 -1.7583
    3CHL1  H27C  222   5.617   3.037   8.866 -0.3433  1.6787  1.2380
    4CHL1    C3  223   6.552   6.052  10.757  1.1239 -0.5455 -0.4034
    4CHL1    H3  224   6.602   6.146  10.789 -2.2769  1.2995 -0.0358
    4CHL1    O3  225   6.495   6.001  10.869  0.2242 -0.1302 -0.5945
    4CHL1   H3'  226   6.512   6.058  10.944  1.7857 -1.7285  0.3467
    4CHL1    C4  227   6.430   6.088  10.662 -0.0674  0.4790  0.2147
    4CHL1   H4A  228   6.358   6.004  10.669  0.1687  0.3175  0.7791
    4CHL1   H4B  229   6.382   6.179  10.706  1.2192  0.0841  2.6419
    4CHL1    C5  230   6.470   6.115  10.511  0.4268  0.5773 -0.8575
    4CHL1    C6  231   6.423   6.220  10.444 -0.4229 -0.1485 -0.2108
    4CHL1    H6  232   6.356   6.290  10.496  0.2303  1.4090 -1.3847
    4CHL1    C7  233   6.446   6.237  10.289  0.0098 -0.5457  0.0541
    4CHL1   H7A  234   6.358   6.270  10.230  0.9859 -0.7565 -1.5778
    4CHL1   H7B  235   6.516   6.322  10.284 -0.5983 -0.0526 -0.2134
    4CHL1    C8  236   6.515   6.117  10.230  0.4061 -0.1282  0.4571
    4CHL1    H8  237   6.433   6.043  10.217 -0.8136  1.0173  1.3850
    4CHL1   C14  238   6.583   6.160  10.103 -1.8437  0.3001 -0.4219
    4CHL1   H14  239   6.649   6.240  10.142 -2.9068  0.7973  0.4172
    4CHL1   C15  240   6.500   6.228   9.986  0.1279 -0.6703 -0.1749
    4CHL1  H15A  241   6.394   6.195   9.983  0.0790 -0.7060  1.0904
    4CHL1  H15B  242   6.496   6.338   9.996  1.4815 -0.5394 -0.9151
    4CHL1   C16  243   6.565   6.178   9.859  0.5975 -0.0410  0.3331
    4CHL1  H16A  244   6.506   6.093   9.818 -1.3934  0.8176  1.2938
    4CHL1  H16B  245   6.573   6.257   9.782 -0.0687 -1.0338 -0.7934
    4CHL1   C17  246   6.704   6.121   9.899 -0.3808 -0.2358  0.1942
    4CHL1   H17  247   6.773   6.208   9.907 -0.5604 -0.1505  0.8669
    4CHL1   C13  248   6.675   6.052  10.033  0.3238  0.3847 -0.1606
    4CHL1   C18  249   6.585   5.935  10.003 -0.3397  1.0042  0.5028
    4CHL1  H18A  250   6.490   5.959   9.953 -0.2777  0.2975  0.0277
    4CHL1  H18B  251   6.645   5.863   9.943 -2.1830 -0.3824  0.2301
    4CHL1  H18C  252   6.556   5.881  10.096 -0.2544 -1.1685 -0.6824
    4CHL1   C12  253   6.787   6.028  10.129  0.3705 -0.9152  0.0412
    4CHL1  H12A  254   6.850   5.942  10.096 -1.4205 -2.1495 -0.2992
    4CHL1  H12B  255   6.841   6.123  10.149 -1.2294 -0.2549  1.4657
    4CHL1   C11  256   6.723   5.970  10.256  0.1334 -0.6256  0.2984
    4CHL1  H11A  257   6.684   5.870  10.226 -1.2428 -0.3812  1.1676
    4CHL1  H11B  258   6.804   5.939  10.326  0.2908 -1.7607 -0.3700
    4CHL1    C9  259   6.628   6.067  10.319  0.6258  0.2939  0.1956
    4CHL1    H9  260   6.685   6.160  10.342 -2.6381  2.7691 -0.8726
    4CHL1   C10  261   6.572   6.019  10.451  0.2515 -0.2238  0.3253
    4CHL1   C19  262   6.489   5.886  10.426 -0.0762 -0.4360 -0.6056
    4CHL1  H19A  263   6.416   5.884  10.342  0.6598 -1.8445 -1.2323
    4CHL1  H19B  264   6.568   5.812  10.403  1.4585  0.7980  0.4884
    4CHL1  H19C  265   6.441   5.847  10.518  0.6971  0.2050  0.0871
    4CHL1    C1  266   6.693   5.991  10.556  0.1424 -0.5302  0.3447
    4CHL1   H1A  267   6.741   5.899  10.516  0.3000  0.4622 -1.8720
    4CHL1   H1B  268   6.771   6.070  10.562 -1.0405  0.5907  2.0748
    4CHL1    C2  269   6.644   5.950  10.691  0.4668 -0.2910  0.3558
    4CHL1   H2A  270   6.732   5.940  10.757  0.2683  0.5127  0.7575
    4CHL1   H2B  271   6.585   5.857  10.678  2.0282 -1.3413  0.5659
    4CHL1   C20  272   6.758   6.035   9.770  0.5457 -0.0961  0.1874
    4CHL1   H20  273   6.685   5.953   9.753 -1.4235  2.0445 -2.4462
    4CHL1   C21  274   6.885   5.971   9.805  0.1416  0.3712 -0.1735
    4CHL1  H21A  275   6.861   5.882   9.867  0.8892  0.7664  0.7026
    4CHL1  H21B  276   6.949   6.036   9.868  1.3988 -0.4836 -0.5320
    4CHL1  H21C  277   6.947   5.940   9.718 -1.1323  1.4988 -1.5408
    4CHL1   C22  278   6.765   6.116   9.637 -0.4971  0.0862 -0.6564
    4CHL1  H22A  279   6.719   6.217   9.642  0.4616  0.6860 -2.7292
    4CHL1  H22B  280   6.872   6.130   9.612  0.2354  1.1185  2.6451
    4CHL1   C23  281   6.708   6.034   9.528  0.2755 -0.1967 -0.0948
    4CHL1  H23A  282   6.746   5.930   9.538 -0.6955 -0.5033  0.6687
    4CHL1  H23B  283   6.598   6.032   9.543  0.6840 -0.3870  3.9400
    4CHL1   C24  284   6.727   6.104   9.392  0.2511  0.0415  0.0980
    4CHL1  H24A  285   6.664   6.196   9.389 -1.0849 -0.8410 -0.3133
    4CHL1  H24B  286   6.833   6.133   9.379 -0.4868  2.8988 -0.1063
    4CHL1   C25  287   6.687   6.023   9.267 -0.2620  1.0765 -0.4839
    4CHL1   H25  288   6.580   5.998   9.280 -0.3747  1.5390 -0.4965
    4CHL1   C26  289   6.705   6.092   9.136 -0.2509 -0.0642  0.1464
    4CHL1  H26A  290   6.664   6.026   9.057 -2.4770  1.4278 -0.0381
    4CHL1  H26B  291   6.646   6.185   9.121 -1.3455 -0.9039 -0.8839
    4CHL1  H26C  292   6.809   6.113   9.103 -1.3460 -0.3023 -3.9586
    4CHL1   C27  293   6.760   5.887   9.267 -0.0493 -0.4426  0.5407
    4CHL1  H27A  294   6.869   5.897   9.282  0.0410 -0.9425  0.2517
    4CHL1  H27B  295   6.724   5.817   9.346  0.4735 -0.9293  0.3544
    4CHL1  H27C  296   6.745   5.835   9.170 -0.5201  0.5404  0.0724
    5CHL1    C3  297   0.016   4.175  10.185  0.1710  0.5776 -0.3716
    5CHL1    H3  298   0.090   4.092  10.186 -1.6614 -1.1315 -0.8056
    5CHL1    O3  299  -0.010   4.205  10.321  0.0146 -0.3175  0.3388
    5CHL1   H3'  300  -0.090   4.258  10.314  1.0383  1.4250  1.0374
    5CHL1    C4  301   0.082   4.297  10.114  0.5483  0.4470 -0.2524
    5CHL1   H4A  302   0.013   4.384  10.126  2.5573  2.0685  0.1029
    5CHL1   H4B  303   0.170   4.334  10.171 -0.5175  0.7720  1.2481
    5CHL1    C5  304   0.111   4.275   9.966  0.6340  0.4818  0.1032
    5CHL1    C6  305   0.229   4.296   9.913 -0.0653 -0.2120  0.1623
    5CHL1    H6  306   0.310   4.335   9.977 -2.3200  0.6390  2.6311
    5CHL1    C7  307   0.249   4.279   9.767 -0.8036 -0.1180 -0.3680
    5CHL1   H7A  308   0.298   4.370   9.725 -1.8741  1.1258  0.9750
    5CHL1   H7B  309   0.308   4.189   9.742 -1.6465 -1.0451  0.9009
    5CHL1    C8  310   0.123   4.280   9.683  0.4014  1.0626  0.7514
    5CHL1    H8  311   0.083   4.383   9.670 -0.7891  0.7708  1.8949
    5CHL1   C14  312   0.152   4.245   9.540  0.6223  0.3612  0.3811
    5CHL1   H14  313   0.180   4.140   9.559  0.8237  0.7389  2.5043
    5CHL1   C15  314   0.268   4.314   9.476 -0.2762 -0.5885  0.2355
    5CHL1  H15A  315   0.253   4.423   9.490  2.1764 -0.3127  1.3031
    5CHL1  H15B  316   0.368   4.273   9.501 -0.1532 -0.4696 -0.0583
    5CHL1   C16  317   0.245   4.302   9.322  0.0316  0.0656 -0.0956
    5CHL1  H16A  318   0.247   4.405   9.279  0.2159  0.4469  0.8018
    5CHL1  H16B  319   0.323   4.241   9.273 -0.0760 -0.6925  0.6713
    5CHL1   C17  320   0.105   4.220   9.309 -0.0923  0.5120  0.9924
    5CHL1   H17  321   0.131   4.112   9.299 -0.1288  0.6913 -2.0604
    5CHL1   C13  322   0.035   4.236   9.444 -0.4073  0.1441  0.7784
    5CHL1   C18  323  -0.033   4.377   9.441 -0.1222  0.6148 -0.2099
    5CHL1  H18A  324  -0.086   4.387   9.537  0.1302 -1.2463  0.1614
    5CHL1  H18B  325   0.033   4.465   9.421  0.3107  0.1339 -0.9799
    5CHL1  H18C  326  -0.110   4.366   9.361  0.0614 -1.9359 -0.1160
    5CHL1   C12  327  -0.053   4.121   9.502  0.7436 -0.1391  0.1012
    5CHL1  H12A  328  -0.146   4.103   9.443  0.9502  0.5973 -0.4696
    5CHL1  H12B  329  -0.000   4.024   9.489 -1.7323 -2.0111  2.8123
    5CHL1   C11  330  -0.094   4.144   9.654 -0.4403 -0.2130 -0.2143
    5CHL1  H11A  331  -0.163   4.230   9.660  0.6172  0.6046  0.5146
    5CHL1  H11B  332  -0.145   4.059   9.704  1.5327 -0.4845  1.4454
    5CHL1    C9  333   0.024   4.184   9.750  0.6777  0.9640  0.9336
    5CHL1    H9  334   0.073   4.085   9.763 -2.5991 -0.8427  0.5142
    5CHL1   C10  335  -0.012   4.230   9.894  0.2127  0.8275 -0.0857
    5CHL1   C19  336  -0.098   4.357   9.877  0.1127 -0.4669  0.4095
    5CHL1  H19A  337  -0.076   4.419   9.788  0.8510  1.2468  1.7293
    5CHL1  H19B  338  -0.200   4.318   9.853  0.7326 -1.3501 -0.8729
    5CHL1  H19C  339  -0.116   4.431   9.958 -1.7521  0.3955 -0.7183
    5CHL1    C1  340  -0.079   4.102   9.968 -0.4889  0.2101  0.0903
    5CHL1   H1A  341  -0.170   4.071   9.914  1.4022 -0.8665 -2.6906
    5CHL1   H1B  342   0.002   4.026   9.960  0.3647  0.9750  1.0992
    5CHL1    C2  343  -0.112   4.139  10.116  0.1606 -0.4436  0.2714
    5CHL1   H2A  344  -0.157   4.054  10.173  2.0264 -0.8488  1.2245
    5CHL1   H2B  345  -0.176   4.230  10.112  1.0742  0.2598  1.2182
    5CHL1   C20  346   0.024   4.240   9.184  0.1853  0.7161 -0.4449
    5CHL1   H20  347  -0.033   4.336   9.180  1.3334  1.4387  0.1479
    5CHL1   C21  348  -0.088   4.129   9.166 -0.9160  0.0799  0.0242
    5CHL1  H21A  349  -0.168   4.136   9.243 -0.2935  0.6332  0.6474
    5CHL1  H21B  350  -0.040   4.029   9.163 -0.1933  0.4485 -1.8883
    5CHL1  H21C  351  -0.134   4.133   9.065  1.5989  1.8141 -1.1613
    5CHL1   C22  352   0.109   4.241   9.052  0.3897  0.2196  0.3945
    5CHL1  H22A  353   0.202   4.181   9.069  0.1719 -0.5062 -0.8338
    5CHL1  H22B  354   0.042   4.193   8.977 -0.9486  2.4838  0.0773
    5CHL1   C23  355   0.148   4.375   8.985 -0.7874  0.2696  0.0137
    5CHL1  H23A  356   0.080   4.458   9.015  0.5563  2.4156 -2.4545
    5CHL1  H23B  357   0.243   4.422   9.019 -0.8949  0.5237 -0.0307
    5CHL1   C24  358   0.161   4.366   8.829 -0.0821 -0.0586 -0.2126
    5CHL1  H24A  359   0.191   4.469   8.803  1.3449 -0.8594 -2.0143
    5CHL1  H24B  360   0.228   4.281   8.801 -1.5799 -1.5310  0.5111
    5CHL1   C25  361   0.032   4.320   8.752 -0.4032 -0.3396  0.0255
    5CHL1   H25  362  -0.010   4.222   8.783 -1.2662  0.5622  1.9087
    5CHL1   C26  363  -0.086   4.418   8.786  0.0014 -0.1807 -0.0708
    5CHL1  H26A  364  -0.103   4.416   8.895 -2.5259  1.8945 -0.3180
    5CHL1  H26B  365  -0.068   4.525   8.764  0.2475  0.0447  1.2050
    5CHL1  H26C  366  -0.174   4.385   8.725 -0.4966  0.9148  0.0374
    5CHL1   C27  367   0.054   4.305   8.601  0.2338  1.1758  0.1872
    5CHL1  H27A  368   0.042   4.403   8.550  0.5481  1.3610  0.4707
    5CHL1  H27B  369   0.138   4.245   8.560 -2.5693 -1.7942 -1.7003
    5CHL1  H27C  370  -0.038   4.256   8.561  0.1259  1.3557  0.2135
    6CHL1    C3  371   4.052   2.867  10.421  0.1992  0.1638 -0.2008
    6CHL1    H3  372   3.970   2.942  10.432  0.0289 -0.1520  0.8359
    6CHL1    O3  373   4.097   2.848  10.552  1.0072 -0.4451 -0.4475
    6CHL1   H3'  374   4.174   2.790  10.554  0.8510 -0.6370  1.3803
    6CHL1    C4  375   4.013   2.735  10.354 -0.3750  0.1047  0.9249
    6CHL1   H4A  376   4.093   2.661  10.374 -1.5907 -1.7176 -0.6620
    6CHL1   H4B  377   3.924   2.694  10.407 -1.9186  1.8794 -0.1599
    6CHL1    C5  378   3.986   2.754  10.204  0.4310 -0.0992 -0.2838
    6CHL1    C6  379   3.869   2.721  10.151  0.0739 -0.4308 -0.1413
    6CHL1    H6  380   3.793   2.686  10.222  1.1413 -1.9938  0.2684
    6CHL1    C7  381   3.826   2.737  10.009  0.0546 -0.1260 -0.6284
    6CHL1   H7A  382   3.772   2.643   9.983  1.1788 -1.3649  1.2670
    6CHL1   H7B  383   3.766   2.830   9.997  1.3856  0.8447 -0.0096
    6CHL1    C8  384   3.951   2.753   9.927 -0.1810 -0.6274  0.1550
    6CHL1    H8  385   3.994   2.651   9.924 -3.2978 -2.0531 -0.2891
    6CHL1   C14  386   3.912   2.802   9.788 -0.6272  0.4000 -0.5633
    6CHL1   H14  387   3.855   2.896   9.800  1.0111  1.2653  0.8235
    6CHL1   C15  388   3.800   2.718   9.711 -0.7020 -0.3337 -0.5217
    6CHL1  H15A  389   3.811   2.609   9.727  1.8225 -0.0526  0.1807
    6CHL1  H15B  390   3.701   2.751   9.749 -0.1932  1.0771 -0.3353
    6CHL1   C16  391   3.828   2.762   9.569  0.4247  0.2316  0.1331
    6CHL1  H16A  392   3.844   2.671   9.508  2.3685 -0.8001  2.0445
    6CHL1  H16B  393   3.747   2.824   9.525  1.2365  1.1087 -0.1738
    6CHL1   C17  394   3.957   2.843   9.560 -0.5994 -0.4537 -0.4176
    6CHL1   H17  395   3.938   2.950   9.582  0.1707 -0.1033 -1.3937
    6CHL1   C13  396   4.029   2.814   9.693 -0.3233 -0.0066 -0.0869
    6CHL1   C18  397   4.096   2.681   9.676 -0.0412  0.3281  0.0404
    6CHL1  H18A  398   4.147   2.638   9.764  0.6684  2.4402  0.7390
    6CHL1  H18B  399   4.029   2.597   9.649  2.6469 -2.3635  1.1494
    6CHL1  H18C  400   4.177   2.682   9.599 -0.6763  1.8233 -0.6691
    6CHL1   C12  401   4.125   2.916   9.749 -0.3294  0.4683 -0.3070
    6CHL1  H12A  402   4.211   2.920   9.679 -0.0546 -0.5252 -0.0394
    6CHL1  H12B  403   4.069   3.011   9.734 -0.7815  0.2700  0.0989
    6CHL1   C11  404   4.169   2.880   9.889 -0.2511 -0.2357 -0.2113
    6CHL1  H11A  405   4.223   2.783   9.882  1.9802  1.0127 -1.1571
    6CHL1  H11B  406   4.235   2.954   9.939 -0.2585  1.2202 -2.2519
    6CHL1    C9  407   4.051   2.854   9.987  0.0004 -0.4796  0.4837
    6CHL1    H9  408   3.988   2.945   9.997  1.9471  0.8440  1.0882
    6CHL1   C10  409   4.093   2.832  10.130 -0.0513 -0.6084 -0.2765
    6CHL1   C19  410   4.215   2.741  10.130  0.2434 -1.4195 -0.5692
    6CHL1  H19A  411   4.252   2.736  10.235  0.1359 -0.4294 -0.4759
    6CHL1  H19B  412   4.190   2.639  10.096  0.4665 -1.9325  0.7218
    6CHL1  H19C  413   4.296   2.787  10.070 -1.7512  1.5792 -1.1945
    6CHL1    C1  414   4.129   2.966  10.209  0.4063  0.5232  0.2191
    6CHL1   H1A  415   4.210   3.019  10.155 -0.6277  0.0863 -1.8768
    6CHL1   H1B  416   4.035   3.025  10.210  0.3995  0.5146  0.1260
    6CHL1    C2  417   4.165   2.948  10.357  0.3083  0.5074 -0.1612
    6CHL1   H2A  418   4.182   3.044  10.411 -1.2942  1.9712 -2.1097
    6CHL1   H2B  419   4.260   2.890  10.357  1.3421  2.1459 -0.3197
    6CHL1   C20  420   4.033   2.837   9.422  0.5972  0.4967 -0.3462
    6CHL1   H20  421   4.073   2.734   9.409 -0.3853 -0.1504  1.4305
    6CHL1   C21  422   4.162   2.930   9.421 -0.2401  0.4299  0.0536
    6CHL1  H21A  423   4.229   2.859   9.474 -1.5219 -0.8002  0.1065
    6CHL1  H21B  424   4.150   3.023   9.479  1.1671 -1.4185  3.5625
    6CHL1  H21C  425   4.198   2.949   9.317 -2.6624  2.0249 -0.5788
    6CHL1   C22  426   3.931   2.867   9.307 -0.0326 -0.1715 -0.5508
    6CHL1  H22A  427   3.845   2.797   9.313 -1.3920  1.2109 -2.2926
    6CHL1  H22B  428   3.877   2.957   9.345 -0.8672 -1.3443  1.1370
    6CHL1   C23  429   3.981   2.865   9.161 -0.5136  0.1392  0.3943
    6CHL1  H23A  430   3.894   2.900   9.101 -2.2735 -2.0977  1.5030
    6CHL1  H23B  431   4.064   2.936   9.140 -0.9881  0.4093 -0.6036
    6CHL1   C24  432   4.013   2.723   9.120 -0.2811 -0.1293  0.5208
    6CHL1  H24A  433   4.108   2.687   9.164  0.7125 -1.6064 -2.5735
    6CHL1  H24B  434   3.942   2.645   9.155 -3.1023  1.6455 -0.7940
    6CHL1   C25  435   4.029   2.705   8.965 -0.4538  0.1838 -0.3559
    6CHL1   H25  436   3.953   2.770   8.916  0.3707  1.0928 -0.4660
    6CHL1   C26  437   4.177   2.745   8.919 -0.2498 -0.3869  0.4946
    6CHL1  H26A  438   4.254   2.694   8.981  2.0040  3.2574  1.0051
    6CHL1  H26B  439   4.196   2.727   8.811 -0.0817 -1.3738  0.6801
    6CHL1  H26C  440   4.167   2.855   8.926 -1.4385 -0.5170  1.0204
    6CHL1   C27  441   4.002   2.550   8.931 -0.7313 -0.4834 -0.1092
    6CHL1  H27A  442   3.987   2.534   8.822 -1.7384  0.4210 -0.1198
    6CHL1  H27B  443   4.080   2.482   8.972  0.5634  0.3851 -1.0590
    6CHL1  H27C  444   3.902   2.524   8.971 -0.5761  0.5048  0.9954
    7CHL1    C3  445   1.002   6.181  10.474 -0.9004  0.0904 -0.1897
    7CHL1    H3  446   0.994   6.074  10.447 -1.8581  0.1316 -0.1149
    7CHL1    O3  447   1.025   6.191  10.613 -0.5624  0.4806  0.0507
    7CHL1   H3'  448   1.104   6.245  10.622  0.6328 -0.9102 -1.4783
    7CHL1    C4  449   1.121   6.243  10.401 -0.1605  0.0504  0.2823
    7CHL1   H4A  450   1.143   6.342  10.447  1.6025 -0.1711 -0.0116
    7CHL1   H4B  451   1.213   6.183  10.422 -0.3180 -0.5968 -0.7898
    7CHL1    C5  452   1.097   6.249  10.246  0.7300 -0.3022  0.2093
    7CHL1    C6  453   1.173   6.190  10.156 -0.1500 -0.2243  0.5844
    7CHL1    H6  454   1.259   6.127  10.182  0.7839  1.6078  2.1691
    7CHL1    C7  455   1.151   6.184  10.002 -0.4168 -0.4437 -0.3791
    7CHL1   H7A  456   1.246   6.205   9.949 -0.8221  3.7060  0.1910
    7CHL1   H7B  457   1.115   6.082   9.976 -2.6423 -0.0430  0.8620
    7CHL1    C8  458   1.055   6.303   9.964  0.1069  0.0515  0.1313
    7CHL1    H8  459   1.115   6.396   9.970  0.3376 -0.1287  0.6097
    7CHL1   C14  460   1.005   6.296   9.820 -0.4158  0.4570 -0.4381
    7CHL1   H14  461   0.933   6.212   9.818 -0.6698  0.6485  0.2611
    7CHL1   C15  462   1.111   6.259   9.710  0.0260 -0.2638  0.1954
    7CHL1  H15A  463   1.208   6.312   9.726 -0.4115  0.5267  0.2839
    7CHL1  H15B  464   1.119   6.149   9.703 -1.8329 -0.4051 -0.1048
    7CHL1   C16  465   1.051   6.321   9.573  0.8291  0.4274  0.2832
    7CHL1  H16A  466   1.111   6.402   9.526  1.2951 -0.8770 -1.4579
    7CHL1  H16B  467   1.054   6.236   9.502  1.6086  0.2927  0.4705
    7CHL1   C17  468   0.910   6.371   9.614  0.2443  0.5087 -0.2500
    7CHL1   H17  469   0.854   6.278   9.593 -0.9135  1.3308 -0.9191
    7CHL1   C13  470   0.927   6.405   9.766  0.5239 -0.2640 -0.2330
    7CHL1   C18  471   0.996   6.540   9.780 -0.0794 -0.4348 -0.2427
    7CHL1  H18A  472   0.936   6.632   9.765  2.0014  1.2036  0.9238
    7CHL1  H18B  473   1.036   6.564   9.881  0.6867 -1.2477 -0.3363
    7CHL1  H18C  474   1.079   6.550   9.706  1.0569  1.0715  1.1565
    7CHL1   C12  475   0.795   6.407   9.860 -0.9780  0.5292 -0.2400
    7CHL1  H12A  476   0.737   6.502   9.852  1.1273  2.1872  2.5070
    7CHL1  H12B  477   0.743   6.316   9.824  1.5078 -0.9649 -0.2495
    7CHL1   C11  478   0.821   6.407  10.009  0.0480  0.6302  0.6995
    7CHL1  H11A  479   0.847   6.511  10.038  1.5528 -0.3398  3.0846
    7CHL1  H11B  480   0.733   6.383  10.072 -0.5714  2.6176  0.6694
    7CHL1    C9  481   0.936   6.314  10.058 -0.1234 -0.2595 -0.0535
    7CHL1    H9  482   0.891   6.213  10.054 -0.2873 -0.1920  0.0345
    7CHL1   C10  483   0.972   6.325  10.212 -0.0037  0.0116 -0.1625
    7CHL1   C19  484   0.987   6.477  10.242  0.3823  0.4983 -0.5861
    7CHL1  H19A  485   0.884   6.521  10.241  0.8523  1.6749  0.3057
    7CHL1  H19B  486   1.004   6.491  10.350 -0.5613  0.3419 -0.4026
    7CHL1  H19C  487   1.060   6.530  10.177  0.4354 -1.1697 -1.9570
    7CHL1    C1  488   0.851   6.265  10.289  0.4196 -0.7182  0.0563
    7CHL1   H1A  489   0.757   6.323  10.270  1.0744 -0.0122 -1.1992
    7CHL1   H1B  490   0.815   6.164  10.259 -1.8004  0.5868 -2.0738
    7CHL1    C2  491   0.878   6.261  10.443 -0.1937 -0.0467 -0.4927
    7CHL1   H2A  492   0.791   6.207  10.487  0.2432 -0.5357 -0.2067
    7CHL1   H2B  493   0.889   6.364  10.483 -0.9621 -0.2630  0.3091
    7CHL1   C20  494   0.861   6.487   9.512  0.2254 -0.3134  0.0111
    7CHL1   H20  495   0.928   6.574   9.531  1.2341 -0.8815 -0.8763
    7CHL1   C21  496   0.716   6.525   9.558 -0.0668 -0.7181 -0.2579
    7CHL1  H21A  497   0.666   6.580   9.474  1.4568  0.7947 -0.2306
    7CHL1  H21B  498   0.711   6.591   9.647 -1.7085 -1.0187 -0.0814
    7CHL1  H21C  499   0.661   6.433   9.587  1.7479 -1.6362  0.3548
    7CHL1   C22  500   0.860   6.444   9.364  0.3638  0.6121  0.5270
    7CHL1  H22A  501   0.851   6.333   9.369  2.0464  0.4089 -0.1675
    7CHL1  H22B  502   0.769   6.480   9.311  1.0759  3.1722  0.9196
    7CHL1   C23  503   0.971   6.499   9.278 -0.4837  0.0969  0.8376
    7CHL1  H23A  504   1.002   6.603   9.302  2.8029 -0.4799 -0.4616
    7CHL1  H23B  505   1.055   6.432   9.305  0.3285  0.5960 -0.3954
    7CHL1   C24  506   0.944   6.486   9.125  0.0027  0.1133  0.3645
    7CHL1  H24A  507   0.907   6.395   9.074 -2.5120  2.1275 -1.7055
    7CHL1  H24B  508   0.862   6.557   9.099 -0.4102 -0.8665 -1.1199
    7CHL1   C25  509   1.058   6.530   9.042 -0.1056  0.0091  0.0482
    7CHL1   H25  510   1.017   6.529   8.938 -2.1765 -0.1941  0.8203
    7CHL1   C26  511   1.129   6.660   9.082 -0.2062  0.4123  0.4680
    7CHL1  H26A  512   1.058   6.746   9.075  1.0913  1.5240  0.6297
    7CHL1  H26B  513   1.173   6.645   9.182  0.4651 -1.1165 -0.0377
    7CHL1  H26C  514   1.207   6.684   9.007  0.2378 -0.4222  0.6510
    7CHL1   C27  515   1.163   6.420   9.043 -0.6054 -0.9457  0.2296
    7CHL1  H27A  516   1.208   6.411   9.145 -0.0585 -2.4153 -0.1164
    7CHL1  H27B  517   1.112   6.324   9.018  1.8420 -2.7415  1.6413
    7CHL1  H27C  518   1.241   6.435   8.966 -0.8963 -0.3966  0.0383
    8CHL1    C3  519   2.026   6.456  10.499  0.5446 -0.0834  0.8567
    8CHL1    H3  520   2.107   6.531  10.511  0.9397 -0.0902 -1.4349
    8CHL1    O3  521   1.996   6.418  10.630 -0.3233  0.4190  0.0785
    8CHL1   H3'  522   1.902   6.415  10.645 -0.2092 -4.9731  1.8200
    8CHL1    C4  523   1.913   6.529  10.430  0.1495  0.2655 -0.1685
    8CHL1   H4A  524   1.815   6.476  10.432  0.1069  0.2496 -1.6288
    8CHL1   H4B  525   1.893   6.615  10.498  0.3993  0.2336 -0.0571
    8CHL1    C5  526   1.943   6.561  10.288 -0.4899  0.5803 -0.7713
    8CHL1    C6  527   1.935   6.689  10.251  0.4400 -0.0723 -0.3371
    8CHL1    H6  528   1.906   6.772  10.317 -0.7347 -0.3878 -0.4418
    8CHL1    C7  529   1.948   6.735  10.109  0.1200 -0.3124 -0.5126
    8CHL1   H7A  530   1.866   6.800  10.074  1.2254  1.0326 -0.6822
    8CHL1   H7B  531   2.043   6.790  10.093 -0.8394  2.1700  1.7262
    8CHL1    C8  532   1.971   6.618  10.012 -1.1201 -0.8350  0.6379
    8CHL1    H8  533   1.869   6.580   9.989 -0.8378 -1.8039  0.9387
    8CHL1   C14  534   2.025   6.657   9.880 -0.3987  0.1083  0.0789
    8CHL1   H14  535   2.125   6.703   9.899  0.4166 -2.3560  2.3722
    8CHL1   C15  536   1.958   6.781   9.803  0.0537  0.5449 -0.6734
    8CHL1  H15A  537   1.849   6.777   9.824  0.0617  0.0840 -0.7170
    8CHL1  H15B  538   2.007   6.871   9.846  1.5130 -0.6108  0.1825
    8CHL1   C16  539   1.989   6.754   9.656  0.2158  0.6241 -0.0351
    8CHL1  H16A  540   1.892   6.727   9.609 -0.6195 -0.2669  2.0972
    8CHL1  H16B  541   2.019   6.847   9.603 -0.7882  1.2036  0.3860
    8CHL1   C17  542   2.086   6.631   9.651  0.5202  0.0266  0.0390
    8CHL1   H17  543   2.185   6.672   9.677 -0.0130  0.9077  0.7321
    8CHL1   C13  544   2.041   6.547   9.771  0.2627  0.4422 -0.2289
    8CHL1   C18  545   1.909   6.483   9.742  0.7622 -0.0939  0.0445
    8CHL1  H18A  546   1.921   6.406   9.663 -0.5699 -0.8818  0.5720
    8CHL1  H18B  547   1.861   6.437   9.831 -1.7166  1.7437 -0.2177
    8CHL1  H18C  548   1.837   6.555   9.698 -1.8864 -2.3067  0.4594
    8CHL1   C12  549   2.136   6.443   9.827 -0.5456  0.8770 -0.8905
    8CHL1  H12A  550   2.126   6.364   9.749  1.7078  0.5365 -0.8826
    8CHL1  H12B  551   2.237   6.489   9.837 -1.1783  1.9987  0.9037
    8CHL1   C11  552   2.091   6.392   9.963  0.1892 -0.1746  0.2092
    8CHL1  H11A  553   2.009   6.319   9.949  1.7299 -1.7266 -1.2932
    8CHL1  H11B  554   2.178   6.335  10.003 -0.5531 -1.5563 -0.0985
    8CHL1    C9  555   2.050   6.500  10.067  0.0619  0.1715 -0.9315
    8CHL1    H9  556   2.149   6.545  10.090  1.0019 -2.8100  1.5038
    8CHL1   C10  557   1.993   6.446  10.202 -0.0550 -0.2422  0.5403
    8CHL1   C19  558   1.867   6.358  10.177  0.5564  0.3925  0.2656
    8CHL1  H19A  559   1.898   6.263  10.129  0.1630  0.8766 -0.9992
    8CHL1  H19B  560   1.813   6.333  10.271  2.5744  0.3609  1.4670
    8CHL1  H19C  561   1.805   6.407  10.098  0.5921 -0.8112 -0.5405
    8CHL1    C1  562   2.108   6.377  10.275  0.4314 -0.2585  0.0318
    8CHL1   H1A  563   2.133   6.288  10.213  1.8549 -0.3182  0.6494
    8CHL1   H1B  564   2.193   6.448  10.286  0.9167 -0.7488 -0.4698
    8CHL1    C2  565   2.070   6.334  10.418 -0.0140 -0.8884 -0.3616
    8CHL1   H2A  566   2.156   6.289  10.473  0.0856  0.1516  0.3745
    8CHL1   H2B  567   2.000   6.250  10.404 -0.5338 -1.0510  2.4659
    8CHL1   C20  568   2.090   6.563   9.510 -1.3052  0.5838 -0.4540
    8CHL1   H20  569   2.004   6.496   9.493 -0.1484 -0.6119 -1.8783
    8CHL1   C21  570   2.208   6.464   9.498  0.8493  0.0399  0.3736
    8CHL1  H21A  571   2.188   6.393   9.415  0.5425  0.6761 -0.1080
    8CHL1  H21B  572   2.246   6.405   9.584  0.1568 -3.0351 -1.2908
    8CHL1  H21C  573   2.296   6.526   9.469 -0.5478  2.7373  1.5630
    8CHL1   C22  574   2.079   6.657   9.393  0.3462 -0.3423  1.0017
    8CHL1  H22A  575   1.978   6.703   9.387  1.0649  1.1208 -2.5374
    8CHL1  H22B  576   2.157   6.736   9.397  0.1888 -0.1258  0.1467
    8CHL1   C23  577   2.094   6.586   9.250  0.1668  0.0943  0.7794
    8CHL1  H23A  578   2.191   6.536   9.231 -1.0832 -1.2857 -2.8665
    8CHL1  H23B  579   2.014   6.509   9.249 -0.5505  0.7890  2.0312
    8CHL1   C24  580   2.062   6.674   9.128  0.1580  0.1264 -0.5829
    8CHL1  H24A  581   1.959   6.713   9.138  0.1257 -0.1122  0.0477
    8CHL1  H24B  582   2.136   6.756   9.112 -0.3696  0.3292 -2.1272
    8CHL1   C25  583   2.072   6.606   8.992  1.0697  0.3952 -0.1904
    8CHL1   H25  584   2.059   6.687   8.917 -0.3684  3.4153  2.9711
    8CHL1   C26  585   2.211   6.553   8.954 -0.1133  0.2643  0.5214
    8CHL1  H26A  586   2.283   6.638   8.952  0.6849 -0.2790  2.8735
    8CHL1  H26B  587   2.240   6.460   9.007  0.5573 -0.2376 -0.6741
    8CHL1  H26C  588   2.203   6.529   8.846  1.8125 -0.5596  0.5299
    8CHL1   C27  589   1.958   6.500   8.979 -0.4422  0.0035 -0.0289
    8CHL1  H27A  590   1.854   6.531   9.003 -0.2906  0.3880  0.1493
    8CHL1  H27B  591   1.959   6.454   8.878 -2.0027 -2.5515  1.0138
    8CHL1  H27C  592   1.984   6.414   9.045 -0.7890  0.4418  0.6885
    9CHL1    C3  593   4.946   3.034  10.384 -0.3013 -0.0510  0.7600
    9CHL1    H3  594   4.868   2.978  10.328  0.0426 -0.0981  0.3211
    9CHL1    O3  595   4.972   2.970  10.505 -0.1531  0.0464 -0.6142
    9CHL1   H3'  596   4.904   3.003  10.564 -0.0112  0.7357 -0.8227
    9CHL1    C4  597   5.079   3.044  10.303 -0.3130  0.6471 -0.5414
    9CHL1   H4A  598   5.150   3.100  10.367 -0.6401 -2.9619  3.4500
    9CHL1   H4B  599   5.120   2.941  10.296 -1.4220  0.1284  0.2721
    9CHL1    C5  600   5.060   3.118  10.172  0.3381  0.4897 -0.2562
    9CHL1    C6  601   5.090   3.056  10.061 -0.2465 -0.5943 -0.1100
    9CHL1    H6  602   5.142   2.960  10.046  1.3026  0.2616 -0.3724
    9CHL1    C7  603   5.042   3.108   9.931 -0.0080  0.3436  0.2466
    9CHL1   H7A  604   5.129   3.103   9.863  0.2159  2.3039  0.3186
    9CHL1   H7B  605   4.965   3.050   9.875  1.3497 -1.2349 -0.0551
    9CHL1    C8  606   5.010   3.254   9.932 -0.5403 -0.1965  0.1965
    9CHL1    H8  607   5.109   3.302   9.946  0.1296 -0.7824 -1.9996
    9CHL1   C14  608   4.960   3.306   9.793  0.3629  0.0996 -0.4132
    9CHL1   H14  609   4.863   3.253   9.779  1.5072 -2.0973 -0.5057
    9CHL1   C15  610   5.042   3.283   9.672  0.4023 -0.3058 -0.5309
    9CHL1  H15A  611   5.151   3.287   9.696  0.1304  1.8411  0.4673
    9CHL1  H15B  612   5.015   3.186   9.625  0.8079 -0.1995 -1.0003
    9CHL1   C16  613   4.999   3.390   9.571  0.7594  0.2588  0.0290
    9CHL1  H16A  614   5.088   3.455   9.553  0.5459  0.4017 -0.5358
    9CHL1  H16B  615   4.966   3.347   9.475  0.9406 -0.1767  0.1618
    9CHL1   C17  616   4.880   3.464   9.634  0.5212  0.1528 -0.5677
    9CHL1   H17  617   4.790   3.401   9.622  2.3143 -2.9189  0.7877
    9CHL1   C13  618   4.916   3.452   9.786 -0.5261 -1.0630 -0.2205
    9CHL1   C18  619   5.042   3.541   9.820  0.5837  0.6977 -0.4390
    9CHL1  H18A  620   5.090   3.516   9.917 -1.8883  1.9983  1.2015
    9CHL1  H18B  621   5.121   3.532   9.742  1.3455  1.7981  0.1765
    9CHL1  H18C  622   5.021   3.650   9.823  1.0834  0.9160 -2.6783
    9CHL1   C12  623   4.804   3.469   9.898  0.4275  0.1085 -0.7811
    9CHL1  H12A  624   4.778   3.576   9.915  0.7794 -0.2708  3.1101
    9CHL1  H12B  625   4.714   3.424   9.853  0.5481  0.1160 -1.0334
    9CHL1   C11  626   4.847   3.422  10.040 -0.1324  0.2700  0.2303
    9CHL1  H11A  627   4.927   3.494  10.067 -1.4067  0.6557  3.2998
    9CHL1  H11B  628   4.762   3.436  10.109  0.3113 -0.8516  1.0272
    9CHL1    C9  629   4.911   3.285  10.045 -0.2763 -0.1263  0.1260
    9CHL1    H9  630   4.829   3.213  10.030 -0.1204 -1.0654  3.1015
    9CHL1   C10  631   4.980   3.250  10.182 -0.3749 -0.3883  0.1345
    9CHL1   C19  632   5.087   3.356  10.213  0.7496  0.3091 -0.4639
    9CHL1  H19A  633   5.162   3.349  10.131  0.3402 -3.3213 -0.7084
    9CHL1  H19B  634   5.053   3.461  10.211 -3.1165 -0.8046 -0.1069
    9CHL1  H19C  635   5.124   3.343  10.318  0.2639  0.9631 -0.2059
    9CHL1    C1  636   4.864   3.252  10.287  0.1864  0.1049  0.1455
    9CHL1   H1A  637   4.827   3.355  10.307 -1.7925 -0.5191 -0.0709
    9CHL1   H1B  638   4.774   3.212  10.235 -0.7423  0.4927  1.3924
    9CHL1    C2  639   4.898   3.176  10.418  0.0135  0.6350 -0.7408
    9CHL1   H2A  640   4.810   3.169  10.486 -0.5934 -0.5776 -1.5995
    9CHL1   H2B  641   4.989   3.214  10.468  1.3324  0.4359 -2.8602
    9CHL1   C20  642   4.868   3.611   9.589  0.8711  1.0547  0.8209
    9CHL1   H20  643   4.955   3.669   9.628  0.0703  1.9592  1.3072
    9CHL1   C21  644   4.729   3.660   9.633  0.5512  0.2058  0.1008
    9CHL1  H21A  645   4.720   3.671   9.743 -1.7999  1.8763 -0.1865
    9CHL1  H21B  646   4.651   3.584   9.612  0.2221  0.3264  0.8787
    9CHL1  H21C  647   4.701   3.759   9.592 -0.4359  0.1889  0.7106
    9CHL1   C22  648   4.877   3.630   9.439 -0.4316  0.0712 -0.8094
    9CHL1  H22A  649   4.882   3.741   9.432  1.5625  0.3289  2.7916
    9CHL1  H22B  650   4.974   3.584   9.409 -0.1611  1.5304 -2.3183
    9CHL1   C23  651   4.772   3.553   9.364 -0.8729 -0.2768  0.3983
    9CHL1  H23A  652   4.773   3.447   9.398  0.5122 -0.0133  1.2654
    9CHL1  H23B  653   4.668   3.591   9.375 -0.6619  0.0632  1.3290
    9CHL1   C24  654   4.794   3.546   9.208  0.4114 -0.0662  0.2957
    9CHL1  H24A  655   4.890   3.499   9.175 -0.3271  0.7937 -3.6088
    9CHL1  H24B  656   4.716   3.476   9.171  0.1094  1.5709 -2.4429
    9CHL1   C25  657   4.784   3.688   9.137 -0.2395  0.8966 -0.3589
    9CHL1   H25  658   4.859   3.755   9.185 -0.1636  0.4223  0.1965
    9CHL1   C26  659   4.819   3.665   8.990  0.4482 -0.2541 -0.9379
    9CHL1  H26A  660   4.841   3.758   8.932 -0.7010  1.4719  1.2269
    9CHL1  H26B  661   4.905   3.596   8.976  0.2003 -0.0968 -3.7862
    9CHL1  H26C  662   4.725   3.639   8.937 -0.8820  1.3989  0.4827
    9CHL1   C27  663   4.644   3.765   9.148  0.2920  0.4167  0.6548
    9CHL1  H27A  664   4.612   3.780   9.253 -0.8685  1.5353  0.1691
    9CHL1  H27B  665   4.649   3.861   9.091  0.4897 -1.0832 -2.0175
    9CHL1  H27C  666   4.572   3.704   9.091  0.4766  0.1254  0.7330
   10CHL1    C3  667   5.056   0.612  10.182 -0.1866  0.4030 -0.4072
   10CHL1    H3  668   5.000   0.699  10.141 -0.4492 -0.2155 -1.4225
   10CHL1    O3  669   5.035   0.619  10.321 -0.3677  0.2347 -0.2453
   10CHL1   H3'  670   5.076   0.541  10.360  0.0916  0.7206  0.2715
   10CHL1    C4  671   5.015   0.476  10.115  0.0379 -1.3007 -0.3004
   10CHL1   H4A  672   5.081   0.397  10.158  1.5625 -0.2569 -0.6479
   10CHL1   H4B  673   4.912   0.449  10.147  0.4067  0.0730  2.3677
   10CHL1    C5  674   5.036   0.496   9.965  0.9342 -0.6362 -0.0785
   10CHL1    C6  675   4.930   0.491   9.880 -0.1902  0.4237 -0.2181
   10CHL1    H6  676   4.826   0.483   9.913  0.5667 -1.9052  1.9512
   10CHL1    C7  677   4.946   0.497   9.734  0.3239 -0.1493 -0.3587
   10CHL1   H7A  678   4.893   0.424   9.669  0.6546 -0.8460  0.1405
   10CHL1   H7B  679   4.910   0.593   9.692 -2.3803 -1.3262 -0.9666
   10CHL1    C8  680   5.096   0.480   9.680 -0.5635  0.1624 -0.8255
   10CHL1    H8  681   5.122   0.372   9.671 -0.4697  0.2392 -1.5286
   10CHL1   C14  682   5.108   0.538   9.544  0.0263 -0.2595 -0.4877
   10CHL1   H14  683   5.076   0.644   9.553 -0.5408 -0.5990  4.1497
   10CHL1   C15  684   5.014   0.477   9.431 -0.6095 -0.0303 -0.3478
   10CHL1  H15A  685   5.011   0.366   9.442  0.3592  0.0209  0.5701
   10CHL1  H15B  686   4.913   0.517   9.454 -0.5699 -0.3324  0.3555
   10CHL1   C16  687   5.066   0.530   9.302 -0.2147  0.2994  0.0944
   10CHL1  H16A  688   5.080   0.446   9.230  1.9214  1.2639 -0.7026
   10CHL1  H16B  689   4.990   0.594   9.254  0.2124  0.3970 -0.4559
   10CHL1   C17  690   5.206   0.594   9.340  0.0114 -0.4567 -0.6237
   10CHL1   H17  691   5.183   0.702   9.344  0.2406 -0.4540  1.6572
   10CHL1   C13  692   5.247   0.533   9.476 -0.7632 -0.1451  0.1368
   10CHL1   C18  693   5.298   0.383   9.462 -0.2931 -0.2190 -0.0458
   10CHL1  H18A  694   5.293   0.335   9.562  2.0442  1.8496  1.1789
   10CHL1  H18B  695   5.230   0.329   9.392 -0.8467  0.1588  0.1995
   10CHL1  H18C  696   5.403   0.381   9.424  0.3460 -1.7282  1.6630
   10CHL1   C12  697   5.333   0.619   9.569  0.3005  0.1489  0.0567
   10CHL1  H12A  698   5.438   0.629   9.537 -0.5509  2.0605 -2.4663
   10CHL1  H12B  699   5.297   0.724   9.565 -0.3407 -0.0966 -2.6708
   10CHL1   C11  700   5.337   0.576   9.715  0.3288 -0.4004  0.2168
   10CHL1  H11A  701   5.398   0.483   9.720 -0.0798 -0.6118  3.2479
   10CHL1  H11B  702   5.392   0.652   9.773  0.6976  0.5257 -1.2850
   10CHL1    C9  703   5.192   0.555   9.772  0.2564  0.3860 -0.1200
   10CHL1    H9  704   5.140   0.653   9.768  1.3118  0.9647  0.3095
   10CHL1   C10  705   5.191   0.520   9.926  0.6635 -0.0702  0.7462
   10CHL1   C19  706   5.266   0.390   9.938  0.6675  0.5534  0.4650
   10CHL1  H19A  707   5.208   0.308   9.892  1.9156 -0.2847  0.3132
   10CHL1  H19B  708   5.368   0.390   9.893  0.8857  0.0636  0.9470
   10CHL1  H19C  709   5.276   0.355  10.043  2.0050 -0.5729 -0.0067
   10CHL1    C1  710   5.248   0.635  10.013 -0.2745 -0.1189 -0.0619
   10CHL1   H1A  711   5.356   0.645   9.987 -0.5798  0.8780 -0.9990
   10CHL1   H1B  712   5.196   0.726   9.977  1.7439  1.3778  0.6363
   10CHL1    C2  713   5.206   0.634  10.161 -0.2330  0.7987 -0.4462
   10CHL1   H2A  714   5.250   0.724  10.207 -0.0778 -0.2729  1.6043
   10CHL1   H2B  715   5.250   0.541  10.203  0.4840  1.1138 -0.4775
   10CHL1   C20  716   5.306   0.571   9.227 -0.1208 -0.1693  0.2413
   10CHL1   H20  717   5.333   0.464   9.215  0.2013  0.0605 -1.2059
   10CHL1   C21  718   5.438   0.649   9.249 -0.0929 -0.1047  0.3965
   10CHL1  H21A  719   5.495   0.605   9.334  1.2368  0.8271  0.0081
   10CHL1  H21B  720   5.433   0.759   9.253 -0.0331 -0.0237 -1.1084
   10CHL1  H21C  721   5.509   0.631   9.166 -1.4531 -0.8983 -0.6612
   10CHL1   C22  722   5.263   0.620   9.088  0.2047 -0.1738  0.1289
   10CHL1  H22A  723   5.352   0.612   9.022  0.2286  0.5044  0.0709
   10CHL1  H22B  724   5.186   0.561   9.033  0.1072  0.2702 -0.2154
   10CHL1   C23  725   5.199   0.764   9.079 -0.2802 -0.4632 -0.5901
   10CHL1  H23A  726   5.113   0.771   9.148  0.2308  1.4011 -0.0608
   10CHL1  H23B  727   5.281   0.827   9.121 -0.9099 -0.5370  0.7869
   10CHL1   C24  728   5.151   0.835   8.948  0.2755 -0.7257 -0.0319
   10CHL1  H24A  729   5.146   0.946   8.958  0.2907 -0.8245  1.3671
   10CHL1  H24B  730   5.243   0.819   8.888  0.6200  1.5670 -0.1939
   10CHL1   C25  731   5.027   0.769   8.881 -0.1635 -0.1611  0.1688
   10CHL1   H25  732   5.056   0.661   8.881 -0.6124 -0.3091  1.7192
   10CHL1   C26  733   4.889   0.790   8.948 -0.0934  0.0629 -0.0046
   10CHL1  H26A  734   4.894   0.781   9.059 -0.9562  0.5644  0.0846
   10CHL1  H26B  735   4.851   0.893   8.929 -0.9574 -0.4316 -1.0191
   10CHL1  H26C  736   4.811   0.720   8.911 -0.1095 -0.0262  0.1959
   10CHL1   C27  737   5.024   0.809   8.733  0.4665  0.1280  0.1817
   10CHL1  H27A  738   5.124   0.791   8.686  0.6845 -0.9586  1.0188
   10CHL1  H27B  739   4.948   0.759   8.670  1.1264  0.5118 -0.9520
   10CHL1  H27C  740   5.015   0.919   8.728  1.6524  0.2058 -0.6679
   11CHL1    C3  741   6.047   2.647  10.335  0.5926 -0.1313 -0.1753
   11CHL1    H3  742   6.119   2.562  10.329 -0.2607 -1.2489  3.1002
   11CHL1    O3  743   6.000   2.669  10.469  0.3796 -0.1696  0.8343
   11CHL1   H3'  744   6.074   2.713  10.512 -0.1241  2.8285 -1.1049
   11CHL1    C4  745   6.116   2.775  10.289  0.1061 -0.0202  0.0051
   11CHL1   H4A  746   6.043   2.857  10.306  0.5012  0.1824  0.7973
   11CHL1   H4B  747   6.201   2.807  10.354 -0.6582  2.1301  0.0228
   11CHL1    C5  748   6.163   2.769  10.146  0.1593 -0.2109 -0.3528
   11CHL1    C6  749   6.287   2.794  10.107  0.8418  0.1862 -0.2170
   11CHL1    H6  750   6.364   2.829  10.178 -1.4596  1.1358  1.9324
   11CHL1    C7  751   6.339   2.780   9.964  0.5147 -0.3392 -0.1305
   11CHL1   H7A  752   6.414   2.856   9.934  0.4657 -0.1943  0.1150
   11CHL1   H7B  753   6.386   2.680   9.949  0.7053 -0.1268 -0.9969
   11CHL1    C8  754   6.223   2.798   9.862  0.5363 -0.5267 -0.4937
   11CHL1    H8  755   6.176   2.899   9.861  2.4917  0.5116 -3.7493
   11CHL1   C14  756   6.268   2.767   9.719 -0.0837  0.6262 -0.6049
   11CHL1   H14  757   6.293   2.660   9.734 -1.1575  0.7219  2.7137
   11CHL1   C15  758   6.387   2.842   9.661 -0.0355 -0.3571  1.0078
   11CHL1  H15A  759   6.364   2.949   9.677  2.0376  0.1111  1.2250
   11CHL1  H15B  760   6.485   2.811   9.703  2.4122  2.8623 -1.6949
   11CHL1   C16  761   6.370   2.806   9.512  0.6061  0.3268  0.4122
   11CHL1  H16A  762   6.365   2.893   9.443  2.0589  0.1554  0.0650
   11CHL1  H16B  763   6.452   2.737   9.483  2.1290  2.6645 -1.2269
   11CHL1   C17  764   6.232   2.738   9.486 -0.0862  0.1877  0.3112
   11CHL1   H17  765   6.256   2.630   9.491 -1.5833 -0.1456  0.7593
   11CHL1   C13  766   6.153   2.777   9.616 -0.3077  0.6342  0.0228
   11CHL1   C18  767   6.101   2.919   9.602  0.3266  0.3352 -0.0587
   11CHL1  H18A  768   6.027   2.915   9.520  1.0472  1.3289 -0.7843
   11CHL1  H18B  769   6.047   2.948   9.695 -0.3919 -0.6245 -0.1714
   11CHL1  H18C  770   6.183   2.988   9.571 -0.3484  0.8139 -0.8098
   11CHL1   C12  771   6.041   2.686   9.658  0.1984  0.0847  0.5456
   11CHL1  H12A  772   5.952   2.707   9.595  0.8666  1.5596  0.0475
   11CHL1  H12B  773   6.070   2.580   9.637  0.9384  0.3452  0.2111
   11CHL1   C11  774   5.985   2.695   9.795  0.1754 -0.4238 -0.0377
   11CHL1  H11A  775   5.905   2.772   9.792 -0.5659 -1.2075 -1.8900
   11CHL1  H11B  776   5.943   2.595   9.817  0.6555 -0.8393 -0.9712
   11CHL1    C9  777   6.095   2.706   9.904 -0.5691  0.2249  0.2525
   11CHL1    H9  778   6.151   2.610   9.903 -2.5951 -1.0947  2.1768
   11CHL1   C10  779   6.048   2.730  10.050  0.3029  0.8162  0.2886
   11CHL1   C19  780   5.947   2.844  10.040 -0.0663  0.2513  0.0639
   11CHL1  H19A  781   5.947   2.906   9.947 -2.5615  2.3727  1.3630
   11CHL1  H19B  782   5.851   2.792  10.020  0.4628 -1.2823  1.3270
   11CHL1  H19C  783   5.932   2.905  10.131 -3.0435  2.4727 -1.7388
   11CHL1    C1  784   5.985   2.593  10.104  0.1069 -0.2516 -0.0632
   11CHL1   H1A  785   5.909   2.550  10.035 -0.8933  0.1929  0.7237
   11CHL1   H1B  786   6.061   2.514  10.118  1.7014  1.5081  1.9845
   11CHL1    C2  787   5.921   2.611  10.245 -0.4505  0.2588  0.1307
   11CHL1   H2A  788   5.874   2.520  10.287  1.4745 -1.4423 -1.2242
   11CHL1   H2B  789   5.855   2.700  10.258  0.4198  0.7457  1.4583
   11CHL1   C20  790   6.170   2.757   9.346 -0.0192 -0.9119 -0.2012
   11CHL1   H20  791   6.140   2.864   9.345  1.4424 -0.4809 -0.2057
   11CHL1   C21  792   6.048   2.668   9.317  0.6419 -0.4659  0.2904
   11CHL1  H21A  793   6.065   2.563   9.346 -0.3863 -0.8964 -0.6141
   11CHL1  H21B  794   6.024   2.677   9.209  1.9880  0.4471  0.0331
   11CHL1  H21C  795   5.963   2.715   9.372  0.5462 -1.4430  1.0021
   11CHL1   C22  796   6.280   2.730   9.233 -0.2959 -0.3718  0.0493
   11CHL1  H22A  797   6.383   2.762   9.259  0.2441 -1.3673 -0.7715
   11CHL1  H22B  798   6.291   2.621   9.214 -0.4584 -0.3772 -0.0121
   11CHL1   C23  799   6.238   2.799   9.099 -0.2707  0.4520  0.6062
   11CHL1  H23A  800   6.135   2.772   9.069 -1.1339  1.2534  2.6749
   11CHL1  H23B  801   6.245   2.909   9.113  4.6047  0.4868 -0.3434
   11CHL1   C24  802   6.335   2.755   8.990 -0.1546  0.4307 -0.3108
   11CHL1  H24A  803   6.438   2.782   9.021  0.2757 -0.6387 -0.7543
   11CHL1  H24B  804   6.326   2.644   8.980  0.5587  0.1150  1.8887
   11CHL1   C25  805   6.296   2.810   8.854 -0.1400  0.2791  0.4594
   11CHL1   H25  806   6.187   2.799   8.837 -0.0604  0.0706  0.0774
   11CHL1   C26  807   6.327   2.957   8.845 -0.0179  0.2123  0.0617
   11CHL1  H26A  808   6.435   2.973   8.825  0.1358 -1.2199 -0.3434
   11CHL1  H26B  809   6.282   3.002   8.754  0.7949  1.4216  0.2308
   11CHL1  H26C  810   6.291   3.012   8.935 -2.7585 -0.2945 -0.6110
   11CHL1   C27  811   6.360   2.733   8.739 -0.5068  0.7113 -0.5272
   11CHL1  H27A  812   6.471   2.736   8.736 -0.5004  0.8594 -0.1661
   11CHL1  H27B  813   6.346   2.623   8.736  0.9198  0.5330 -1.6420
   11CHL1  H27C  814   6.329   2.775   8.641  0.0479 -0.6445 -1.3204
   12CHL1    C3  815   1.447   0.821  10.568  0.4265 -0.3281  0.7251
   12CHL1    H3  816   1.337   0.837  10.580  0.3632 -0.7581  0.7314
   12CHL1    O3  817   1.509   0.825  10.695 -0.0326 -0.3952  0.6908
   12CHL1   H3'  818   1.561   0.746  10.706 -1.6254 -1.6365 -0.2471
   12CHL1    C4  819   1.455   0.678  10.507  0.2324  0.0194 -0.0607
   12CHL1   H4A  820   1.557   0.651  10.542  0.6578  0.4415 -0.9516
   12CHL1   H4B  821   1.389   0.615  10.571  0.9788  1.2190  1.9858
   12CHL1    C5  822   1.425   0.658  10.358  0.2611  0.2477 -0.1309
   12CHL1    C6  823   1.345   0.551  10.320 -0.2239 -0.2620 -0.1073
   12CHL1    H6  824   1.304   0.484  10.397  0.0929 -0.5025 -0.1430
   12CHL1    C7  825   1.315   0.520  10.177  0.3509 -0.2145  0.9417
   12CHL1   H7A  826   1.340   0.416  10.149 -0.7052  0.1560 -1.6297
   12CHL1   H7B  827   1.205   0.531  10.175  0.4304  0.6301 -0.1978
   12CHL1    C8  828   1.402   0.617  10.078  0.6596  0.4058  0.1724
   12CHL1    H8  829   1.500   0.566  10.081  0.0602 -0.7575  0.6059
   12CHL1   C14  830   1.354   0.611   9.937  0.8723  0.1583  0.3942
   12CHL1   H14  831   1.249   0.647   9.941  1.6437  2.5393  0.8043
   12CHL1   C15  832   1.341   0.470   9.870 -0.0185 -0.7818 -0.1560
   12CHL1  H15A  833   1.428   0.404   9.893 -1.4605 -2.4484  0.7546
   12CHL1  H15B  834   1.254   0.409   9.902 -1.0970  0.5688 -0.4369
   12CHL1   C16  835   1.333   0.507   9.728  0.2878 -0.7577  0.5086
   12CHL1  H16A  836   1.416   0.449   9.681  1.1567  1.6025 -1.0823
   12CHL1  H16B  837   1.236   0.483   9.679 -0.6265  0.5155  1.6351
   12CHL1   C17  838   1.355   0.660   9.708 -0.2663  0.4513  0.0981
   12CHL1   H17  839   1.255   0.709   9.712  0.6670  2.4652 -0.1294
   12CHL1   C13  840   1.433   0.699   9.839  1.0225  0.5783 -0.4420
   12CHL1   C18  841   1.580   0.643   9.822  0.1296 -0.4680 -0.1580
   12CHL1  H18A  842   1.584   0.549   9.762  2.5702 -0.8074  0.4449
   12CHL1  H18B  843   1.622   0.722   9.757 -0.6119  1.0420  1.1273
   12CHL1  H18C  844   1.644   0.638   9.912  0.2598  0.2632 -0.2056
   12CHL1   C12  845   1.425   0.838   9.888  0.7720 -0.4519  0.6103
   12CHL1  H12A  846   1.491   0.914   9.840 -1.1462  1.2821  0.5718
   12CHL1  H12B  847   1.321   0.873   9.871  0.7376 -1.0958 -0.6466
   12CHL1   C11  848   1.478   0.857  10.030 -0.1322 -0.7405 -0.1382
   12CHL1  H11A  849   1.587   0.841  10.018 -0.1164  1.2047 -5.1717
   12CHL1  H11B  850   1.454   0.960  10.062  0.5335 -0.6146 -0.0311
   12CHL1    C9  851   1.417   0.757  10.136 -0.2787 -0.2584 -0.4211
   12CHL1    H9  852   1.315   0.795  10.159 -0.1435 -0.8925  1.3642
   12CHL1   C10  853   1.485   0.766  10.269  0.6909 -0.0261  0.1519
   12CHL1   C19  854   1.637   0.752  10.249 -0.6135 -0.1198  0.6071
   12CHL1  H19A  855   1.681   0.741  10.351  0.7411  1.2843  0.2167
   12CHL1  H19B  856   1.676   0.678  10.176 -0.6564  0.6803 -0.2454
   12CHL1  H19C  857   1.671   0.853  10.219 -0.6721 -0.0205  0.8666
   12CHL1    C1  858   1.443   0.903  10.331  0.1974  0.0673  0.4971
   12CHL1   H1A  859   1.498   0.974  10.265  0.3434  0.6397  1.2117
   12CHL1   H1B  860   1.333   0.916  10.337 -0.1374 -2.4783  0.9978
   12CHL1    C2  861   1.502   0.928  10.474 -1.1504 -0.1422 -0.1249
   12CHL1   H2A  862   1.490   1.031  10.511  1.3896  0.7927 -1.6664
   12CHL1   H2B  863   1.612   0.929  10.463 -0.9153  1.4217  2.0075
   12CHL1   C20  864   1.419   0.684   9.566  0.5897 -0.2234  0.0225
   12CHL1   H20  865   1.527   0.657   9.563  0.6456 -0.1590  1.1710
   12CHL1   C21  866   1.424   0.839   9.543  0.4956  0.2215 -0.3711
   12CHL1  H21A  867   1.321   0.873   9.522  0.6186  0.8708  0.0452
   12CHL1  H21B  868   1.497   0.864   9.463  0.5221 -1.3934 -0.8831
   12CHL1  H21C  869   1.447   0.881   9.643  0.1385 -0.6311  0.0782
   12CHL1   C22  870   1.333   0.615   9.454  0.2409  0.2446 -0.5725
   12CHL1  H22A  871   1.329   0.505   9.467 -4.6703  0.4327  1.8871
   12CHL1  H22B  872   1.226   0.641   9.470 -0.6480 -2.5761 -1.3238
   12CHL1   C23  873   1.370   0.657   9.311 -0.8624  0.3207  0.0984
   12CHL1  H23A  874   1.382   0.768   9.307  1.2180  0.1037 -1.2357
   12CHL1  H23B  875   1.473   0.628   9.283 -0.6701  0.4824  0.6246
   12CHL1   C24  876   1.267   0.611   9.209 -0.6412 -0.4811  0.1686
   12CHL1  H24A  877   1.271   0.500   9.210  1.4129 -0.4539  0.1507
   12CHL1  H24B  878   1.169   0.650   9.243 -0.7428  0.4654 -1.1368
   12CHL1   C25  879   1.281   0.656   9.061  0.1765  0.8239  0.0448
   12CHL1   H25  880   1.381   0.623   9.028 -0.2673  0.4548 -0.9828
   12CHL1   C26  881   1.182   0.584   8.961 -0.4413 -0.3056 -0.3175
   12CHL1  H26A  882   1.213   0.610   8.858  1.0012  0.1228  0.2093
   12CHL1  H26B  883   1.188   0.473   8.971 -0.4076 -0.1298  2.3664
   12CHL1  H26C  884   1.076   0.608   8.983 -0.1206  0.9732 -0.0954
   12CHL1   C27  885   1.276   0.803   9.038 -0.5581 -0.6455  0.0860
   12CHL1  H27A  886   1.171   0.840   9.045 -0.4091  0.2959 -2.0013
   12CHL1  H27B  887   1.339   0.853   9.114  1.1226 -0.7931 -1.1699
   12CHL1  H27C  888   1.309   0.839   8.938 -3.1181  1.3706 -0.1433
   13CHL1    C3  889   2.544   3.007  10.006 -0.2961  0.2959  0.4577
   13CHL1    H3  890   2.599   2.912   9.987  0.1519 -0.1264  3.4432
   13CHL1    O3  891   2.548   3.027  10.141 -0.4886  0.8242 -0.0249
   13CHL1   H3'  892   2.493   3.104  10.156  1.5753  2.2805  0.5483
   13CHL1    C4  893   2.596   3.131   9.933 -0.0796  0.3171 -0.7041
   13CHL1   H4A  894   2.538   3.220   9.965 -0.8790 -0.7899  1.0758
   13CHL1   H4B  895   2.703   3.146   9.960  0.6742 -0.8962 -2.8130
   13CHL1    C5  896   2.576   3.117   9.785  0.1117  1.2474 -0.4086
   13CHL1    C6  897   2.684   3.117   9.706 -0.3536  0.1094 -0.2472
   13CHL1    H6  898   2.779   3.129   9.759 -0.0154  3.8797 -1.4245
   13CHL1    C7  899   2.686   3.086   9.558  1.0459  0.4702 -0.1235
   13CHL1   H7A  900   2.732   3.173   9.508 -2.0939  2.0370 -0.4904
   13CHL1   H7B  901   2.741   2.992   9.532  0.9497  0.4323 -0.1933
   13CHL1    C8  902   2.536   3.082   9.498  0.2216  0.2285  0.1778
   13CHL1    H8  903   2.500   3.187   9.505  1.3954  0.7428 -0.9597
   13CHL1   C14  904   2.535   3.022   9.354  0.0020  0.3288 -0.3647
   13CHL1   H14  905   2.575   2.919   9.371 -0.4246 -0.1110 -1.8237
   13CHL1   C15  906   2.633   3.090   9.254  0.0711  0.1036  0.5530
   13CHL1  H15A  907   2.646   3.200   9.245  2.6400 -0.2721 -1.4470
   13CHL1  H15B  908   2.730   3.038   9.272  0.4464 -0.1137 -1.8422
   13CHL1   C16  909   2.568   3.049   9.115  0.1017 -0.8789  0.0135
   13CHL1  H16A  910   2.523   3.142   9.074 -1.2639 -2.2095 -1.5954
   13CHL1  H16B  911   2.650   3.022   9.046  0.3954  2.0232 -0.9351
   13CHL1   C17  912   2.449   2.954   9.146  0.2869  1.1061  0.3648
   13CHL1   H17  913   2.478   2.848   9.132  2.5268  2.0704 -4.7999
   13CHL1   C13  914   2.407   3.004   9.285 -0.4443 -0.2348  0.0506
   13CHL1   C18  915   2.334   3.142   9.283  0.3644 -0.1971 -0.2091
   13CHL1  H18A  916   2.333   3.192   9.382  1.9570  3.5873 -1.8991
   13CHL1  H18B  917   2.401   3.213   9.230  0.8368 -1.6860 -1.6945
   13CHL1  H18C  918   2.230   3.136   9.245  0.4585 -0.2899 -0.4528
   13CHL1   C12  919   2.324   2.916   9.381 -0.0359  0.0119  0.0442
   13CHL1  H12A  920   2.221   2.919   9.340 -0.1057 -0.9681  0.1149
   13CHL1  H12B  921   2.361   2.811   9.381 -0.3231 -0.1241 -2.0456
   13CHL1   C11  922   2.308   2.978   9.529 -0.4687  0.5721 -0.3002
   13CHL1  H11A  923   2.245   3.070   9.526  0.7031  1.4695  1.2141
   13CHL1  H11B  924   2.253   2.913   9.600  1.1942 -0.0962  0.4315
   13CHL1    C9  925   2.444   3.003   9.590 -0.4660 -0.2540  0.4262
   13CHL1    H9  926   2.485   2.901   9.607 -1.1206 -0.5145  0.4845
   13CHL1   C10  927   2.437   3.074   9.733  0.2517 -0.2944 -0.8511
   13CHL1   C19  928   2.353   3.203   9.733  1.1324  0.4987  0.2732
   13CHL1  H19A  929   2.248   3.192   9.696  0.5765  2.8382  0.9994
   13CHL1  H19B  930   2.331   3.252   9.830 -0.8485  2.3655 -1.0004
   13CHL1  H19C  931   2.406   3.290   9.688  0.3708  0.9848  0.2914
   13CHL1    C1  932   2.374   2.967   9.826  0.1351 -0.2418  0.0747
   13CHL1   H1A  933   2.267   2.943   9.805  0.5625 -2.7750  0.4572
   13CHL1   H1B  934   2.411   2.867   9.796 -3.1146 -1.5531 -0.0484
   13CHL1    C2  935   2.392   2.989   9.976  0.3384 -0.8695  0.0064
   13CHL1   H2A  936   2.348   2.912  10.043 -1.9881 -1.4067 -1.9744
   13CHL1   H2B  937   2.335   3.082   9.999  0.5689 -0.2696 -1.6998
   13CHL1   C20  938   2.335   2.966   9.038 -0.6282 -0.4992  0.3546
   13CHL1   H20  939   2.275   3.056   9.063  0.1064 -0.2502  1.3033
   13CHL1   C21  940   2.244   2.855   9.048 -0.4365 -0.3476 -0.2244
   13CHL1  H21A  941   2.303   2.765   9.018  0.7921  0.6956 -1.0349
   13CHL1  H21B  942   2.154   2.871   8.985 -0.7669  1.7022  0.6950
   13CHL1  H21C  943   2.202   2.836   9.149 -2.3337 -0.2580 -0.9545
   13CHL1   C22  944   2.399   2.978   8.893 -0.2299 -0.3796  0.1688
   13CHL1  H22A  945   2.416   3.086   8.875 -1.2096 -0.1649  0.4209
   13CHL1  H22B  946   2.501   2.936   8.885 -0.7475 -1.7473  0.2605
   13CHL1   C23  947   2.312   2.936   8.770  0.6927 -0.0590 -0.6028
   13CHL1  H23A  948   2.275   2.833   8.788 -2.0043  1.4020  4.1617
   13CHL1  H23B  949   2.221   2.998   8.784  1.0727  0.1060  1.6556
   13CHL1   C24  950   2.379   2.956   8.631  0.1531  0.0491 -0.7976
   13CHL1  H24A  951   2.403   3.064   8.621  0.4135  0.3451  2.0092
   13CHL1  H24B  952   2.484   2.920   8.638  0.7423  1.9656  2.6309
   13CHL1   C25  953   2.299   2.906   8.509  0.3806 -0.0980  0.2293
   13CHL1   H25  954   2.267   2.802   8.532 -0.2722  0.4465  1.9040
   13CHL1   C26  955   2.168   2.989   8.486  0.1569  0.7173  0.3877
   13CHL1  H26A  956   2.102   2.929   8.419  1.7002 -0.5625 -0.0639
   13CHL1  H26B  957   2.113   3.011   8.580 -3.1326 -0.5414 -1.0811
   13CHL1  H26C  958   2.176   3.088   8.435 -1.7979  0.8471  0.2621
   13CHL1   C27  959   2.381   2.908   8.377 -0.1282 -0.0644 -0.0255
   13CHL1  H27A  960   2.416   3.013   8.371 -2.0215  0.6966  1.4011
   13CHL1  H27B  961   2.472   2.847   8.396 -1.2293 -1.5031  0.8122
   13CHL1  H27C  962   2.318   2.874   8.293 -0.5405  0.0330  0.2437
   14CHL1    C3  963   1.409   5.528  10.252  0.7425  0.2391 -0.6139
   14CHL1    H3  964   1.461   5.433  10.223 -1.2236 -1.7535  1.8750
   14CHL1    O3  965   1.382   5.525  10.391 -0.2821  0.4012  0.1850
   14CHL1   H3'  966   1.334   5.442  10.403 -1.6191  1.1296  0.0740
   14CHL1    C4  967   1.482   5.666  10.215  0.4180  0.0337 -0.7485
   14CHL1   H4A  968   1.418   5.747  10.256  1.0826  0.7573 -1.1047
   14CHL1   H4B  969   1.575   5.663  10.275  0.8526 -0.5658 -1.4443
   14CHL1    C5  970   1.502   5.691  10.071 -0.1145 -0.5168 -0.1555
   14CHL1    C6  971   1.622   5.707  10.016  0.2190 -0.4972 -0.5188
   14CHL1    H6  972   1.715   5.706  10.074  0.1697  1.5106 -0.3349
   14CHL1    C7  973   1.638   5.737   9.870  0.3317 -0.2412  0.9938
   14CHL1   H7A  974   1.723   5.805   9.846  0.8433 -1.9845 -2.7462
   14CHL1   H7B  975   1.677   5.646   9.819 -0.8956  1.1228 -2.6575
   14CHL1    C8  976   1.505   5.769   9.799  0.4426  0.0291  0.4376
   14CHL1    H8  977   1.479   5.864   9.851  0.8658 -1.1769  2.9911
   14CHL1   C14  978   1.529   5.782   9.648  1.0083 -0.0597 -0.1451
   14CHL1   H14  979   1.555   5.682   9.608  0.8123  0.2523 -1.0748
   14CHL1   C15  980   1.640   5.875   9.600  0.1909  0.5167  1.3398
   14CHL1  H15A  981   1.630   5.967   9.661 -0.9974  1.4872 -0.2427
   14CHL1  H15B  982   1.739   5.825   9.598 -0.1397 -0.1224 -0.5358
   14CHL1   C16  983   1.592   5.915   9.456 -0.1832  0.1813 -0.0624
   14CHL1  H16A  984   1.583   6.026   9.450  2.6737  0.4735 -0.6400
   14CHL1  H16B  985   1.671   5.888   9.382 -1.0701  1.2728 -1.4550
   14CHL1   C17  986   1.459   5.844   9.424 -0.6529 -1.0386  0.1673
   14CHL1   H17  987   1.484   5.748   9.375  1.4986  0.1236 -1.1562
   14CHL1   C13  988   1.398   5.819   9.566 -0.0366  0.4305 -0.7833
   14CHL1   C18  989   1.346   5.957   9.626 -0.2800 -0.4722 -0.4729
   14CHL1  H18A  990   1.409   6.048   9.610  0.1067 -0.8975 -1.4295
   14CHL1  H18B  991   1.248   5.977   9.577 -0.2110 -1.3096 -0.9635
   14CHL1  H18C  992   1.341   5.947   9.737  1.7656 -0.1660 -0.3148
   14CHL1   C12  993   1.300   5.703   9.587 -0.3280  0.0360  0.8352
   14CHL1  H12A  994   1.200   5.732   9.546 -0.0437  0.6831  0.5771
   14CHL1  H12B  995   1.341   5.613   9.536  0.1811  1.1640 -0.8374
   14CHL1   C11  996   1.267   5.658   9.734  0.6315  0.5193  0.4648
   14CHL1  H11A  997   1.186   5.720   9.780 -1.0667 -1.8493  0.8420
   14CHL1  H11B  998   1.221   5.557   9.732  0.2467  0.6869 -1.2826
   14CHL1    C9  999   1.394   5.668   9.830  0.2064  0.5261  0.4832
   14CHL1    H9 1000   1.444   5.570   9.814  0.6142  1.1741 -3.0048
   14CHL1   C10 1001   1.374   5.681   9.982  0.5082  0.7926 -0.3224
   14CHL1   C19 1002   1.299   5.813  10.027 -0.4714 -0.4984  0.1786
   14CHL1  H19A 1003   1.350   5.907   9.998  0.6331 -1.5574 -1.4546
   14CHL1  H19B 1004   1.201   5.816   9.975  1.0238  1.1542 -2.7626
   14CHL1  H19C 1005   1.278   5.807  10.136  1.1209  0.9030  0.5998
   14CHL1    C1 1006   1.302   5.553  10.022 -0.1454 -0.3284 -0.2316
   14CHL1   H1A 1007   1.204   5.558   9.969  1.7780  2.0737 -3.9821
   14CHL1   H1B 1008   1.360   5.468   9.982 -0.3550  0.5757 -2.6291
   14CHL1    C2 1009   1.277   5.528  10.172  0.1905 -0.1573  0.1478
   14CHL1   H2A 1010   1.229   5.428  10.175  2.3457 -1.3651 -2.1611
   14CHL1   H2B 1011   1.213   5.607  10.216 -1.3502  0.1395 -2.4036
   14CHL1   C20 1012   1.375   5.925   9.321  0.9518 -0.5247 -0.0910
   14CHL1   H20 1013   1.347   6.025   9.363  1.5614  0.2132 -1.3889
   14CHL1   C21 1014   1.244   5.851   9.291  0.9108  0.2700 -0.8301
   14CHL1  H21A 1015   1.199   5.880   9.193 -0.1428 -0.6701 -0.6568
   14CHL1  H21B 1016   1.167   5.879   9.366  0.2498 -1.5179 -0.7879
   14CHL1  H21C 1017   1.264   5.742   9.281 -2.3446 -0.3987 -1.2580
   14CHL1   C22 1018   1.453   5.947   9.183 -0.2797  0.3971 -0.7913
   14CHL1  H22A 1019   1.399   6.025   9.124  0.7053  2.7238  1.1852
   14CHL1  H22B 1020   1.552   5.995   9.200 -0.2192 -0.1983  0.6543
   14CHL1   C23 1021   1.471   5.826   9.091  0.2591 -0.3276  0.1154
   14CHL1  H23A 1022   1.503   5.737   9.149 -0.3810 -0.5268  0.1692
   14CHL1  H23B 1023   1.374   5.796   9.045  0.1635  1.2657 -0.8024
   14CHL1   C24 1024   1.570   5.842   8.972 -0.4841 -0.7080 -0.0017
   14CHL1  H24A 1025   1.527   5.909   8.893  3.5035 -0.9279 -2.6385
   14CHL1  H24B 1026   1.658   5.898   9.010 -2.1346  0.0603  3.0086
   14CHL1   C25 1027   1.612   5.710   8.911 -0.7484  0.0400 -0.0615
   14CHL1   H25 1028   1.512   5.662   8.901 -1.0890  0.1782  2.1500
   14CHL1   C26 1029   1.677   5.733   8.775  0.7539 -0.2448 -0.3284
   14CHL1  H26A 1030   1.632   5.821   8.725 -0.1107 -0.0861  0.6775
   14CHL1  H26B 1031   1.782   5.765   8.788  0.2400  0.7549  1.6980
   14CHL1  H26C 1032   1.668   5.643   8.709  2.0375  1.8866 -3.6492
   14CHL1   C27 1033   1.689   5.609   9.005 -0.1542  0.0321  0.2973
   14CHL1  H27A 1034   1.785   5.647   9.046 -0.9494  0.8705  1.4577
   14CHL1  H27B 1035   1.623   5.592   9.092  0.7356  1.5635  1.3235
   14CHL1  H27C 1036   1.696   5.507   8.962 -3.3732  0.4700 -1.6437
   15CHL1    C3 1037   1.313   4.385  10.198 -0.0446  0.3785 -0.0089
   15CHL1    H3 1038   1.386   4.312  10.156  1.4599  2.3367 -1.0185
   15CHL1    O3 1039   1.304   4.360  10.337 -0.3973 -0.6549 -0.5847
   15CHL1   H3' 1040   1.228   4.302  10.341 -0.1464 -1.0757 -1.5148
   15CHL1    C4 1041   1.360   4.530  10.173 -1.1757 -1.0248  0.4592
   15CHL1   H4A 1042   1.294   4.600  10.229  0.8322  0.9493  0.4904
   15CHL1   H4B 1043   1.454   4.549  10.228 -1.6937 -1.0342  1.3680
   15CHL1    C5 1044   1.368   4.561  10.023  0.0252 -0.4706 -0.6193
   15CHL1    C6 1045   1.479   4.603   9.961 -0.7403  0.2746 -0.7790
   15CHL1    H6 1046   1.565   4.623  10.026 -0.2851 -0.7636 -1.0419
   15CHL1    C7 1047   1.501   4.629   9.820  0.5436 -0.1232 -0.7202
   15CHL1   H7A 1048   1.560   4.721   9.800  0.1765  0.6149  1.3569
   15CHL1   H7B 1049   1.550   4.540   9.775 -1.9177 -1.1712 -1.4940
   15CHL1    C8 1050   1.365   4.641   9.745 -0.3605  0.2622 -0.5616
   15CHL1    H8 1051   1.338   4.745   9.771 -0.9197  0.0656 -0.3434
   15CHL1   C14 1052   1.381   4.627   9.590  0.4596  0.0584 -0.8545
   15CHL1   H14 1053   1.411   4.521   9.585  0.3864 -0.0084 -0.0987
   15CHL1   C15 1054   1.497   4.705   9.521 -0.3249 -0.3055 -0.5304
   15CHL1  H15A 1055   1.490   4.811   9.553 -2.4082  0.2871 -2.7172
   15CHL1  H15B 1056   1.597   4.672   9.558 -1.1016 -1.1907  0.8486
   15CHL1   C16 1057   1.457   4.684   9.374  0.6511  0.4655  0.4048
   15CHL1  H16A 1058   1.454   4.783   9.322 -0.3920 -0.1805 -0.8156
   15CHL1  H16B 1059   1.530   4.624   9.315 -0.0334  0.8094 -0.8185
   15CHL1   C17 1060   1.318   4.621   9.359  0.3089 -0.3479 -0.0584
   15CHL1   H17 1061   1.327   4.511   9.347 -1.7115 -0.3072 -2.6426
   15CHL1   C13 1062   1.263   4.643   9.500 -0.2833  0.1331  0.1194
   15CHL1   C18 1063   1.203   4.785   9.512 -0.3596  0.0193 -0.3674
   15CHL1  H18A 1064   1.275   4.867   9.491 -2.8344  2.5756  0.4412
   15CHL1  H18B 1065   1.118   4.786   9.440 -1.0095 -1.5859  0.3283
   15CHL1  H18C 1066   1.161   4.803   9.613  1.5584  1.7509  0.1981
   15CHL1   C12 1067   1.158   4.532   9.545 -0.6606 -0.2719  0.4663
   15CHL1  H12A 1068   1.056   4.553   9.508 -0.6897  1.9667  1.6885
   15CHL1  H12B 1069   1.188   4.430   9.512 -0.0067 -0.0784  0.4463
   15CHL1   C11 1070   1.132   4.529   9.694  0.1306 -0.0064 -1.2994
   15CHL1  H11A 1071   1.074   4.617   9.729  1.7425 -0.0861  1.9809
   15CHL1  H11B 1072   1.070   4.441   9.718  2.8479 -1.7064 -0.0172
   15CHL1    C9 1073   1.263   4.531   9.790 -0.3077 -0.1115 -0.4392
   15CHL1    H9 1074   1.309   4.434   9.759 -1.5018  0.3394 -4.1565
   15CHL1   C10 1075   1.240   4.529   9.940 -0.0582 -0.0328 -0.7362
   15CHL1   C19 1076   1.144   4.637   9.989  0.0868 -0.3916  0.4117
   15CHL1  H19A 1077   1.134   4.632  10.099  0.9310 -0.6270  0.4852
   15CHL1  H19B 1078   1.181   4.735   9.952 -2.7758  1.1605  1.3605
   15CHL1  H19C 1079   1.050   4.607   9.938  0.9576  1.9240 -2.8739
   15CHL1    C1 1080   1.197   4.386   9.984 -0.0465  0.4128  0.6349
   15CHL1   H1A 1081   1.101   4.360   9.935  0.2723 -0.4831  0.4682
   15CHL1   H1B 1082   1.278   4.316   9.953  0.8596  1.7363 -0.0941
   15CHL1    C2 1083   1.183   4.357  10.130 -0.0896  0.4242 -0.1399
   15CHL1   H2A 1084   1.159   4.250  10.147 -0.4829  0.6157  0.6029
   15CHL1   H2B 1085   1.100   4.417  10.174 -0.6787  0.2217 -0.9440
   15CHL1   C20 1086   1.241   4.672   9.238  0.9996 -0.5050  0.0910
   15CHL1   H20 1087   1.227   4.782   9.242  1.2312 -0.5225  2.5436
   15CHL1   C21 1088   1.094   4.614   9.229  0.0796  0.2789 -0.4704
   15CHL1  H21A 1089   1.079   4.511   9.270 -1.0241  1.1021  1.2941
   15CHL1  H21B 1090   1.045   4.629   9.131  1.4515 -0.2046 -1.2523
   15CHL1  H21C 1091   1.027   4.671   9.297 -3.1409  0.0766 -3.2120
   15CHL1   C22 1092   1.320   4.634   9.106  0.5905  0.5758  0.8862
   15CHL1  H22A 1093   1.382   4.544   9.125 -2.2966 -1.3703  1.7638
   15CHL1  H22B 1094   1.241   4.610   9.032  1.5124  3.6335 -1.2749
   15CHL1   C23 1095   1.405   4.746   9.042  0.5159  0.6039 -0.0746
   15CHL1  H23A 1096   1.358   4.843   9.066 -1.4671 -1.0491  3.8312
   15CHL1  H23B 1097   1.504   4.747   9.094  0.3082 -3.3764  0.7516
   15CHL1   C24 1098   1.447   4.723   8.889  0.4901 -0.6219 -0.5038
   15CHL1  H24A 1099   1.354   4.726   8.828  0.5125 -0.5533 -0.5354
   15CHL1  H24B 1100   1.497   4.819   8.862 -1.8723  1.5862  2.2419
   15CHL1   C25 1101   1.530   4.608   8.854 -0.4774  0.2567 -0.1187
   15CHL1   H25 1102   1.481   4.519   8.899  1.2384 -0.8457 -0.3155
   15CHL1   C26 1103   1.548   4.589   8.704 -0.4407 -0.0396  0.2092
   15CHL1  H26A 1104   1.626   4.513   8.682  0.4355  1.0308 -0.5344
   15CHL1  H26B 1105   1.450   4.554   8.665 -0.9087  2.0045 -0.5723
   15CHL1  H26C 1106   1.574   4.685   8.653  2.3366 -1.7642 -1.9226
   15CHL1   C27 1107   1.669   4.612   8.904 -0.5110 -0.6935  0.4507
   15CHL1  H27A 1108   1.663   4.627   9.014 -3.1481 -0.2292  0.2951
   15CHL1  H27B 1109   1.727   4.519   8.884 -0.7898 -0.6055 -0.8585
   15CHL1  H27C 1110   1.707   4.701   8.850 -0.6973 -0.9036 -0.0255
   16CHL1    C3 1111   1.670   5.172  10.394 -0.1317  0.0934  0.3062
   16CHL1    H3 1112   1.566   5.166  10.357  0.4377  1.1254 -1.6142
   16CHL1    O3 1113   1.675   5.170  10.535 -0.1355  0.2918 -0.1147
   16CHL1   H3' 1114   1.768   5.181  10.558 -0.2153  0.8939 -0.0723
   16CHL1    C4 1115   1.753   5.061  10.340 -0.2916  0.0150  0.2355
   16CHL1   H4A 1116   1.855   5.075  10.380  0.4398 -2.8524 -0.3446
   16CHL1   H4B 1117   1.720   4.967  10.390  1.2097 -0.8261 -0.2832
   16CHL1    C5 1118   1.764   5.062  10.187 -0.0155 -1.1769 -0.4602
   16CHL1    C6 1119   1.715   4.956  10.121  0.0453  0.3142  0.0666
   16CHL1    H6 1120   1.663   4.873  10.171 -1.0207  1.3216  0.6743
   16CHL1    C7 1121   1.709   4.958   9.970 -0.0532  0.3010  0.1279
   16CHL1   H7A 1122   1.730   4.859   9.924 -0.8970  0.2666 -0.1928
   16CHL1   H7B 1123   1.607   4.983   9.935 -1.2109 -0.9067  2.4248
   16CHL1    C8 1124   1.809   5.057   9.908 -0.0817  0.3087  0.2494
   16CHL1    H8 1125   1.908   5.012   9.927 -0.9314 -1.1369  1.4985
   16CHL1   C14 1126   1.773   5.071   9.755 -0.1445 -0.3807  0.0290
   16CHL1   H14 1127   1.667   5.102   9.763 -0.1361  0.0567 -1.3311
   16CHL1   C15 1128   1.778   4.958   9.657 -0.6031 -0.7744 -0.5095
   16CHL1  H15A 1129   1.870   4.898   9.675 -0.6392 -0.6928 -0.0345
   16CHL1  H15B 1130   1.691   4.891   9.672 -1.6051  0.2760 -1.3728
   16CHL1   C16 1131   1.780   5.015   9.516  0.8800 -0.0836  0.5523
   16CHL1  H16A 1132   1.863   4.961   9.465  0.4777  0.3281 -0.5911
   16CHL1  H16B 1133   1.679   4.995   9.474  0.2584 -1.0942  2.4469
   16CHL1   C17 1134   1.785   5.169   9.530 -0.1010  0.3580 -0.1479
   16CHL1   H17 1135   1.678   5.197   9.540  0.2002  2.1286 -1.2741
   16CHL1   C13 1136   1.834   5.185   9.674  0.5288  0.4788  0.6550
   16CHL1   C18 1137   1.985   5.149   9.668 -0.3290 -0.8957 -0.0367
   16CHL1  H18A 1138   2.008   5.054   9.614 -1.0195 -1.8116  1.2384
   16CHL1  H18B 1139   2.043   5.226   9.612  0.1290 -0.8972  0.4295
   16CHL1  H18C 1140   2.031   5.154   9.769  1.0724  0.1051 -0.6957
   16CHL1   C12 1141   1.808   5.322   9.749  0.3460 -0.4239  0.8577
   16CHL1  H12A 1142   1.863   5.412   9.714 -0.8074 -0.4213 -1.0469
   16CHL1  H12B 1143   1.703   5.357   9.742  0.5477  0.2730  1.2554
   16CHL1   C11 1144   1.853   5.316   9.898 -0.0816  0.5773  0.0571
   16CHL1  H11A 1145   1.962   5.298   9.906 -0.3637 -2.0892 -1.0636
   16CHL1  H11B 1146   1.817   5.412   9.940 -1.7718  0.6594 -1.4540
   16CHL1    C9 1147   1.789   5.193   9.970 -0.4188 -0.4898  0.0245
   16CHL1    H9 1148   1.680   5.215   9.959 -0.0454  1.6273  0.1128
   16CHL1   C10 1149   1.817   5.190  10.126 -0.2299  0.1879 -0.1178
   16CHL1   C19 1150   1.972   5.203  10.145 -0.0355  0.2145 -0.1536
   16CHL1  H19A 1151   2.004   5.197  10.252 -0.6203  1.1284  0.0864
   16CHL1  H19B 1152   2.030   5.138  10.076 -0.2747 -1.8870  1.5156
   16CHL1  H19C 1153   2.006   5.301  10.106  2.0215 -0.7677 -0.9974
   16CHL1    C1 1154   1.737   5.307  10.186 -0.0715 -0.6144  0.5910
   16CHL1   H1A 1155   1.798   5.398  10.165 -1.0447  0.4522  2.2543
   16CHL1   H1B 1156   1.640   5.320  10.134  1.8463  0.3826 -3.1464
   16CHL1    C2 1157   1.731   5.308  10.341  0.3646  0.5332  0.4354
   16CHL1   H2A 1158   1.661   5.386  10.379 -0.5358 -0.0520  0.0110
   16CHL1   H2B 1159   1.831   5.331  10.383  1.1021 -0.6081 -0.6493
   16CHL1   C20 1160   1.833   5.244   9.406 -0.7976 -0.2622 -0.2738
   16CHL1   H20 1161   1.942   5.225   9.419 -0.9567  0.1616  2.0299
   16CHL1   C21 1162   1.801   5.393   9.406 -0.0321  0.1921  0.3279
   16CHL1  H21A 1163   1.846   5.456   9.485  0.0716  3.5503 -2.1488
   16CHL1  H21B 1164   1.692   5.404   9.423  0.5569  2.2197  3.4431
   16CHL1  H21C 1165   1.837   5.435   9.309  1.3754  0.7790  1.0733
   16CHL1   C22 1166   1.791   5.167   9.279 -0.2427 -0.6243 -0.1070
   16CHL1  H22A 1167   1.845   5.070   9.284  1.2367  0.2214  1.2341
   16CHL1  H22B 1168   1.681   5.148   9.284 -0.1192 -1.0039  1.8090
   16CHL1   C23 1169   1.819   5.229   9.143 -0.9651  0.4314  0.2720
   16CHL1  H23A 1170   1.754   5.319   9.138 -1.1791  0.2088 -1.2921
   16CHL1  H23B 1171   1.928   5.246   9.136 -1.1094  0.9753 -0.8013
   16CHL1   C24 1172   1.770   5.124   9.035  0.0556 -0.4672 -0.1622
   16CHL1  H24A 1173   1.833   5.033   9.039  0.5515 -0.3818 -3.3815
   16CHL1  H24B 1174   1.664   5.100   9.060  0.2033 -1.7554 -0.6972
   16CHL1   C25 1175   1.786   5.187   8.895 -0.5258  0.4921 -0.8350
   16CHL1   H25 1176   1.752   5.292   8.894 -0.9332  0.4096  1.0692
   16CHL1   C26 1177   1.936   5.185   8.846  0.4764 -0.0637 -1.1320
   16CHL1  H26A 1178   2.010   5.224   8.919  1.1097 -0.2881 -1.6434
   16CHL1  H26B 1179   1.966   5.083   8.812  0.3287 -0.2921 -0.5802
   16CHL1  H26C 1180   1.940   5.248   8.754 -2.0823  0.1915 -1.1438
   16CHL1   C27 1181   1.702   5.101   8.803  0.2389 -0.3745  0.8751
   16CHL1  H27A 1182   1.763   5.019   8.758  0.4806  0.1469  0.2217
   16CHL1  H27B 1183   1.612   5.056   8.849 -0.3752 -0.5462 -0.4350
   16CHL1  H27C 1184   1.673   5.172   8.722  1.7741  1.7856  2.1010
   17CHL1    C3 1185   5.496   2.247  10.379 -0.2566 -0.5535 -0.7912
   17CHL1    H3 1186   5.606   2.249  10.371 -0.3398 -1.1915 -2.2627
   17CHL1    O3 1187   5.457   2.234  10.520 -0.0653  0.4063 -0.9171
   17CHL1   H3' 1188   5.523   2.276  10.576 -0.1556 -1.6229  0.8360
   17CHL1    C4 1189   5.443   2.377  10.321 -0.4141 -0.2499 -0.0937
   17CHL1   H4A 1190   5.333   2.362  10.331 -0.5682  0.9377  0.1437
   17CHL1   H4B 1191   5.466   2.460  10.390  0.1593 -0.4445 -0.0492
   17CHL1    C5 1192   5.484   2.392  10.175 -0.1042  0.5681 -0.5987
   17CHL1    C6 1193   5.571   2.493  10.128 -0.9556 -0.0519  0.6420
   17CHL1    H6 1194   5.615   2.568  10.195  1.0823  1.1562 -1.8748
   17CHL1    C7 1195   5.610   2.515   9.985  0.2886  0.2219  0.5482
   17CHL1   H7A 1196   5.600   2.623   9.959 -1.2484 -0.7421 -3.7592
   17CHL1   H7B 1197   5.719   2.493   9.977  0.8035  2.1591  1.6929
   17CHL1    C8 1198   5.523   2.427   9.891  0.0781  0.1676  0.2309
   17CHL1    H8 1199   5.424   2.479   9.885 -0.0135 -0.0349 -0.0324
   17CHL1   C14 1200   5.573   2.427   9.746 -0.3838  0.1084  0.0755
   17CHL1   H14 1201   5.672   2.377   9.753 -0.3435 -0.3246 -2.5140
   17CHL1   C15 1202   5.593   2.551   9.663 -0.1780  0.3187  0.3820
   17CHL1  H15A 1203   5.508   2.620   9.682 -1.3606 -0.9123 -0.2893
   17CHL1  H15B 1204   5.681   2.603   9.706 -1.0245  3.3385 -1.2212
   17CHL1   C16 1205   5.602   2.509   9.516 -0.7034  0.7054 -0.2343
   17CHL1  H16A 1206   5.525   2.570   9.467 -1.4426 -0.2923 -0.3447
   17CHL1  H16B 1207   5.700   2.532   9.468 -1.5945  0.0158 -2.4905
   17CHL1   C17 1208   5.557   2.359   9.516  0.3675 -0.2368 -0.0508
   17CHL1   H17 1209   5.658   2.313   9.526  0.0984 -0.5764  1.2977
   17CHL1   C13 1210   5.491   2.332   9.652 -0.2307 -0.3604  0.0284
   17CHL1   C18 1211   5.344   2.383   9.645  0.0599 -0.0662 -0.0554
   17CHL1  H18A 1212   5.308   2.390   9.750 -1.2983 -0.5653 -0.4690
   17CHL1  H18B 1213   5.332   2.484   9.599  0.1545  0.0143  0.0955
   17CHL1  H18C 1214   5.277   2.313   9.591 -1.5138  0.8658  0.6191
   17CHL1   C12 1215   5.505   2.189   9.709 -0.3025 -0.1239 -0.4429
   17CHL1  H12A 1216   5.459   2.112   9.644  0.1995 -1.4800  0.7560
   17CHL1  H12B 1217   5.613   2.164   9.710 -0.8066 -3.1691 -3.5069
   17CHL1   C11 1218   5.444   2.182   9.846  0.2199  0.4373 -0.3336
   17CHL1  H11A 1219   5.334   2.188   9.836  0.0756  0.6569  1.1780
   17CHL1  H11B 1220   5.457   2.085   9.898 -1.8123  1.9637  3.3961
   17CHL1    C9 1221   5.510   2.286   9.940  0.1685  0.4030 -0.0479
   17CHL1    H9 1222   5.614   2.248   9.951 -0.4857 -1.5741 -0.2113
   17CHL1   C10 1223   5.436   2.273  10.080  0.1219  0.1473 -0.7999
   17CHL1   C19 1224   5.279   2.276  10.071 -0.7653 -0.8397  0.0037
   17CHL1  H19A 1225   5.244   2.184  10.021  0.7087 -2.3609  1.6440
   17CHL1  H19B 1226   5.225   2.275  10.168  1.5463 -1.2708  1.3788
   17CHL1  H19C 1227   5.245   2.367  10.017 -0.9297 -1.8653 -1.6828
   17CHL1    C1 1228   5.488   2.141  10.150  0.3126 -0.1073  0.7135
   17CHL1   H1A 1229   5.459   2.043  10.107  2.1129 -0.4074  0.1059
   17CHL1   H1B 1230   5.599   2.145  10.154  0.2691  0.5269  1.7074
   17CHL1    C2 1231   5.450   2.124  10.298 -0.2118  0.9511  1.1501
   17CHL1   H2A 1232   5.492   2.036  10.351 -0.2985  0.1742 -0.0534
   17CHL1   H2B 1233   5.339   2.125  10.299 -0.2615  0.8313 -0.8802
   17CHL1   C20 1234   5.491   2.295   9.392 -0.2836 -1.2001 -0.1105
   17CHL1   H20 1235   5.425   2.212   9.425 -1.7618 -1.2742 -2.8677
   17CHL1   C21 1236   5.597   2.233   9.295  0.5391 -0.1632  0.0125
   17CHL1  H21A 1237   5.645   2.150   9.352  0.0626  1.6852  3.3311
   17CHL1  H21B 1238   5.682   2.295   9.261  1.2078 -1.6343 -1.1512
   17CHL1  H21C 1239   5.564   2.194   9.197  2.1526 -0.2378 -0.5314
   17CHL1   C22 1240   5.396   2.391   9.306  0.1411  0.8930 -0.2925
   17CHL1  H22A 1241   5.320   2.446   9.366 -1.3353 -0.2158 -1.0872
   17CHL1  H22B 1242   5.463   2.466   9.259 -0.8571  2.6442  0.9549
   17CHL1   C23 1243   5.310   2.312   9.208  0.5424 -0.5978  0.2835
   17CHL1  H23A 1244   5.360   2.275   9.116 -1.5943 -2.3138 -0.2841
   17CHL1  H23B 1245   5.264   2.218   9.245  0.0745 -0.8558 -0.8979
   17CHL1   C24 1246   5.196   2.402   9.156  0.2047 -0.2559  0.5525
   17CHL1  H24A 1247   5.122   2.426   9.235  0.0160 -0.0328  0.3097
   17CHL1  H24B 1248   5.244   2.498   9.126 -0.2756 -0.0259  0.5152
   17CHL1   C25 1249   5.117   2.347   9.031  0.3207 -0.4433  0.3706
   17CHL1   H25 1250   5.033   2.420   9.027  0.6192  0.2917  3.8113
   17CHL1   C26 1251   5.207   2.346   8.905 -0.6286  0.4065  0.2511
   17CHL1  H26A 1252   5.301   2.291   8.926  0.8198  2.7509  0.2556
   17CHL1  H26B 1253   5.168   2.287   8.819  0.5817 -0.9014  0.5554
   17CHL1  H26C 1254   5.231   2.448   8.870  1.3088 -0.6589 -1.7563
   17CHL1   C27 1255   5.061   2.214   9.066 -0.0042  0.0964 -0.4686
   17CHL1  H27A 1256   5.143   2.141   9.077 -0.0015  0.4052  2.2045
   17CHL1  H27B 1257   5.011   2.214   9.165  1.5985 -0.1638  0.3704
   17CHL1  H27C 1258   4.993   2.185   8.983 -0.7279  0.1831  0.0856
   18CHL1    C3 1259   3.965   0.542  10.181 -0.2236  0.3777  0.2784
   18CHL1    H3 1260   4.061   0.594  10.199  0.8339 -2.0288  2.2195
   18CHL1    O3 1261   3.899   0.513  10.304 -1.2333  0.5565 -0.4075
   18CHL1   H3' 1262   3.894   0.592  10.358  0.2072  1.0907 -1.0243
   18CHL1    C4 1263   3.880   0.633  10.097  0.2671  0.2420  0.0564
   18CHL1   H4A 1264   3.775   0.599  10.080 -0.2305  0.6230  2.1019
   18CHL1   H4B 1265   3.867   0.725  10.158 -0.2926 -1.3407  2.4675
   18CHL1    C5 1266   3.950   0.655   9.965 -0.1019 -0.1817  0.2568
   18CHL1    C6 1267   3.986   0.777   9.934 -0.3102 -0.0854  0.1654
   18CHL1    H6 1268   3.972   0.863  10.001 -1.6016 -0.1153 -0.0491
   18CHL1    C7 1269   4.032   0.810   9.793  0.5918  0.4384 -0.0301
   18CHL1   H7A 1270   3.994   0.911   9.767  0.4493  0.9579  2.0684
   18CHL1   H7B 1271   4.141   0.830   9.797  0.5551  0.4807  2.4567
   18CHL1    C8 1272   4.011   0.692   9.687  0.0243  0.1452  0.1027
   18CHL1    H8 1273   3.905   0.691   9.654 -0.2850  0.6724  1.0366
   18CHL1   C14 1274   4.082   0.719   9.554 -0.1817 -0.9505 -0.5062
   18CHL1   H14 1275   4.188   0.710   9.587  0.4453  1.2645 -1.7888
   18CHL1   C15 1276   4.054   0.850   9.485  0.2992  0.2562 -0.6721
   18CHL1  H15A 1277   3.947   0.877   9.482  0.6936  1.9182 -0.6278
   18CHL1  H15B 1278   4.110   0.937   9.527 -0.6003  1.0920 -1.1716
   18CHL1   C16 1279   4.112   0.827   9.339  0.4179  0.0610 -0.9330
   18CHL1  H16A 1280   4.028   0.847   9.269  0.9421  1.9839 -1.0834
   18CHL1  H16B 1281   4.193   0.902   9.329 -0.7787  1.8374  1.3884
   18CHL1   C17 1282   4.141   0.674   9.334  0.0495  0.1447 -0.2062
   18CHL1   H17 1283   4.245   0.644   9.358 -1.0672 -1.6939  2.9805
   18CHL1   C13 1284   4.060   0.615   9.450  0.0387  0.5826  0.6585
   18CHL1   C18 1285   3.914   0.595   9.403 -0.1967  0.4042 -0.2404
   18CHL1  H18A 1286   3.875   0.693   9.368 -1.8718 -1.1732 -3.1338
   18CHL1  H18B 1287   3.892   0.525   9.320  1.3785 -1.9953  1.2697
   18CHL1  H18C 1288   3.847   0.561   9.486  0.7185  1.2872  0.9045
   18CHL1   C12 1289   4.129   0.488   9.519 -0.0305 -0.4325  0.4919
   18CHL1  H12A 1290   4.140   0.399   9.453 -0.1342 -1.0555  1.2922
   18CHL1  H12B 1291   4.232   0.515   9.552  1.0056 -0.1458 -2.5978
   18CHL1   C11 1292   4.043   0.453   9.643 -0.7004 -0.5188  0.7152
   18CHL1  H11A 1293   3.939   0.428   9.611 -1.4818  2.8019  0.2754
   18CHL1  H11B 1294   4.089   0.362   9.686  1.0218  0.0048  0.0405
   18CHL1    C9 1295   4.050   0.561   9.752  0.3463 -1.2619 -0.0639
   18CHL1    H9 1296   4.157   0.583   9.769  0.9215 -2.9763 -1.2723
   18CHL1   C10 1297   3.969   0.530   9.884 -0.5243 -0.1993  0.2741
   18CHL1   C19 1298   3.826   0.473   9.843 -0.2257  0.5904 -0.3357
   18CHL1  H19A 1299   3.759   0.463   9.931 -0.6481  0.0872 -0.7126
   18CHL1  H19B 1300   3.777   0.538   9.768 -0.4467  0.8663  0.0453
   18CHL1  H19C 1301   3.826   0.375   9.790 -0.3691  1.0229 -1.1493
   18CHL1    C1 1302   4.053   0.427   9.968  0.0545 -0.0231  0.5341
   18CHL1   H1A 1303   4.065   0.333   9.910 -1.5075  0.6743 -1.0323
   18CHL1   H1B 1304   4.148   0.484   9.981  1.1056 -1.0208 -2.0622
   18CHL1    C2 1305   3.986   0.407  10.107 -0.0234 -0.3587 -0.0624
   18CHL1   H2A 1306   4.074   0.359  10.156 -0.3185 -0.6893  0.1457
   18CHL1   H2B 1307   3.895   0.343  10.109  0.4102 -0.9784  1.0203
   18CHL1   C20 1308   4.121   0.620   9.188 -0.5326 -0.0488  0.0105
   18CHL1   H20 1309   4.021   0.634   9.143  0.9546  1.8075 -2.9948
   18CHL1   C21 1310   4.149   0.467   9.187 -0.0080 -0.0464 -0.1185
   18CHL1  H21A 1311   4.090   0.420   9.269  1.6162 -1.8160  0.0945
   18CHL1  H21B 1312   4.252   0.432   9.205 -0.8294 -2.6903 -0.1477
   18CHL1  H21C 1313   4.109   0.422   9.094 -4.5784  2.0732  0.4880
   18CHL1   C22 1314   4.209   0.690   9.078 -0.6678  0.4730 -0.8424
   18CHL1  H22A 1315   4.178   0.796   9.086 -1.2716  0.1688  1.9447
   18CHL1  H22B 1316   4.313   0.667   9.111 -1.0659 -1.0523 -0.5899
   18CHL1   C23 1317   4.200   0.636   8.934 -0.0452  0.2820  0.2975
   18CHL1  H23A 1318   4.262   0.544   8.934  0.1583  0.4081  1.1967
   18CHL1  H23B 1319   4.095   0.619   8.902  0.1772  0.7125 -0.7091
   18CHL1   C24 1320   4.243   0.729   8.812  0.1598  0.6994  0.0332
   18CHL1  H24A 1321   4.197   0.829   8.830 -2.3630 -0.3195 -0.2741
   18CHL1  H24B 1322   4.354   0.735   8.814  0.2171  0.0086 -0.7240
   18CHL1   C25 1323   4.211   0.674   8.680 -0.4647 -0.3803 -0.1942
   18CHL1   H25 1324   4.253   0.571   8.678  0.1262 -0.1748  1.2009
   18CHL1   C26 1325   4.057   0.669   8.643  0.4540  0.0146 -0.0340
   18CHL1  H26A 1326   4.010   0.579   8.688 -0.8826 -0.1165 -1.5969
   18CHL1  H26B 1327   3.996   0.761   8.660 -0.3021 -0.6688  1.1593
   18CHL1  H26C 1328   4.057   0.640   8.536  0.3526  1.3108 -0.4128
   18CHL1   C27 1329   4.285   0.757   8.575  0.4634 -0.1229  0.1275
   18CHL1  H27A 1330   4.218   0.829   8.522 -0.8803 -0.2462  1.5773
   18CHL1  H27B 1331   4.379   0.794   8.619  0.5767 -0.6287  0.3083
   18CHL1  H27C 1332   4.326   0.687   8.500  0.8046 -0.3261  0.5036
   19CHL1    C3 1333   1.163   3.924  10.108 -0.0104 -0.3616  0.5217
   19CHL1    H3 1334   1.231   4.012  10.112 -2.2674  1.4867  0.6832
   19CHL1    O3 1335   1.116   3.896  10.234  0.6240  0.2155 -0.3511
   19CHL1   H3' 1336   1.091   3.804  10.221  0.1364  0.2283  0.4279
   19CHL1    C4 1337   1.038   3.955  10.019  0.0140  0.4056 -0.0570
   19CHL1   H4A 1338   0.954   3.883  10.023 -0.4867  0.9370 -0.7805
   19CHL1   H4B 1339   1.000   4.052  10.058 -0.5198  0.7830 -1.4686
   19CHL1    C5 1340   1.065   3.972   9.872 -0.2303 -0.1411  0.8405
   19CHL1    C6 1341   1.023   4.079   9.810 -0.5593  0.9296 -0.2822
   19CHL1    H6 1342   0.964   4.156   9.861  1.5120  1.0284  2.1557
   19CHL1    C7 1343   1.057   4.109   9.668 -0.0671  0.0084 -0.3094
   19CHL1   H7A 1344   0.968   4.155   9.620 -0.2233  2.8112  2.2810
   19CHL1   H7B 1345   1.134   4.190   9.668 -0.3287  0.3217  1.8615
   19CHL1    C8 1346   1.106   3.988   9.588  0.0482 -0.1963 -0.7658
   19CHL1    H8 1347   1.012   3.932   9.566 -1.0122  0.6030  1.4038
   19CHL1   C14 1348   1.156   4.017   9.448  0.4978  0.3380  0.2178
   19CHL1   H14 1349   1.250   4.075   9.454  0.7246  0.3803 -2.5293
   19CHL1   C15 1350   1.063   4.095   9.353 -0.0337 -0.6643  0.2328
   19CHL1  H15A 1351   0.965   4.043   9.361  1.0168 -2.8010 -0.0750
   19CHL1  H15B 1352   1.059   4.204   9.373 -1.0672 -0.6448 -0.0386
   19CHL1   C16 1353   1.113   4.069   9.215 -0.2571  0.2025 -1.0150
   19CHL1  H16A 1354   1.036   4.030   9.145 -1.3077  0.5739 -0.0989
   19CHL1  H16B 1355   1.160   4.162   9.178  1.5301  0.9963  2.7634
   19CHL1   C17 1356   1.229   3.958   9.222  0.0327  0.1659 -0.1346
   19CHL1   H17 1357   1.325   4.012   9.239  1.4181 -0.7119 -4.1437
   19CHL1   C13 1358   1.199   3.891   9.363  0.0249 -1.0524  0.0540
   19CHL1   C18 1359   1.077   3.788   9.349 -0.4852  0.3621  0.2134
   19CHL1  H18A 1360   1.033   3.757   9.446  1.2267  1.5690  1.4176
   19CHL1  H18B 1361   0.999   3.836   9.285 -1.0119 -1.6083 -0.7169
   19CHL1  H18C 1362   1.113   3.695   9.300  1.1371  1.5970 -1.0612
   19CHL1   C12 1363   1.326   3.831   9.433  0.4387 -0.5318 -0.0586
   19CHL1  H12A 1364   1.364   3.736   9.390  1.0590 -1.2732  1.9649
   19CHL1  H12B 1365   1.407   3.907   9.430 -0.6052  0.6428  0.6300
   19CHL1   C11 1366   1.280   3.797   9.578  0.7816 -0.2433 -0.2176
   19CHL1  H11A 1367   1.202   3.718   9.576 -0.3062  0.7432  1.0935
   19CHL1  H11B 1368   1.369   3.764   9.635  1.6800  0.6587 -1.0503
   19CHL1    C9 1369   1.212   3.908   9.661 -0.0639 -0.3181 -0.1474
   19CHL1    H9 1370   1.280   3.994   9.676 -2.6095  1.5472  1.4856
   19CHL1   C10 1371   1.161   3.862   9.805  0.3701 -0.2430  0.3742
   19CHL1   C19 1372   1.071   3.744   9.789 -0.1468 -0.0150 -0.0540
   19CHL1  H19A 1373   1.045   3.706   9.890 -1.0872  3.2022  1.0373
   19CHL1  H19B 1374   0.981   3.752   9.723  0.2900 -1.0714 -0.8108
   19CHL1  H19C 1375   1.122   3.661   9.735  1.0447  1.1406 -0.7723
   19CHL1    C1 1376   1.278   3.844   9.903  0.3703 -0.3367 -0.9691
   19CHL1   H1A 1377   1.346   3.764   9.867 -1.1970 -3.9536  3.2222
   19CHL1   H1B 1378   1.324   3.944   9.916 -1.4897  0.4188  0.2726
   19CHL1    C2 1379   1.234   3.801  10.048  0.7928  0.3146 -0.3778
   19CHL1   H2A 1380   1.322   3.785  10.115  0.0806 -0.5899  0.3668
   19CHL1   H2B 1381   1.172   3.709  10.046 -0.8686  1.3436  0.8889
   19CHL1   C20 1382   1.245   3.881   9.091  0.1751  0.4704  0.6736
   19CHL1   H20 1383   1.163   3.806   9.090  1.2375 -0.7236 -0.6977
   19CHL1   C21 1384   1.377   3.802   9.089  0.7695 -0.1555 -0.2120
   19CHL1  H21A 1385   1.468   3.862   9.109  0.6248  0.5339 -1.5481
   19CHL1  H21B 1386   1.395   3.751   8.992  0.7275 -0.5703 -0.0043
   19CHL1  H21C 1387   1.376   3.727   9.171  0.2743  2.9462  2.8639
   19CHL1   C22 1388   1.222   3.959   8.957  0.2527  0.0336 -0.3557
   19CHL1  H22A 1389   1.135   4.029   8.955 -0.6909 -1.0858  0.2438
   19CHL1  H22B 1390   1.317   4.016   8.944  0.7521  0.0018  2.4702
   19CHL1   C23 1391   1.207   3.870   8.835 -0.5795 -0.3142 -0.7642
   19CHL1  H23A 1392   1.302   3.815   8.823 -0.2223 -0.0576  0.6517
   19CHL1  H23B 1393   1.127   3.796   8.856 -0.7489  0.5594  2.0788
   19CHL1   C24 1394   1.182   3.943   8.698 -0.4465 -0.1689  0.3040
   19CHL1  H24A 1395   1.086   4.000   8.701  0.2378  1.1593 -1.4915
   19CHL1  H24B 1396   1.267   4.015   8.694 -0.1703 -0.3948  1.6353
   19CHL1   C25 1397   1.173   3.854   8.573  0.2854 -0.7940 -0.2666
   19CHL1   H25 1398   1.107   3.768   8.594 -1.9496  0.5131 -1.4976
   19CHL1   C26 1399   1.097   3.933   8.463  0.1574  0.9388 -0.4779
   19CHL1  H26A 1400   1.096   3.862   8.377  1.3760  0.8032 -0.3987
   19CHL1  H26B 1401   0.992   3.949   8.494  0.7468 -0.3990  2.5415
   19CHL1  H26C 1402   1.152   4.025   8.432  0.0685  1.3713  0.5960
   19CHL1   C27 1403   1.306   3.798   8.519  0.1801  0.5470 -0.0917
   19CHL1  H27A 1404   1.379   3.881   8.507 -0.2480  0.9447  0.0299
   19CHL1  H27B 1405   1.349   3.725   8.592  0.1045  1.6662  1.1180
   19CHL1  H27C 1406   1.285   3.748   8.422 -2.5118  1.1056  0.1302
   20CHL1    C3 1407   3.302   3.488  10.405  0.7492 -0.2110  0.0455
   20CHL1    H3 1408   3.372   3.407  10.375 -0.0713 -0.7214 -0.5348
   20CHL1    O3 1409   3.256   3.474  10.529 -0.0059 -0.0292 -0.1981
   20CHL1   H3' 1410   3.182   3.533  10.543  2.5112  3.2629  0.3159
   20CHL1    C4 1411   3.383   3.617  10.388 -0.2332  0.3347 -0.8193
   20CHL1   H4A 1412   3.321   3.703  10.422 -1.0770 -1.1566  1.6998
   20CHL1   H4B 1413   3.457   3.604  10.470  0.2731  2.0244 -0.9735
   20CHL1    C5 1414   3.442   3.634  10.248  0.2634  0.0829  0.1724
   20CHL1    C6 1415   3.570   3.653  10.225 -0.5244  0.0898  0.6012
   20CHL1    H6 1416   3.644   3.662  10.306 -0.0813  1.1800  0.0835
   20CHL1    C7 1417   3.614   3.677  10.084 -0.6108  0.6922 -0.0334
   20CHL1   H7A 1418   3.687   3.761  10.087  1.0257 -0.6673 -0.0828
   20CHL1   H7B 1419   3.689   3.600  10.056  1.1078  1.7491  1.4156
   20CHL1    C8 1420   3.507   3.705   9.976 -0.2682 -1.0311 -0.2855
   20CHL1    H8 1421   3.468   3.807   9.996 -0.3400 -1.2853  0.9803
   20CHL1   C14 1422   3.565   3.697   9.842  0.0799  0.4313  0.5092
   20CHL1   H14 1423   3.598   3.592   9.838 -1.6031 -0.0819 -1.4712
   20CHL1   C15 1424   3.688   3.778   9.809  0.3311 -0.0081  0.5429
   20CHL1  H15A 1425   3.686   3.883   9.847  0.8354  0.1911  0.0219
   20CHL1  H15B 1426   3.783   3.738   9.850  1.7488  0.5906 -1.9639
   20CHL1   C16 1427   3.691   3.770   9.665  0.2933 -0.2625 -0.1846
   20CHL1  H16A 1428   3.719   3.865   9.615 -2.3079  1.6454  1.7016
   20CHL1  H16B 1429   3.782   3.716   9.629 -0.9055 -1.2810 -1.7796
   20CHL1   C17 1430   3.566   3.706   9.605 -0.9274  0.1335  0.1866
   20CHL1   H17 1431   3.591   3.601   9.580 -1.7784  0.3827 -1.9866
   20CHL1   C13 1432   3.473   3.719   9.725  0.2607 -0.6713 -0.1706
   20CHL1   C18 1433   3.422   3.869   9.727 -0.2193 -0.5823  0.7959
   20CHL1  H18A 1434   3.327   3.882   9.670  1.0788  2.9460 -0.8754
   20CHL1  H18B 1435   3.400   3.906   9.829  1.2173 -1.9195  1.6269
   20CHL1  H18C 1436   3.494   3.944   9.686 -1.0019 -0.4476 -0.4000
   20CHL1   C12 1437   3.357   3.609   9.736 -0.6562  0.0204 -0.8057
   20CHL1  H12A 1438   3.286   3.621   9.652  0.8125  0.0311 -2.0924
   20CHL1  H12B 1439   3.419   3.516   9.739  0.2272  0.6042 -0.4115
   20CHL1   C11 1440   3.289   3.614   9.877 -0.6803 -0.6081 -0.5227
   20CHL1  H11A 1441   3.247   3.717   9.884 -4.0928 -1.7935 -1.5389
   20CHL1  H11B 1442   3.211   3.535   9.882  0.9236 -2.2183  0.3578
   20CHL1    C9 1443   3.390   3.606   9.997  0.2926 -0.0729 -0.6697
   20CHL1    H9 1444   3.435   3.504   9.993 -0.3826 -0.4750  1.0376
   20CHL1   C10 1445   3.331   3.619  10.140  0.2143  0.5334  0.9323
   20CHL1   C19 1446   3.246   3.748  10.156 -0.0075  1.6849 -0.6334
   20CHL1  H19A 1447   3.302   3.839  10.127  1.9324  1.1827  1.2624
   20CHL1  H19B 1448   3.161   3.737  10.086 -0.3170 -0.8456  0.0132
   20CHL1  H19C 1449   3.211   3.766  10.260  0.4767  0.2233 -0.1950
   20CHL1    C1 1450   3.227   3.504  10.169  0.3679  0.2612 -0.6662
   20CHL1   H1A 1451   3.140   3.513  10.101  0.2665  0.4713 -0.5089
   20CHL1   H1B 1452   3.270   3.404  10.145 -2.0052 -1.0926  0.3148
   20CHL1    C2 1453   3.178   3.504  10.310  0.2144  0.1558 -0.3836
   20CHL1   H2A 1454   3.105   3.422  10.327  2.5367 -1.5474  2.2486
   20CHL1   H2B 1455   3.127   3.599  10.336 -0.5819 -0.5248  0.6163
   20CHL1   C20 1456   3.523   3.770   9.465  0.3707 -0.1643 -0.4582
   20CHL1   H20 1457   3.512   3.881   9.475  3.6558  0.1519  0.9186
   20CHL1   C21 1458   3.393   3.711   9.416  0.4711  0.7452 -0.9796
   20CHL1  H21A 1459   3.392   3.600   9.421  1.0014  0.7600 -0.4913
   20CHL1  H21B 1460   3.372   3.754   9.316 -1.3160  2.3325 -0.0065
   20CHL1  H21C 1461   3.309   3.754   9.476 -0.5561 -1.5691 -0.6441
   20CHL1   C22 1462   3.640   3.748   9.362 -0.4493 -0.3071 -0.0538
   20CHL1  H22A 1463   3.739   3.777   9.402 -0.5827  1.2623 -0.7811
   20CHL1  H22B 1464   3.624   3.642   9.331 -1.1762 -0.0827 -0.4896
   20CHL1   C23 1465   3.630   3.828   9.231 -0.3778  0.4913 -0.4429
   20CHL1  H23A 1466   3.529   3.829   9.184 -1.1016 -0.5400  1.0139
   20CHL1  H23B 1467   3.647   3.933   9.263  0.4162 -0.3272  2.0446
   20CHL1   C24 1468   3.725   3.775   9.122 -0.2393 -0.1942 -0.2299
   20CHL1  H24A 1469   3.824   3.735   9.155 -0.4201 -0.1145  0.4027
   20CHL1  H24B 1470   3.676   3.682   9.085  1.0083 -0.8666 -0.2660
   20CHL1   C25 1471   3.745   3.869   8.998 -0.1115  0.1954 -0.4630
   20CHL1   H25 1472   3.646   3.877   8.948 -0.7552  0.7260  0.8496
   20CHL1   C26 1473   3.800   4.004   9.037  0.1039  0.2998 -0.0836
   20CHL1  H26A 1474   3.724   4.055   9.100  0.4500 -0.2446  0.7916
   20CHL1  H26B 1475   3.896   3.992   9.091  0.8688  0.6758 -1.3086
   20CHL1  H26C 1476   3.809   4.066   8.944 -0.5184 -0.3564 -0.5910
   20CHL1   C27 1477   3.841   3.798   8.902 -0.3368 -0.4832  0.5390
   20CHL1  H27A 1478   3.806   3.695   8.877  1.5423 -0.5974 -2.1583
   20CHL1  H27B 1479   3.876   3.848   8.809  0.2958  1.6233  1.8341
   20CHL1  H27C 1480   3.930   3.781   8.966  1.2371  1.5813 -0.9642
   21CHL1    C3 1481   2.898   0.278  10.233  0.5790  0.9852  0.3911
   21CHL1    H3 1482   2.987   0.215  10.209 -0.5665 -0.3879 -0.4540
   21CHL1    O3 1483   2.887   0.276  10.374 -0.0232  0.2940 -0.1951
   21CHL1   H3' 1484   2.809   0.330  10.389  0.0171  0.0666  0.9219
   21CHL1    C4 1485   2.916   0.421  10.183 -0.5359  0.4760 -0.0322
   21CHL1   H4A 1486   2.843   0.487  10.235 -0.3694  0.6323  0.0076
   21CHL1   H4B 1487   3.007   0.469  10.228 -0.9812  0.1763  1.2417
   21CHL1    C5 1488   2.913   0.419  10.031  0.6719 -0.0471 -0.2818
   21CHL1    C6 1489   3.024   0.457   9.968 -0.1043  1.0455 -0.4910
   21CHL1    H6 1490   3.110   0.488  10.029 -0.3913 -0.8857  0.9672
   21CHL1    C7 1491   3.039   0.461   9.817  0.3656 -0.2898  0.5070
   21CHL1   H7A 1492   3.106   0.544   9.786 -0.3115  0.2360  0.4188
   21CHL1   H7B 1493   3.090   0.370   9.780 -0.3101 -0.2913 -0.4625
   21CHL1    C8 1494   2.899   0.457   9.741  0.3183 -0.4119  0.3313
   21CHL1    H8 1495   2.854   0.558   9.737 -1.6843 -1.3029 -1.3847
   21CHL1   C14 1496   2.914   0.408   9.599  0.1596  0.6662 -0.1850
   21CHL1   H14 1497   2.953   0.304   9.603 -0.4386  0.3577 -1.6887
   21CHL1   C15 1498   3.014   0.485   9.519  0.1180  0.0269  0.5555
   21CHL1  H15A 1499   3.028   0.591   9.547  0.1772 -0.2566  1.6405
   21CHL1  H15B 1500   3.118   0.447   9.527  1.5061  2.7553 -2.4707
   21CHL1   C16 1501   2.961   0.479   9.382 -0.5607 -0.1499  0.0840
   21CHL1  H16A 1502   2.947   0.585   9.350 -0.5972 -0.0424  0.4484
   21CHL1  H16B 1503   3.044   0.439   9.321 -0.6173  1.1182 -0.8762
   21CHL1   C17 1504   2.836   0.394   9.381  0.4808  0.2072 -0.1052
   21CHL1   H17 1505   2.879   0.293   9.367 -2.0622 -0.7180 -2.0606
   21CHL1   C13 1506   2.783   0.409   9.519  0.0808  0.4735  0.5497
   21CHL1   C18 1507   2.709   0.538   9.526  1.1229 -0.1394 -0.3034
   21CHL1  H18A 1508   2.759   0.616   9.465  1.0534  0.0545 -0.1119
   21CHL1  H18B 1509   2.605   0.532   9.489  0.7820  2.6913 -0.0038
   21CHL1  H18C 1510   2.705   0.575   9.631 -0.1565 -0.7781 -0.1060
   21CHL1   C12 1511   2.703   0.293   9.586  0.1719  0.6049 -0.0186
   21CHL1  H12A 1512   2.604   0.291   9.535 -0.3045  0.0210  0.9060
   21CHL1  H12B 1513   2.753   0.194   9.580  2.6211  1.4286  3.6909
   21CHL1   C11 1514   2.675   0.321   9.729  0.3887  0.5375 -0.0908
   21CHL1  H11A 1515   2.614   0.412   9.746  0.2420  0.5791 -0.8061
   21CHL1  H11B 1516   2.621   0.235   9.774 -0.3483 -0.3125 -2.4412
   21CHL1    C9 1517   2.806   0.350   9.812 -0.9551 -0.7640  0.3294
   21CHL1    H9 1518   2.865   0.256   9.800  2.0205  0.9549  0.3755
   21CHL1   C10 1519   2.788   0.365   9.968  0.2549 -0.1526 -0.2983
   21CHL1   C19 1520   2.665   0.456  10.005  0.3100 -0.0254  0.1163
   21CHL1  H19A 1521   2.684   0.556   9.960  3.6163 -1.0358 -1.0321
   21CHL1  H19B 1522   2.575   0.418   9.952  1.3399  1.1431 -2.6576
   21CHL1  H19C 1523   2.643   0.462  10.113  1.0348 -1.1887  0.3488
   21CHL1    C1 1524   2.766   0.221  10.029 -0.2289 -0.3410  0.8508
   21CHL1   H1A 1525   2.671   0.175   9.993  0.5962 -0.3618 -1.4761
   21CHL1   H1B 1526   2.845   0.155   9.988 -0.3371  0.7424 -1.2170
   21CHL1    C2 1527   2.774   0.212  10.178  0.0300 -0.6940  0.5133
   21CHL1   H2A 1528   2.789   0.103  10.190 -4.4885 -1.3587  1.9995
   21CHL1   H2B 1529   2.682   0.257  10.221 -0.6088  2.6907 -3.7257
   21CHL1   C20 1530   2.741   0.415   9.261 -0.1426  1.3330 -0.0469
   21CHL1   H20 1531   2.655   0.479   9.288 -0.9716  0.6019 -0.9035
   21CHL1   C21 1532   2.687   0.274   9.225  0.3858  0.6025  0.0243
   21CHL1  H21A 1533   2.627   0.218   9.300 -2.5629  1.4715 -1.5172
   21CHL1  H21B 1534   2.772   0.210   9.192 -1.5961 -2.1248 -0.2169
   21CHL1  H21C 1535   2.604   0.279   9.150 -0.1307 -2.7986  0.1770
   21CHL1   C22 1536   2.812   0.473   9.137  0.5920 -0.8134  0.2982
   21CHL1  H22A 1537   2.868   0.563   9.171  2.4069 -2.2034  1.0959
   21CHL1  H22B 1538   2.884   0.400   9.094  2.9616  1.7474 -0.3964
   21CHL1   C23 1539   2.714   0.520   9.017 -0.0183  0.2441  0.1495
   21CHL1  H23A 1540   2.771   0.528   8.922  0.7173  1.1591  0.6481
   21CHL1  H23B 1541   2.649   0.434   8.989  1.1546 -0.3935 -0.7002
   21CHL1   C24 1542   2.642   0.656   9.041  0.4186  0.7409 -0.0887
   21CHL1  H24A 1543   2.613   0.662   9.148 -0.6796  2.1756 -0.4259
   21CHL1  H24B 1544   2.710   0.739   9.014  1.0724  0.7373  1.4543
   21CHL1   C25 1545   2.500   0.669   8.969 -0.7927  0.7652 -1.3265
   21CHL1   H25 1546   2.480   0.777   8.983 -0.1866  0.8607 -1.1334
   21CHL1   C26 1547   2.502   0.635   8.820 -0.2368 -0.1759 -0.7639
   21CHL1  H26A 1548   2.519   0.527   8.801  2.4559  0.3459 -1.6971
   21CHL1  H26B 1549   2.400   0.651   8.780 -0.6396 -1.2083 -0.2024
   21CHL1  H26C 1550   2.581   0.703   8.782 -0.4188  0.8716  0.6463
   21CHL1   C27 1551   2.393   0.580   9.040  0.4721 -0.9378  0.3637
   21CHL1  H27A 1552   2.423   0.474   9.025 -1.7500 -1.8775  1.9263
   21CHL1  H27B 1553   2.400   0.592   9.150  0.1487  1.1428  0.1973
   21CHL1  H27C 1554   2.290   0.575   8.997  1.3114 -1.6395 -1.6688
   22CHL1    C3 1555   3.636   1.186  10.223  0.0330 -0.1456 -0.0759
   22CHL1    H3 1556   3.733   1.238  10.207 -0.6504  1.4561  0.7772
   22CHL1    O3 1557   3.616   1.188  10.363  0.1580  0.2537 -0.0079
   22CHL1   H3' 1558   3.650   1.274  10.386  0.7689  0.3493 -1.2042
   22CHL1    C4 1559   3.535   1.265  10.138 -0.8090  0.3189 -0.0268
   22CHL1   H4A 1560   3.434   1.223  10.158 -0.7011  0.7084  1.4468
   22CHL1   H4B 1561   3.539   1.371  10.172  1.7523  1.0357 -2.2133
   22CHL1    C5 1562   3.562   1.271   9.986  0.1602 -0.2017 -0.1788
   22CHL1    C6 1563   3.575   1.390   9.918 -0.0991  0.6122 -1.1512
   22CHL1    H6 1564   3.576   1.487   9.970 -1.7227  0.1841 -0.2547
   22CHL1    C7 1565   3.607   1.393   9.774 -0.0311  0.9823  0.6622
   22CHL1   H7A 1566   3.545   1.475   9.732 -0.0018  2.4415  3.2462
   22CHL1   H7B 1567   3.714   1.420   9.761  0.0180  2.4823  3.4019
   22CHL1    C8 1568   3.572   1.255   9.708 -0.6010  0.2935  0.4728
   22CHL1    H8 1569   3.462   1.242   9.699 -0.6370  0.5034  0.6091
   22CHL1   C14 1570   3.626   1.260   9.562  0.0334  0.0090 -0.0667
   22CHL1   H14 1571   3.733   1.282   9.580 -0.2051  0.0433  1.4011
   22CHL1   C15 1572   3.574   1.370   9.470 -0.4779 -0.0763 -0.2740
   22CHL1  H15A 1573   3.462   1.373   9.470 -0.5319 -0.9982 -1.8026
   22CHL1  H15B 1574   3.621   1.469   9.491  0.5203 -1.0030  2.3021
   22CHL1   C16 1575   3.611   1.319   9.327 -0.2935 -0.8240  0.0454
   22CHL1  H16A 1576   3.516   1.297   9.274 -1.9459 -1.0175  2.8481
   22CHL1  H16B 1577   3.686   1.376   9.268 -1.1867 -0.1899 -0.4941
   22CHL1   C17 1578   3.669   1.176   9.348 -0.3726  0.0175  0.1508
   22CHL1   H17 1579   3.778   1.190   9.364 -0.5961  1.6267  0.4662
   22CHL1   C13 1580   3.617   1.126   9.488  0.0350 -0.2144  0.1457
   22CHL1   C18 1581   3.470   1.081   9.465  0.0547 -0.4630 -0.2108
   22CHL1  H18A 1582   3.478   0.982   9.416 -1.6222 -0.9566  0.4656
   22CHL1  H18B 1583   3.406   1.071   9.555 -1.9286 -0.9336 -1.6118
   22CHL1  H18C 1584   3.415   1.152   9.399  1.0718  0.7606  0.2046
   22CHL1   C12 1585   3.706   1.034   9.572 -0.3131 -0.2037 -0.3874
   22CHL1  H12A 1586   3.709   0.930   9.533 -1.0754 -0.5816  0.5072
   22CHL1  H12B 1587   3.813   1.064   9.580 -0.1884  0.4994 -3.4111
   22CHL1   C11 1588   3.648   1.010   9.712 -0.8786  0.0015 -0.0814
   22CHL1  H11A 1589   3.546   0.966   9.699 -1.0926  0.0633  1.2659
   22CHL1  H11B 1590   3.720   0.945   9.766  0.0522  0.3932 -0.8210
   22CHL1    C9 1591   3.641   1.143   9.791  0.5414 -0.6230  0.2302
   22CHL1    H9 1592   3.744   1.179   9.814 -0.9549  1.6962  4.4576
   22CHL1   C10 1593   3.583   1.130   9.932  0.4702  0.3656  0.5271
   22CHL1   C19 1594   3.439   1.065   9.915 -0.2618 -0.1139 -0.3169
   22CHL1  H19A 1595   3.461   0.957   9.903 -2.2439 -0.5663 -0.3199
   22CHL1  H19B 1596   3.380   1.071  10.009 -1.4913 -1.2564 -0.9815
   22CHL1  H19C 1597   3.373   1.102   9.833 -1.2505  0.0749  0.5408
   22CHL1    C1 1598   3.674   1.042  10.017 -0.0404  0.3548  0.5401
   22CHL1   H1A 1599   3.669   0.936   9.983  0.8087  0.7757 -1.0113
   22CHL1   H1B 1600   3.778   1.079  10.006 -0.2552  1.7489  2.6446
   22CHL1    C2 1601   3.648   1.042  10.170  0.3816 -0.2106 -0.0883
   22CHL1   H2A 1602   3.740   0.996  10.214 -0.9095 -1.7344  1.1420
   22CHL1   H2B 1603   3.564   0.971  10.187  0.5231 -0.6476 -1.1557
   22CHL1   C20 1604   3.661   1.088   9.222  0.3338 -0.3833  0.0799
   22CHL1   H20 1605   3.555   1.068   9.195  0.6728 -0.7866 -1.0232
   22CHL1   C21 1606   3.736   0.956   9.249  0.3375 -0.2274 -0.1349
   22CHL1  H21A 1607   3.707   0.904   9.343  0.2688  0.3255  0.1519
   22CHL1  H21B 1608   3.844   0.979   9.260 -0.0447  0.8336  1.9720
   22CHL1  H21C 1609   3.727   0.889   9.161  0.6501  1.1644 -1.2744
   22CHL1   C22 1610   3.692   1.156   9.085  0.2782  0.6539 -0.1565
   22CHL1  H22A 1611   3.620   1.238   9.064  2.2935  1.9643 -2.4947
   22CHL1  H22B 1612   3.793   1.200   9.102  1.4927 -1.5483 -1.2324
   22CHL1   C23 1613   3.713   1.062   8.961 -0.0216  0.5646 -0.5621
   22CHL1  H23A 1614   3.757   1.114   8.874  1.1395 -2.1986 -1.7333
   22CHL1  H23B 1615   3.794   0.988   8.982  1.0440  1.6601 -0.7134
   22CHL1   C24 1616   3.587   0.997   8.904  0.0629  0.4971 -1.1504
   22CHL1  H24A 1617   3.577   0.903   8.963  2.5390  1.5966  1.2382
   22CHL1  H24B 1618   3.499   1.058   8.932 -0.5032 -1.1213  0.9136
   22CHL1   C25 1619   3.592   0.965   8.746  0.6415 -0.0217  0.0177
   22CHL1   H25 1620   3.608   1.062   8.695  1.1016 -0.9470 -1.6567
   22CHL1   C26 1621   3.703   0.870   8.696 -0.2122 -0.0351 -0.2683
   22CHL1  H26A 1622   3.690   0.765   8.729 -3.1435  0.7868  1.6135
   22CHL1  H26B 1623   3.701   0.875   8.585  0.9201 -0.0197 -0.2924
   22CHL1  H26C 1624   3.804   0.906   8.724 -0.8069  1.2236  0.3059
   22CHL1   C27 1625   3.463   0.907   8.684 -0.0616 -0.0956 -0.1208
   22CHL1  H27A 1626   3.394   0.991   8.662  1.5459  1.4823  0.5657
   22CHL1  H27B 1627   3.484   0.842   8.596  0.6671  0.4183 -0.3360
   22CHL1  H27C 1628   3.423   0.843   8.765 -0.5141  1.1719  0.6750
   23CHL1    C3 1629   5.335   1.596  10.259 -0.1192 -0.1264  0.2093
   23CHL1    H3 1630   5.427   1.657  10.250 -0.3008  0.2825  0.9955
   23CHL1    O3 1631   5.321   1.567  10.398 -1.0466 -0.6757 -0.9045
   23CHL1   H3' 1632   5.363   1.482  10.410  0.7556  0.3622  0.8640
   23CHL1    C4 1633   5.203   1.670  10.214 -0.3195  0.7467 -0.2097
   23CHL1   H4A 1634   5.115   1.605  10.237 -1.1415  1.0667 -2.2209
   23CHL1   H4B 1635   5.203   1.763  10.274  2.3079  2.7025 -2.9279
   23CHL1    C5 1636   5.209   1.706  10.063 -0.9277 -0.9396 -0.2381
   23CHL1    C6 1637   5.196   1.831  10.026  0.2891  0.1648 -0.4318
   23CHL1    H6 1638   5.170   1.908  10.099  1.7363  0.8267 -0.5850
   23CHL1    C7 1639   5.197   1.875   9.886  0.5264 -0.4350  0.2270
   23CHL1   H7A 1640   5.106   1.939   9.882  0.9657  0.1941  0.1991
   23CHL1   H7B 1641   5.287   1.934   9.861  0.7889  0.2034  2.4290
   23CHL1    C8 1642   5.191   1.764   9.783  0.3211  0.7008  0.4223
   23CHL1    H8 1643   5.087   1.728   9.794  0.6844 -0.6944 -0.3751
   23CHL1   C14 1644   5.232   1.818   9.645  0.0279 -0.2771  0.1324
   23CHL1   H14 1645   5.333   1.863   9.654 -1.0641  2.7058 -1.0591
   23CHL1   C15 1646   5.144   1.933   9.591 -0.3731 -0.3215  0.6935
   23CHL1  H15A 1647   5.035   1.916   9.603 -0.3080  0.4529  2.9203
   23CHL1  H15B 1648   5.164   2.024   9.652  0.3913 -1.1078  1.6512
   23CHL1   C16 1649   5.196   1.949   9.451  0.3502  0.0196  0.3909
   23CHL1  H16A 1650   5.114   1.968   9.379 -0.4027 -0.7293  1.0366
   23CHL1  H16B 1651   5.278   2.025   9.453  1.5334 -1.2322  1.4108
   23CHL1   C17 1652   5.276   1.816   9.420  0.1634 -0.1826  0.3507
   23CHL1   H17 1653   5.383   1.831   9.444  0.0163  0.3757  0.6581
   23CHL1   C13 1654   5.233   1.717   9.536  0.2950  0.2477  0.8075
   23CHL1   C18 1655   5.091   1.661   9.494 -0.0336  0.5611  0.1551
   23CHL1  H18A 1656   5.097   1.574   9.425  0.2120  0.9400 -0.3114
   23CHL1  H18B 1657   5.031   1.628   9.581 -0.4666  0.3377 -0.2273
   23CHL1  H18C 1658   5.032   1.739   9.442 -0.6816 -0.7710 -1.1675
   23CHL1   C12 1659   5.319   1.595   9.575 -0.0568 -0.0826 -0.5380
   23CHL1  H12A 1660   5.313   1.509   9.505  1.0263  1.2975 -2.4195
   23CHL1  H12B 1661   5.426   1.624   9.585 -0.3018  0.3024  1.5424
   23CHL1   C11 1662   5.265   1.533   9.712 -0.4758  0.6341 -0.8524
   23CHL1  H11A 1663   5.161   1.494   9.707 -0.2929  0.1376 -0.8385
   23CHL1  H11B 1664   5.336   1.450   9.733 -0.2328  1.0095 -0.1594
   23CHL1    C9 1665   5.281   1.644   9.819 -0.1877 -0.1756  0.2855
   23CHL1    H9 1666   5.387   1.678   9.814 -0.2206 -0.0988  0.1002
   23CHL1   C10 1667   5.246   1.597   9.965 -0.0944  0.2891 -0.6425
   23CHL1   C19 1668   5.116   1.511   9.955  0.6767  0.4369  0.5505
   23CHL1  H19A 1669   5.040   1.556   9.887  1.2332  0.6336  0.0460
   23CHL1  H19B 1670   5.153   1.414   9.917 -0.0189 -0.1790  1.3968
   23CHL1  H19C 1671   5.071   1.495  10.055  1.9274 -1.3351  0.8678
   23CHL1    C1 1672   5.364   1.515  10.021  0.4065 -0.0832 -0.0426
   23CHL1   H1A 1673   5.371   1.419   9.966  0.0905 -0.3155  0.3149
   23CHL1   H1B 1674   5.457   1.573  10.002  0.4002  1.6191  3.9791
   23CHL1    C2 1675   5.358   1.470  10.165 -0.2139  0.2197  0.4557
   23CHL1   H2A 1676   5.456   1.437  10.206 -0.4562  0.7767  1.5358
   23CHL1   H2B 1677   5.285   1.396  10.205  1.6968 -1.1608  1.5360
   23CHL1   C20 1678   5.260   1.768   9.277 -0.3329 -0.1135  0.6334
   23CHL1   H20 1679   5.165   1.717   9.254 -0.8822  0.8521  0.6928
   23CHL1   C21 1680   5.359   1.653   9.256 -0.2465 -0.1692  0.7748
   23CHL1  H21A 1681   5.345   1.564   9.321  0.5138 -0.3640  0.6758
   23CHL1  H21B 1682   5.463   1.688   9.273 -0.5187  0.2859  1.5993
   23CHL1  H21C 1683   5.351   1.606   9.156 -2.0525  1.4088  0.1024
   23CHL1   C22 1684   5.282   1.874   9.169 -0.0204 -0.3058  0.2839
   23CHL1  H22A 1685   5.211   1.959   9.175 -0.5405 -0.8032  1.5449
   23CHL1  H22B 1686   5.380   1.924   9.180  0.4327 -0.7516 -1.4461
   23CHL1   C23 1687   5.282   1.833   9.026 -0.1360  0.3235 -0.4899
   23CHL1  H23A 1688   5.371   1.767   9.017  1.1290  1.6394  1.5319
   23CHL1  H23B 1689   5.189   1.777   9.002  0.0438  0.3332 -1.2230
   23CHL1   C24 1690   5.312   1.944   8.924 -0.1190 -0.0665  0.5193
   23CHL1  H24A 1691   5.220   2.007   8.915 -0.9310 -1.2402  0.3450
   23CHL1  H24B 1692   5.405   2.000   8.948  0.8143 -1.5046  0.4012
   23CHL1   C25 1693   5.327   1.875   8.786 -0.2362 -0.0500  0.3893
   23CHL1   H25 1694   5.258   1.789   8.782 -0.7817  0.4218 -0.8992
   23CHL1   C26 1695   5.305   1.971   8.661  0.7477 -0.3196  0.2873
   23CHL1  H26A 1696   5.321   1.912   8.568  1.6133  1.8306 -1.0092
   23CHL1  H26B 1697   5.200   2.006   8.655  0.1112 -2.1506  0.2251
   23CHL1  H26C 1698   5.378   2.055   8.667  0.6352 -0.2002  0.0169
   23CHL1   C27 1699   5.472   1.808   8.766  0.4776  0.4302  0.2352
   23CHL1  H27A 1700   5.490   1.735   8.848 -0.4606  1.1185  1.0818
   23CHL1  H27B 1701   5.481   1.759   8.667 -1.6450  1.0089 -0.2806
   23CHL1  H27C 1702   5.551   1.887   8.765 -0.3643  1.2902 -1.1239
   24CHL1    C3 1703   0.340   3.601  10.072 -0.6310  0.6461  0.5525
   24CHL1    H3 1704   0.426   3.661  10.034 -1.4816  1.1136 -0.6679
   24CHL1    O3 1705   0.337   3.583  10.213 -0.0394  0.1371 -0.1791
   24CHL1   H3' 1706   0.307   3.494  10.235 -0.6985  0.2651 -0.5539
   24CHL1    C4 1707   0.205   3.654  10.023 -0.1608  0.3414  0.0565
   24CHL1   H4A 1708   0.130   3.581  10.059 -0.3907 -0.6700 -2.2436
   24CHL1   H4B 1709   0.182   3.745  10.081 -0.0667  0.7973 -0.6145
   24CHL1    C5 1710   0.204   3.677   9.878 -0.1032 -0.5223  0.2976
   24CHL1    C6 1711   0.178   3.797   9.810 -0.6779  0.3301  1.0524
   24CHL1    H6 1712   0.161   3.892   9.863  0.1785 -0.2139  2.3531
   24CHL1    C7 1713   0.152   3.800   9.666  0.5081 -0.1036  0.3169
   24CHL1   H7A 1714   0.057   3.852   9.640  1.0896  0.0800 -1.5737
   24CHL1   H7B 1715   0.233   3.864   9.626  2.4391 -1.2367  2.1817
   24CHL1    C8 1716   0.158   3.660   9.587 -0.6897 -0.0846  0.5224
   24CHL1    H8 1717   0.054   3.624   9.595 -1.0128  0.1605 -1.9051
   24CHL1   C14 1718   0.204   3.681   9.439  0.8871  0.4622  0.3273
   24CHL1   H14 1719   0.309   3.717   9.441  0.6663  1.1346  0.3670
   24CHL1   C15 1720   0.116   3.785   9.365 -0.0525 -0.0252 -0.0348
   24CHL1  H15A 1721   0.012   3.763   9.397  0.3436 -2.6014 -0.3211
   24CHL1  H15B 1722   0.148   3.891   9.381  0.8379 -0.0788 -1.3258
   24CHL1   C16 1723   0.139   3.752   9.212  0.6399  1.0020  0.0454
   24CHL1  H16A 1724   0.038   3.747   9.166  1.0732  1.2850 -0.9571
   24CHL1  H16B 1725   0.194   3.829   9.154 -1.4222  1.5288 -1.3578
   24CHL1   C17 1726   0.213   3.612   9.209  0.5085  0.0693 -0.1908
   24CHL1   H17 1727   0.318   3.650   9.209 -0.0776  1.7469 -0.1298
   24CHL1   C13 1728   0.189   3.554   9.346  0.8819  0.5231  0.6504
   24CHL1   C18 1729   0.039   3.503   9.346 -0.0001  0.9563  0.2785
   24CHL1  H18A 1730   0.017   3.460   9.446 -0.9140  0.6999 -0.0290
   24CHL1  H18B 1731  -0.035   3.586   9.341  1.6437  2.8091  3.3849
   24CHL1  H18C 1732   0.021   3.424   9.270 -0.8492  1.7640 -0.3744
   24CHL1   C12 1733   0.289   3.452   9.408  0.2479  0.4869 -0.1681
   24CHL1  H12A 1734   0.286   3.363   9.342  0.3609  1.1729 -1.1105
   24CHL1  H12B 1735   0.391   3.491   9.389  0.0475  1.6392  0.9954
   24CHL1   C11 1736   0.277   3.434   9.563 -0.2553 -0.5611 -0.6047
   24CHL1  H11A 1737   0.187   3.369   9.573 -0.1500 -0.7933 -1.1358
   24CHL1  H11B 1738   0.373   3.382   9.584  2.0420  2.5806 -2.4594
   24CHL1    C9 1739   0.255   3.560   9.650 -0.1790  0.0876 -1.0722
   24CHL1    H9 1740   0.350   3.617   9.642  0.1092 -0.0330  1.0648
   24CHL1   C10 1741   0.234   3.542   9.806 -0.4337 -0.6205  0.6582
   24CHL1   C19 1742   0.114   3.448   9.822  0.6327 -0.7790 -0.2779
   24CHL1  H19A 1743   0.039   3.481   9.747  1.6456  2.6011  0.0333
   24CHL1  H19B 1744   0.142   3.341   9.809 -2.9730 -1.6009 -3.0027
   24CHL1  H19C 1745   0.061   3.441   9.920 -2.0618  0.3210 -1.5393
   24CHL1    C1 1746   0.357   3.471   9.860  0.5375  0.6520  0.2266
   24CHL1   H1A 1747   0.364   3.371   9.813 -0.4926  1.6132 -2.1487
   24CHL1   H1B 1748   0.440   3.536   9.827 -0.2595  0.7740 -1.6729
   24CHL1    C2 1749   0.356   3.461  10.014  0.0723 -0.5019  0.3839
   24CHL1   H2A 1750   0.454   3.421  10.046  0.1684 -1.3797 -0.9024
   24CHL1   H2B 1751   0.271   3.398  10.046 -1.4957  1.5754  0.5136
   24CHL1   C20 1752   0.190   3.532   9.081 -0.1741 -0.4893  0.2047
   24CHL1   H20 1753   0.083   3.513   9.061  0.2573 -1.9740 -0.8550
   24CHL1   C21 1754   0.237   3.386   9.067 -0.6080 -0.2569 -0.5778
   24CHL1  H21A 1755   0.340   3.371   9.105 -1.1352 -2.2368  0.1658
   24CHL1  H21B 1756   0.243   3.337   8.968 -0.8241 -0.6442 -0.4002
   24CHL1  H21C 1757   0.175   3.333   9.143  1.1955  0.0739  1.2158
   24CHL1   C22 1758   0.242   3.611   8.958 -0.7375 -0.3255 -0.2371
   24CHL1  H22A 1759   0.223   3.720   8.959 -0.7981 -0.2545 -2.7822
   24CHL1  H22B 1760   0.352   3.598   8.961 -0.7740 -0.6291 -0.0886
   24CHL1   C23 1761   0.193   3.552   8.822 -0.1871  1.1712 -0.0494
   24CHL1  H23A 1762   0.253   3.459   8.810 -0.1843  1.3836 -1.8504
   24CHL1  H23B 1763   0.084   3.530   8.827 -0.1018  0.3771 -1.2845
   24CHL1   C24 1764   0.221   3.644   8.705 -0.0085 -0.1481 -0.7477
   24CHL1  H24A 1765   0.167   3.740   8.721  0.9543  0.2616  0.2248
   24CHL1  H24B 1766   0.331   3.658   8.700 -0.1434  1.2444 -0.1716
   24CHL1   C25 1767   0.175   3.590   8.566  0.8246 -0.0328  0.6949
   24CHL1   H25 1768   0.065   3.581   8.580  0.4782  2.0717 -0.3766
   24CHL1   C26 1769   0.194   3.694   8.448 -0.2908 -0.2919  0.2893
   24CHL1  H26A 1770   0.301   3.690   8.416 -0.8753 -0.8247 -1.7287
   24CHL1  H26B 1771   0.139   3.674   8.354 -0.0534  1.9201 -0.3757
   24CHL1  H26C 1772   0.166   3.794   8.489  0.7262 -0.7204  2.1429
   24CHL1   C27 1773   0.230   3.455   8.525 -0.1988  0.1103 -0.6110
   24CHL1  H27A 1774   0.341   3.457   8.531 -0.2624  0.1248  0.9884
   24CHL1  H27B 1775   0.203   3.385   8.607  3.2564 -0.3232  0.2977
   24CHL1  H27C 1776   0.193   3.420   8.426  0.6950 -1.3102 -0.4687
   25CHL1    C3 1777   2.200   5.428  10.378  0.9619  0.0646  0.0481
   25CHL1    H3 1778   2.123   5.356  10.340  1.2224 -1.1984  1.7925
   25CHL1    O3 1779   2.196   5.413  10.520  0.1330 -0.6516  0.4112
   25CHL1   H3' 1780   2.210   5.322  10.544  1.4639 -0.9019 -1.1132
   25CHL1    C4 1781   2.338   5.392  10.326  0.1128  0.6035  0.3824
   25CHL1   H4A 1782   2.419   5.461  10.357 -0.9035  1.8475  0.3401
   25CHL1   H4B 1783   2.371   5.298  10.375  1.5656 -0.6880 -2.7701
   25CHL1    C5 1784   2.320   5.383  10.172 -0.2380  0.2300 -0.5698
   25CHL1    C6 1785   2.325   5.270  10.099 -0.6786 -0.3015 -0.7402
   25CHL1    H6 1786   2.357   5.177  10.148  0.6980 -0.1170 -1.2434
   25CHL1    C7 1787   2.314   5.257   9.949  0.2144 -0.2402 -0.7273
   25CHL1   H7A 1788   2.396   5.188   9.921  0.2622 -0.2836 -0.4770
   25CHL1   H7B 1789   2.211   5.223   9.923  0.2289 -0.1307 -0.9286
   25CHL1    C8 1790   2.333   5.400   9.887  0.3676  0.0420  0.2172
   25CHL1    H8 1791   2.442   5.412   9.899  0.5910 -2.2128  0.8938
   25CHL1   C14 1792   2.311   5.395   9.735  0.0211 -0.5461 -0.1437
   25CHL1   H14 1793   2.204   5.367   9.736 -0.4959  1.2580 -1.2029
   25CHL1   C15 1794   2.386   5.292   9.647  0.0554 -0.1901 -0.3213
   25CHL1  H15A 1795   2.489   5.305   9.687 -0.2483  0.9272  0.1381
   25CHL1  H15B 1796   2.361   5.185   9.668 -0.0718 -0.5393 -2.1510
   25CHL1   C16 1797   2.364   5.342   9.505  0.3561  0.3674  1.0968
   25CHL1  H16A 1798   2.466   5.353   9.465 -0.2097  1.9239  0.0095
   25CHL1  H16B 1799   2.300   5.278   9.440  1.2341  1.7304 -1.2020
   25CHL1   C17 1800   2.279   5.474   9.515  0.1130  0.2978 -0.1033
   25CHL1   H17 1801   2.173   5.440   9.516  0.1669  0.1158 -0.5829
   25CHL1   C13 1802   2.312   5.531   9.657 -0.4664  0.0214 -0.1327
   25CHL1   C18 1803   2.457   5.584   9.651  0.0217 -0.2952  0.6308
   25CHL1  H18A 1804   2.462   5.688   9.611 -1.6772 -0.4727 -0.1125
   25CHL1  H18B 1805   2.491   5.606   9.755  0.2465  0.7309  0.3577
   25CHL1  H18C 1806   2.532   5.535   9.586  0.7660  0.3755  0.9684
   25CHL1   C12 1807   2.210   5.623   9.723  0.2849  0.8031 -0.3569
   25CHL1  H12A 1808   2.207   5.727   9.682  0.5741  1.1780  0.5597
   25CHL1  H12B 1809   2.111   5.573   9.725  0.4124  0.5675 -0.0181
   25CHL1   C11 1810   2.247   5.639   9.867 -0.3838 -0.1785 -0.2143
   25CHL1  H11A 1811   2.343   5.693   9.880  0.0134 -0.6474 -1.1486
   25CHL1  H11B 1812   2.177   5.714   9.912 -0.4788 -1.2133  1.4710
   25CHL1    C9 1813   2.253   5.511   9.956 -0.2673  0.3284  0.3376
   25CHL1    H9 1814   2.150   5.472   9.944 -0.7353  1.7975 -0.7672
   25CHL1   C10 1815   2.279   5.523  10.109 -0.8207  0.0326  0.0300
   25CHL1   C19 1816   2.415   5.600  10.117  0.1412 -0.6424  0.3040
   25CHL1  H19A 1817   2.406   5.700  10.069 -0.5413 -1.5510 -1.5302
   25CHL1  H19B 1818   2.446   5.624  10.221  1.3866  2.3192 -0.6567
   25CHL1  H19C 1819   2.494   5.547  10.061  0.3252 -1.4818  1.3287
   25CHL1    C1 1820   2.159   5.583  10.182  0.1282 -0.7571 -0.1056
   25CHL1   H1A 1821   2.151   5.687  10.144  0.1321 -0.8207 -0.2793
   25CHL1   H1B 1822   2.066   5.531  10.150  1.3418 -1.9038 -1.8972
   25CHL1    C2 1823   2.164   5.572  10.344 -0.2844  0.0041  0.3130
   25CHL1   H2A 1824   2.066   5.600  10.388 -1.1608 -2.8892  0.3677
   25CHL1   H2B 1825   2.234   5.651  10.380  1.1496 -1.5143  0.9721
   25CHL1   C20 1826   2.294   5.564   9.389  0.1828 -0.1929  0.9763
   25CHL1   H20 1827   2.403   5.572   9.373 -0.0025  0.2372 -0.1472
   25CHL1   C21 1828   2.237   5.703   9.412  0.0678 -0.2513  0.0412
   25CHL1  H21A 1829   2.251   5.769   9.324  1.0625 -2.1816 -1.3348
   25CHL1  H21B 1830   2.290   5.753   9.495  1.0018  0.3040 -0.8589
   25CHL1  H21C 1831   2.128   5.698   9.431  0.2273 -1.2766  0.7508
   25CHL1   C22 1832   2.223   5.490   9.266 -0.5362  0.5369  0.5041
   25CHL1  H22A 1833   2.273   5.393   9.249  0.1003  0.9252  0.1479
   25CHL1  H22B 1834   2.115   5.485   9.295 -0.7290 -1.2193 -0.3727
   25CHL1   C23 1835   2.241   5.576   9.135 -0.7804  0.2720 -0.7929
   25CHL1  H23A 1836   2.194   5.676   9.145 -0.3185  0.3281  1.2240
   25CHL1  H23B 1837   2.351   5.585   9.117 -0.6342  1.4123  0.5607
   25CHL1   C24 1838   2.188   5.519   9.003  0.3314  0.6435  0.3894
   25CHL1  H24A 1839   2.257   5.439   8.972  0.4281  0.6668  0.5438
   25CHL1  H24B 1840   2.083   5.481   9.002  0.1862  1.0471 -0.7214
   25CHL1   C25 1841   2.205   5.620   8.884  0.2405  0.3449 -0.4455
   25CHL1   H25 1842   2.175   5.569   8.791  0.0964 -1.6563  0.6391
   25CHL1   C26 1843   2.092   5.728   8.885 -0.1089 -0.4129 -1.0044
   25CHL1  H26A 1844   2.088   5.788   8.978 -1.4504 -0.8678 -0.7492
   25CHL1  H26B 1845   2.114   5.797   8.801  1.2162 -0.3897 -0.6616
   25CHL1  H26C 1846   1.994   5.677   8.872 -0.6107  0.5903 -1.2490
   25CHL1   C27 1847   2.338   5.674   8.877 -0.1836 -0.6520 -0.1931
   25CHL1  H27A 1848   2.412   5.591   8.883 -1.7753 -2.0732  0.5321
   25CHL1  H27B 1849   2.347   5.719   8.775 -0.9225  0.0193  0.0290
   25CHL1  H27C 1850   2.361   5.757   8.947  0.4924  1.0614 -2.2974
   26CHL1    C3 1851   4.390   0.520  10.204 -0.9187  0.7237  0.4344
   26CHL1    H3 1852   4.305   0.467  10.158 -2.0496  3.2778 -0.5877
   26CHL1    O3 1853   4.419   0.470  10.334  0.2476 -0.3698  0.1578
   26CHL1   H3' 1854   4.393   0.378  10.343  0.1683 -0.2968  0.6748
   26CHL1    C4 1855   4.521   0.473  10.125 -0.1182 -0.2805 -0.8668
   26CHL1   H4A 1856   4.613   0.509  10.177 -0.8503  1.5455 -0.7525
   26CHL1   H4B 1857   4.530   0.363  10.139 -1.8713 -0.1486  2.3325
   26CHL1    C5 1858   4.524   0.521   9.983  0.2643  0.0236  0.5190
   26CHL1    C6 1859   4.543   0.446   9.874  0.3090 -0.1438  0.3532
   26CHL1    H6 1860   4.546   0.339   9.900 -1.3401 -0.0465  1.0901
   26CHL1    C7 1861   4.551   0.488   9.730  0.9372  0.4977 -0.2638
   26CHL1   H7A 1862   4.630   0.432   9.676  0.5680 -1.0141  0.7061
   26CHL1   H7B 1863   4.452   0.458   9.688  1.4782 -2.1475  0.1759
   26CHL1    C8 1864   4.568   0.645   9.715 -0.3442 -0.1369 -0.4328
   26CHL1    H8 1865   4.677   0.664   9.726 -0.4742 -0.7066  3.0940
   26CHL1   C14 1866   4.533   0.691   9.576 -0.5003  0.7219  0.4824
   26CHL1   H14 1867   4.424   0.672   9.569 -0.0850 -1.4249 -1.5727
   26CHL1   C15 1868   4.600   0.612   9.451 -0.1369 -0.0042 -0.1882
   26CHL1  H15A 1869   4.709   0.600   9.470 -0.5351 -0.4120  2.1613
   26CHL1  H15B 1870   4.559   0.513   9.422 -1.0442  0.7311 -1.4891
   26CHL1   C16 1871   4.585   0.714   9.331  0.7670  0.2833 -1.4462
   26CHL1  H16A 1872   4.683   0.730   9.280  1.3018 -1.1929 -0.9370
   26CHL1  H16B 1873   4.510   0.663   9.267  0.6788 -1.6641  0.1171
   26CHL1   C17 1874   4.524   0.847   9.384 -0.1956 -0.2913  0.3481
   26CHL1   H17 1875   4.414   0.838   9.378 -0.2384  0.8233 -1.5489
   26CHL1   C13 1876   4.550   0.838   9.544  0.6435  0.9687 -0.1042
   26CHL1   C18 1877   4.697   0.884   9.569  0.7275 -0.0826 -0.3344
   26CHL1  H18A 1878   4.701   0.993   9.547  4.3669 -0.3815 -1.8279
   26CHL1  H18B 1879   4.725   0.864   9.675 -0.6855  1.2437  0.3243
   26CHL1  H18C 1880   4.764   0.842   9.491  0.3067 -0.0238 -0.7336
   26CHL1   C12 1881   4.454   0.915   9.638 -0.3847 -0.1583  0.2314
   26CHL1  H12A 1882   4.458   1.023   9.615 -0.8936 -0.0237  0.7428
   26CHL1  H12B 1883   4.347   0.891   9.617 -0.8233  0.0405  2.1105
   26CHL1   C11 1884   4.478   0.882   9.783 -0.7038  0.0012 -0.7492
   26CHL1  H11A 1885   4.577   0.925   9.809  0.1540 -1.8704 -0.7539
   26CHL1  H11B 1886   4.402   0.922   9.854  0.7246  0.7509  0.3893
   26CHL1    C9 1887   4.480   0.724   9.815 -0.5556 -0.4240  0.2020
   26CHL1    H9 1888   4.376   0.693   9.789 -0.8284 -0.9558  1.8244
   26CHL1   C10 1889   4.496   0.673   9.965  0.6813 -0.5340 -0.4254
   26CHL1   C19 1890   4.635   0.737  10.011  1.0346 -0.3865 -0.7268
   26CHL1  H19A 1891   4.618   0.846  10.027  0.9058 -0.5272  0.1242
   26CHL1  H19B 1892   4.682   0.708  10.107  2.0912  1.5357 -0.6064
   26CHL1  H19C 1893   4.713   0.726   9.932  1.0506 -1.5033 -0.5620
   26CHL1    C1 1894   4.376   0.723  10.049  0.5967  0.1567  0.0302
   26CHL1   H1A 1895   4.355   0.831  10.040  0.6398  0.3321  1.6953
   26CHL1   H1B 1896   4.297   0.669   9.993  1.2612 -1.0508  0.2116
   26CHL1    C2 1897   4.379   0.674  10.195  0.8058  0.0345  0.0043
   26CHL1   H2A 1898   4.281   0.712  10.233  1.3267  0.5462  0.8755
   26CHL1   H2B 1899   4.451   0.715  10.269  0.8022 -0.5916  0.3630
   26CHL1   C20 1900   4.560   0.969   9.300  0.1105  0.3773 -0.3608
   26CHL1   H20 1901   4.669   0.986   9.307  0.1085 -0.2198  1.9878
   26CHL1   C21 1902   4.483   1.089   9.353 -0.2756  0.4123  0.0481
   26CHL1  H21A 1903   4.527   1.170   9.291 -1.4546 -0.4726 -2.0624
   26CHL1  H21B 1904   4.503   1.113   9.459 -0.9139  0.6580  0.1210
   26CHL1  H21C 1905   4.375   1.081   9.325 -0.5781  2.6520  0.3313
   26CHL1   C22 1906   4.532   0.937   9.148 -0.5857  0.0931 -0.1682
   26CHL1  H22A 1907   4.607   0.865   9.108 -0.2644 -0.3309  1.1652
   26CHL1  H22B 1908   4.439   0.876   9.145  0.2767 -1.3567  1.3658
   26CHL1   C23 1909   4.522   1.053   9.050  0.5929  0.6624  0.2982
   26CHL1  H23A 1910   4.424   1.104   9.065  0.9610  1.0685  1.4862
   26CHL1  H23B 1911   4.602   1.127   9.068  0.7225  0.1352  2.1627
   26CHL1   C24 1912   4.547   0.999   8.904  0.2734  0.1381  0.8419
   26CHL1  H24A 1913   4.645   0.946   8.905  0.7334  0.8588 -1.1127
   26CHL1  H24B 1914   4.470   0.927   8.869  1.0219 -0.4758  0.4261
   26CHL1   C25 1915   4.555   1.102   8.787 -0.1467 -0.0729 -0.3946
   26CHL1   H25 1916   4.575   1.044   8.694 -3.8023 -0.6036 -0.9852
   26CHL1   C26 1917   4.430   1.188   8.758  0.3131 -0.0931 -0.5637
   26CHL1  H26A 1918   4.399   1.246   8.848 -1.1554 -1.4534 -0.1334
   26CHL1  H26B 1919   4.445   1.246   8.665  1.8479 -2.1034 -1.6410
   26CHL1  H26C 1920   4.343   1.119   8.753  0.1451 -0.3902  3.2319
   26CHL1   C27 1921   4.672   1.204   8.819 -0.8114  0.4150  0.2375
   26CHL1  H27A 1922   4.647   1.268   8.907 -0.4328  1.2604 -0.2537
   26CHL1  H27B 1923   4.768   1.152   8.839 -1.2641 -0.1694  0.9356
   26CHL1  H27C 1924   4.684   1.268   8.729 -1.3808 -0.9172 -0.8145
   27CHL1    C3 1925   2.787   5.167  10.364  0.5069  0.5181  0.1950
   27CHL1    H3 1926   2.889   5.212  10.361  1.5109 -1.7181 -1.7437
   27CHL1    O3 1927   2.732   5.161  10.493 -0.4977  1.0916 -0.2052
   27CHL1   H3' 1928   2.653   5.108  10.477 -0.5678  1.3712 -0.7772
   27CHL1    C4 1929   2.691   5.240  10.271 -0.3686  0.3916  0.4032
   27CHL1   H4A 1930   2.592   5.191  10.288  0.8749 -2.9381 -1.0858
   27CHL1   H4B 1931   2.676   5.346  10.301 -1.8654  0.2703  0.1718
   27CHL1    C5 1932   2.734   5.222  10.123  0.4437 -0.9572  0.2362
   27CHL1    C6 1933   2.740   5.328  10.038  0.2744  0.2490  0.3652
   27CHL1    H6 1934   2.733   5.426  10.086  0.2145 -0.3712  1.6736
   27CHL1    C7 1935   2.773   5.320   9.891  0.0340 -0.3020 -0.0182
   27CHL1   H7A 1936   2.713   5.393   9.832 -0.3857 -0.0362  0.7137
   27CHL1   H7B 1937   2.876   5.361   9.885  0.0930  0.0008  2.1040
   27CHL1    C8 1938   2.762   5.175   9.836 -0.2292  0.6254 -0.2677
   27CHL1    H8 1939   2.653   5.161   9.821 -0.6697  2.2582  1.1301
   27CHL1   C14 1940   2.832   5.165   9.698 -0.3507  0.5538 -0.7163
   27CHL1   H14 1941   2.939   5.182   9.724 -0.4701 -1.6387  1.6914
   27CHL1   C15 1942   2.793   5.258   9.588 -0.3472 -0.8070  0.6203
   27CHL1  H15A 1943   2.683   5.250   9.580 -0.3376  0.2891 -1.3602
   27CHL1  H15B 1944   2.811   5.368   9.589 -0.6198 -0.6726 -2.0373
   27CHL1   C16 1945   2.875   5.197   9.468  0.2066  0.4214 -0.0772
   27CHL1  H16A 1946   2.801   5.197   9.386  0.6802  2.2459 -0.5569
   27CHL1  H16B 1947   2.961   5.262   9.439 -0.7303  1.3071 -0.9307
   27CHL1   C17 1948   2.906   5.046   9.508 -0.0369  0.3021  0.0118
   27CHL1   H17 1949   3.014   5.047   9.535  0.8868 -0.9347 -3.2675
   27CHL1   C13 1950   2.828   5.023   9.643 -0.9400 -0.2620  0.1746
   27CHL1   C18 1951   2.690   4.986   9.602 -0.4581 -0.1898  0.4104
   27CHL1  H18A 1952   2.695   4.881   9.566  2.5281 -0.4837  1.3847
   27CHL1  H18B 1953   2.614   5.002   9.681 -1.6924 -0.2403 -0.7398
   27CHL1  H18C 1954   2.656   5.037   9.509 -1.3999 -0.1883  0.7482
   27CHL1   C12 1955   2.895   4.926   9.743  0.0362  0.1324 -0.2298
   27CHL1  H12A 1956   2.880   4.821   9.709 -1.7881  0.1022  0.5000
   27CHL1  H12B 1957   3.001   4.948   9.766  0.3494 -0.5485 -0.9945
   27CHL1   C11 1958   2.813   4.924   9.882 -0.1773 -0.6456  0.5083
   27CHL1  H11A 1959   2.708   4.890   9.866 -0.3411 -1.6577  3.1963
   27CHL1  H11B 1960   2.869   4.855   9.949 -0.5809 -0.1175  1.4165
   27CHL1    C9 1961   2.813   5.075   9.938 -0.1740  0.5882 -0.5148
   27CHL1    H9 1962   2.920   5.105   9.945 -0.2652  0.5066  1.5879
   27CHL1   C10 1963   2.754   5.077  10.081  0.0166 -0.1367  0.2155
   27CHL1   C19 1964   2.622   5.001  10.075  0.8553 -0.0343 -0.0072
   27CHL1  H19A 1965   2.557   5.033   9.991  0.1297 -1.3417  0.0244
   27CHL1  H19B 1966   2.631   4.893  10.049  0.5879 -0.0813  0.0911
   27CHL1  H19C 1967   2.562   5.007  10.169 -0.6901  1.3817 -1.0342
   27CHL1    C1 1968   2.842   4.999  10.181  0.0862 -0.0079  0.1004
   27CHL1   H1A 1969   2.860   4.894  10.151 -0.5492 -0.0681 -0.0797
   27CHL1   H1B 1970   2.940   5.050  10.172 -0.1176  0.2902 -0.5560
   27CHL1    C2 1971   2.796   5.017  10.331 -0.4078 -0.3250  0.2405
   27CHL1   H2A 1972   2.871   4.966  10.396  0.2662  1.4100  0.8826
   27CHL1   H2B 1973   2.697   4.966  10.337 -0.6283 -0.3838 -2.5176
   27CHL1   C20 1974   2.902   4.942   9.395  0.1143 -0.5198  0.4441
   27CHL1   H20 1975   2.796   4.917   9.368 -0.5569  0.7130  1.8102
   27CHL1   C21 1976   2.968   4.812   9.436 -0.1724  0.4269  0.1258
   27CHL1  H21A 1977   3.075   4.821   9.464  0.0695 -1.6676  0.0025
   27CHL1  H21B 1978   2.974   4.755   9.341  2.8904  0.2279  0.3250
   27CHL1  H21C 1979   2.907   4.760   9.513 -0.6722 -1.3674 -1.4249
   27CHL1   C22 1980   2.972   4.994   9.268  0.2506 -0.5814 -0.0854
   27CHL1  H22A 1981   3.050   5.070   9.293 -0.0939 -0.8929  2.1156
   27CHL1  H22B 1982   3.041   4.917   9.226 -0.5310  0.1357 -2.9167
   27CHL1   C23 1983   2.881   5.036   9.150  0.8066  0.2301 -0.0879
   27CHL1  H23A 1984   2.828   4.949   9.106  0.2059  0.3282  0.4194
   27CHL1  H23B 1985   2.812   5.115   9.188 -0.6604 -1.5402  1.1055
   27CHL1   C24 1986   2.968   5.094   9.039 -0.0589 -0.0092 -0.5301
   27CHL1  H24A 1987   3.028   5.182   9.070  1.8743 -0.5175 -2.5472
   27CHL1  H24B 1988   3.042   5.016   9.008 -0.6452 -0.5742 -0.5222
   27CHL1   C25 1989   2.884   5.140   8.913 -0.5159  0.0872 -0.3551
   27CHL1   H25 1990   2.820   5.057   8.876  1.2357 -0.6156 -1.9381
   27CHL1   C26 1991   2.794   5.262   8.946 -0.1243  0.5047  0.1200
   27CHL1  H26A 1992   2.729   5.238   9.033 -1.3110 -0.3558 -0.9550
   27CHL1  H26B 1993   2.852   5.353   8.971  0.5685  0.2857 -0.6269
   27CHL1  H26C 1994   2.737   5.292   8.855 -0.5126 -0.9686 -0.1517
   27CHL1   C27 1995   2.979   5.186   8.806 -0.3114 -0.6213  0.3567
   27CHL1  H27A 1996   3.023   5.103   8.746  0.5830  0.1272 -0.0454
   27CHL1  H27B 1997   2.931   5.260   8.738 -0.7213 -0.1804  1.1199
   27CHL1  H27C 1998   3.060   5.236   8.861 -0.8550 -0.0185  0.6148
   28CHL1    C3 1999   1.320   3.279   9.929 -0.2528  0.2812 -0.3443
   28CHL1    H3 2000   1.222   3.227   9.931 -1.7089  2.8519  1.4485
   28CHL1    O3 2001   1.359   3.302  10.065  0.0240 -0.0862  0.2354
   28CHL1   H3' 2002   1.303   3.376  10.089 -0.6115 -0.6500  0.5113
   28CHL1    C4 2003   1.435   3.203   9.860 -0.4756 -0.1982  0.0961
   28CHL1   H4A 2004   1.529   3.261   9.874  1.0938 -2.2519 -1.2487
   28CHL1   H4B 2005   1.442   3.105   9.911 -1.4824 -0.2326  0.1844
   28CHL1    C5 2006   1.416   3.191   9.713 -0.4832 -0.6794 -0.3650
   28CHL1    C6 2007   1.421   3.080   9.635 -0.0216  0.5419 -1.0036
   28CHL1    H6 2008   1.458   2.990   9.687  0.4287  0.0255 -2.1807
   28CHL1    C7 2009   1.407   3.081   9.483 -0.2630 -0.2962 -0.7137
   28CHL1   H7A 2010   1.482   3.016   9.434  1.6678  0.6539  0.8223
   28CHL1   H7B 2011   1.309   3.044   9.447 -1.3424  1.8274 -0.1061
   28CHL1    C8 2012   1.416   3.222   9.423 -0.0312  0.6444  0.5070
   28CHL1    H8 2013   1.521   3.259   9.413  1.2068 -2.9244 -2.0651
   28CHL1   C14 2014   1.376   3.215   9.271  0.1215 -0.3150  0.1921
   28CHL1   H14 2015   1.272   3.177   9.280 -0.2502  0.9721  1.9588
   28CHL1   C15 2016   1.453   3.124   9.172 -0.7356 -0.4395 -0.4168
   28CHL1  H15A 2017   1.561   3.134   9.196 -0.6939 -0.0315 -0.7591
   28CHL1  H15B 2018   1.407   3.024   9.179  0.2030 -0.8107  0.7399
   28CHL1   C16 2019   1.423   3.189   9.034  0.3550  0.2495  0.3982
   28CHL1  H16A 2020   1.518   3.220   8.986  0.4774  0.5254  0.8123
   28CHL1  H16B 2021   1.364   3.113   8.979  2.0349  1.2172 -3.0275
   28CHL1   C17 2022   1.332   3.312   9.056  0.3201 -0.1115 -0.5774
   28CHL1   H17 2023   1.234   3.260   9.045  0.9100 -1.3198 -0.2548
   28CHL1   C13 2024   1.359   3.344   9.207 -0.3763 -0.1635  0.8074
   28CHL1   C18 2025   1.494   3.418   9.193 -0.2305 -0.4665  0.4304
   28CHL1  H18A 2026   1.563   3.369   9.121 -0.5267 -0.7115  0.3110
   28CHL1  H18B 2027   1.468   3.518   9.154 -1.8786 -1.5535 -1.4437
   28CHL1  H18C 2028   1.542   3.408   9.293 -2.3282 -2.6193  1.3107
   28CHL1   C12 2029   1.253   3.423   9.282 -0.2415 -0.5988 -0.1191
   28CHL1  H12A 2030   1.253   3.527   9.241  2.5145 -1.2722 -2.0923
   28CHL1  H12B 2031   1.148   3.387   9.289 -1.1416  1.6971 -0.8324
   28CHL1   C11 2032   1.302   3.445   9.426 -0.2349  0.6123  1.2303
   28CHL1  H11A 2033   1.392   3.511   9.419 -0.7419  1.2271  0.2416
   28CHL1  H11B 2034   1.221   3.504   9.475  0.5920  1.7284  1.3079
   28CHL1    C9 2035   1.324   3.311   9.506 -0.4700  0.0956  0.3723
   28CHL1    H9 2036   1.221   3.269   9.514  0.0053 -1.3713 -0.7662
   28CHL1   C10 2037   1.378   3.332   9.647 -0.3901 -0.1300  0.1117
   28CHL1   C19 2038   1.511   3.418   9.653  0.4197  0.5856  0.1255
   28CHL1  H19A 2039   1.494   3.524   9.625  2.2425  1.1023  0.8521
   28CHL1  H19B 2040   1.562   3.421   9.751  0.1150 -0.8180  0.3519
   28CHL1  H19C 2041   1.587   3.374   9.586  0.4282 -0.6749  0.9312
   28CHL1    C1 2042   1.267   3.412   9.719 -0.3879  0.1060 -0.5919
   28CHL1   H1A 2043   1.284   3.517   9.688  2.1594  0.0004  0.2358
   28CHL1   H1B 2044   1.161   3.382   9.704 -0.9138  0.4992  1.9357
   28CHL1    C2 2045   1.294   3.417   9.865 -1.2570  0.1131  0.0861
   28CHL1   H2A 2046   1.210   3.469   9.916 -0.7738 -1.7818  3.0595
   28CHL1   H2B 2047   1.382   3.483   9.875 -0.2634 -1.0148 -0.8820
   28CHL1   C20 2048   1.338   3.414   8.943  0.7692 -0.9170 -0.6439
   28CHL1   H20 2049   1.421   3.486   8.960  0.3666 -0.3825 -0.9013
   28CHL1   C21 2050   1.209   3.501   8.931  0.4696 -0.0678 -0.2702
   28CHL1  H21A 2051   1.174   3.560   9.019  0.9597 -0.5389  0.2519
   28CHL1  H21B 2052   1.126   3.440   8.890 -0.8448  2.3893 -1.4754
   28CHL1  H21C 2053   1.224   3.583   8.857 -1.4641  0.0510 -0.5897
   28CHL1   C22 2054   1.346   3.346   8.803  0.2648 -0.8581 -0.0228
   28CHL1  H22A 2055   1.444   3.296   8.788  1.8492  1.5645  1.6029
   28CHL1  H22B 2056   1.262   3.275   8.791 -0.8556 -0.1168  2.5329
   28CHL1   C23 2057   1.358   3.437   8.678  0.0252  0.1699  0.1261
   28CHL1  H23A 2058   1.260   3.486   8.664  0.2894  0.7729  0.3573
   28CHL1  H23B 2059   1.438   3.512   8.699  1.6149 -1.2765 -0.4572
   28CHL1   C24 2060   1.399   3.359   8.544  0.1837 -0.0945 -0.0645
   28CHL1  H24A 2061   1.504   3.331   8.565  0.5709 -0.6896 -2.4626
   28CHL1  H24B 2062   1.337   3.267   8.545  2.0013 -1.5002 -2.9380
   28CHL1   C25 2063   1.382   3.442   8.419 -0.4664 -0.6532 -0.0162
   28CHL1   H25 2064   1.430   3.535   8.458  1.6340 -0.4761 -2.7302
   28CHL1   C26 2065   1.472   3.394   8.295  0.4943 -0.3023 -0.5847
   28CHL1  H26A 2066   1.575   3.374   8.330  1.5345 -2.2262 -4.2571
   28CHL1  H26B 2067   1.425   3.298   8.265 -0.7958 -1.1038  3.3684
   28CHL1  H26C 2068   1.482   3.463   8.209  1.7144  3.0365  2.0349
   28CHL1   C27 2069   1.238   3.473   8.368  0.3932  0.3804 -0.2104
   28CHL1  H27A 2070   1.170   3.512   8.448  3.2957 -1.3118  3.3895
   28CHL1  H27B 2071   1.234   3.546   8.285  0.0248  0.3973 -0.1818
   28CHL1  H27C 2072   1.186   3.379   8.337  0.2145  0.6006 -0.5821
   29CHL1    C3 2073   2.291   1.678   6.659 -0.4881  0.7418 -0.9811
   29CHL1    H3 2074   2.285   1.789   6.663  2.4048  0.9348  0.4083
   29CHL1    O3 2075   2.311   1.647   6.521 -0.3451  0.2515 -0.2057
   29CHL1   H3' 2076   2.240   1.587   6.500  0.3468 -0.0610 -1.8428
   29CHL1    C4 2077   2.414   1.631   6.736  0.1048  0.5597 -0.4951
   29CHL1   H4A 2078   2.422   1.521   6.721 -2.4861  0.1129  0.7408
   29CHL1   H4B 2079   2.502   1.671   6.682 -0.2799  1.3841 -0.5295
   29CHL1    C5 2080   2.403   1.671   6.877 -0.5573  0.0836 -0.1575
   29CHL1    C6 2081   2.505   1.738   6.939  0.1362  0.6261  0.8993
   29CHL1    H6 2082   2.593   1.753   6.874 -0.8752  2.3259 -0.1387
   29CHL1    C7 2083   2.518   1.760   7.087 -1.0869 -0.1661  0.3135
   29CHL1   H7A 2084   2.622   1.756   7.125 -1.1541  1.4534  0.7444
   29CHL1   H7B 2085   2.468   1.853   7.120 -0.9722  0.0594 -0.1433
   29CHL1    C8 2086   2.418   1.657   7.160 -0.4092 -0.3164 -0.0398
   29CHL1    H8 2087   2.456   1.553   7.153 -0.7311 -0.3613 -1.2889
   29CHL1   C14 2088   2.411   1.708   7.310  0.4440 -0.5026  0.2359
   29CHL1   H14 2089   2.364   1.808   7.300  2.2470  0.2645 -1.0777
   29CHL1   C15 2090   2.540   1.733   7.392  0.1898 -0.0133  0.1461
   29CHL1  H15A 2091   2.611   1.648   7.392  0.0028 -0.1715  0.1951
   29CHL1  H15B 2092   2.601   1.814   7.346 -1.0586  0.3418 -0.9693
   29CHL1   C16 2093   2.493   1.753   7.530  0.2675 -0.0484 -0.7221
   29CHL1  H16A 2094   2.562   1.700   7.598 -0.2344  0.4935  0.2297
   29CHL1  H16B 2095   2.496   1.861   7.556 -1.3432 -0.0104 -0.5733
   29CHL1   C17 2096   2.340   1.694   7.537 -1.3489 -0.2441 -0.0328
   29CHL1   H17 2097   2.273   1.782   7.542 -0.0054  0.7805  0.8741
   29CHL1   C13 2098   2.329   1.618   7.402 -0.5265 -0.2993 -0.3156
   29CHL1   C18 2099   2.389   1.475   7.416  0.0105 -0.1217  0.0021
   29CHL1  H18A 2100   2.474   1.467   7.488 -0.8299 -0.9470  0.9546
   29CHL1  H18B 2101   2.307   1.405   7.445 -0.9357  0.1541 -1.8676
   29CHL1  H18C 2102   2.429   1.437   7.320  0.2899 -1.4190  0.6074
   29CHL1   C12 2103   2.188   1.612   7.347 -0.4377  0.1617  0.4363
   29CHL1  H12A 2104   2.136   1.534   7.406 -2.3506  1.7511  0.9560
   29CHL1  H12B 2105   2.132   1.704   7.372 -1.9925 -0.1638 -1.5824
   29CHL1   C11 2106   2.181   1.578   7.196 -0.3843  0.4184 -1.1850
   29CHL1  H11A 2107   2.215   1.472   7.195  2.2642  1.1760 -0.1553
   29CHL1  H11B 2108   2.078   1.570   7.157  0.2537 -1.1992 -2.6622
   29CHL1    C9 2109   2.276   1.658   7.100 -0.1825 -0.2591 -0.3337
   29CHL1    H9 2110   2.235   1.762   7.103 -0.5575 -0.4039 -0.3399
   29CHL1   C10 2111   2.278   1.609   6.949  0.2540 -0.6237 -0.2688
   29CHL1   C19 2112   2.296   1.453   6.954  0.1321 -0.1406  0.1675
   29CHL1  H19A 2113   2.211   1.401   7.003  1.2358 -1.4630  0.7110
   29CHL1  H19B 2114   2.300   1.410   6.852  0.8593 -0.3653  0.2874
   29CHL1  H19C 2115   2.392   1.423   7.001 -0.0770 -0.8423  0.1590
   29CHL1    C1 2116   2.152   1.653   6.867  0.1181 -0.1149  0.8619
   29CHL1   H1A 2117   2.065   1.608   6.919  0.9096 -2.7136  0.1163
   29CHL1   H1B 2118   2.127   1.761   6.865  1.4002  0.2280 -2.1708
   29CHL1    C2 2119   2.164   1.616   6.716  0.7636 -0.2065  0.2337
   29CHL1   H2A 2120   2.074   1.653   6.662  1.5852  1.9657  0.2798
   29CHL1   H2B 2121   2.172   1.505   6.713 -0.8705 -0.3378 -0.2745
   29CHL1   C20 2122   2.311   1.630   7.676 -0.5867 -0.1387 -0.1950
   29CHL1   H20 2123   2.398   1.564   7.697 -0.3539 -0.5675 -2.3052
   29CHL1   C21 2124   2.183   1.547   7.683 -0.4717 -0.5285  0.3706
   29CHL1  H21A 2125   2.165   1.523   7.790 -1.3469 -0.0315  0.3425
   29CHL1  H21B 2126   2.182   1.454   7.622 -2.0967 -0.7383  0.6770
   29CHL1  H21C 2127   2.107   1.613   7.635  1.8665  0.5443 -2.1113
   29CHL1   C22 2128   2.315   1.739   7.783 -0.2982 -0.2831 -0.0395
   29CHL1  H22A 2129   2.397   1.813   7.767  0.0592 -0.9273 -1.3442
   29CHL1  H22B 2130   2.226   1.801   7.763 -0.7341 -1.1604 -0.8781
   29CHL1   C23 2131   2.322   1.693   7.927 -0.1401 -0.1446 -0.4103
   29CHL1  H23A 2132   2.247   1.616   7.955  0.0657  0.5990  2.5275
   29CHL1  H23B 2133   2.423   1.650   7.942 -0.9439 -1.6961  0.8308
   29CHL1   C24 2134   2.304   1.812   8.027  0.3434  0.3247  0.4450
   29CHL1  H24A 2135   2.359   1.903   7.993  1.0070 -0.3918 -0.4329
   29CHL1  H24B 2136   2.195   1.833   8.020  0.4066  1.2117  1.6298
   29CHL1   C25 2137   2.327   1.787   8.174  0.4563  0.1353 -0.1804
   29CHL1   H25 2138   2.305   1.687   8.215  0.5504 -0.2057 -0.9507
   29CHL1   C26 2139   2.474   1.807   8.204  0.1539 -0.0755 -0.4131
   29CHL1  H26A 2140   2.519   1.796   8.305 -0.8078 -0.6090 -0.0298
   29CHL1  H26B 2141   2.524   1.758   8.118 -1.7941  2.8897 -3.5240
   29CHL1  H26C 2142   2.484   1.917   8.191  0.2049  0.0029  0.2785
   29CHL1   C27 2143   2.232   1.885   8.251 -0.2459  0.7201 -0.1572
   29CHL1  H27A 2144   2.127   1.858   8.227  0.2622 -1.0698 -0.5357
   29CHL1  H27B 2145   2.241   1.876   8.361 -3.0772  0.1107  0.0878
   29CHL1  H27C 2146   2.242   1.986   8.205  2.4783 -0.2451 -1.9849
   30CHL1    C3 2147   1.103   0.663   7.333 -0.5774  0.3567  0.4673
   30CHL1    H3 2148   1.076   0.556   7.328 -0.8861  0.4323  0.4368
   30CHL1    O3 2149   1.086   0.714   7.206  0.0454 -0.0282 -0.0481
   30CHL1   H3' 2150   1.095   0.809   7.211 -1.7465  0.3544 -2.1727
   30CHL1    C4 2151   1.005   0.725   7.422  0.4139  0.0674 -0.2703
   30CHL1   H4A 2152   1.012   0.835   7.419 -0.4061  0.1009 -1.5701
   30CHL1   H4B 2153   0.905   0.700   7.381  0.0767 -0.7199  0.9547
   30CHL1    C5 2154   1.019   0.670   7.566  0.4690  0.0944 -0.6509
   30CHL1    C6 2155   0.912   0.617   7.635 -0.0629 -0.1852 -0.1362
   30CHL1    H6 2156   0.819   0.598   7.579 -0.3978  0.0904  0.3236
   30CHL1    C7 2157   0.910   0.564   7.778 -0.1869  0.0652  0.2392
   30CHL1   H7A 2158   0.824   0.591   7.843 -0.7229 -2.2759  0.5984
   30CHL1   H7B 2159   0.920   0.454   7.768  1.9880  0.3042 -0.7469
   30CHL1    C8 2160   1.046   0.608   7.847  0.1408  0.1025  0.5240
   30CHL1    H8 2161   1.023   0.711   7.881  3.9224  1.7536 -1.3697
   30CHL1   C14 2162   1.074   0.510   7.963 -0.1798 -0.2409 -0.2028
   30CHL1   H14 2163   1.098   0.413   7.915 -1.3424 -0.3172 -0.6552
   30CHL1   C15 2164   0.960   0.476   8.059  0.8475 -0.3122  0.2399
   30CHL1  H15A 2165   0.902   0.563   8.097  3.7770  0.8364  2.3896
   30CHL1  H15B 2166   0.880   0.409   8.019  0.6685  0.7432 -1.2635
   30CHL1   C16 2167   1.028   0.418   8.183  0.5947  0.6696  0.1688
   30CHL1  H16A 2168   1.010   0.487   8.268 -0.1254  0.7444 -0.0331
   30CHL1  H16B 2169   1.002   0.312   8.204  0.4780  0.4428 -1.0226
   30CHL1   C17 2170   1.177   0.449   8.160  0.3703  0.8579 -0.4120
   30CHL1   H17 2171   1.223   0.360   8.111  2.0459  1.6246 -0.3004
   30CHL1   C13 2172   1.190   0.553   8.053 -0.7315  0.2816  0.4148
   30CHL1   C18 2173   1.155   0.693   8.117  0.5319  0.3087  0.0138
   30CHL1  H18A 2174   1.179   0.768   8.039  1.8076 -2.4072 -2.4126
   30CHL1  H18B 2175   1.049   0.686   8.149  0.6592 -0.5593  0.2693
   30CHL1  H18C 2176   1.205   0.724   8.211 -1.7611  1.8548  0.8065
   30CHL1   C12 2177   1.323   0.557   7.962 -0.2011 -0.5694 -0.3142
   30CHL1  H12A 2178   1.401   0.598   8.029 -1.8664 -0.3907  1.6379
   30CHL1  H12B 2179   1.338   0.452   7.931  1.3584 -0.6767  0.6995
   30CHL1   C11 2180   1.296   0.650   7.841 -0.6833  0.7978  0.4263
   30CHL1  H11A 2181   1.263   0.752   7.870 -0.9953  0.8059  0.0525
   30CHL1  H11B 2182   1.392   0.656   7.784  0.2440 -0.4299  1.7833
   30CHL1    C9 2183   1.169   0.607   7.758 -0.1465  0.3155 -0.3222
   30CHL1    H9 2184   1.186   0.504   7.721 -0.1470  0.4953 -0.8311
   30CHL1   C10 2185   1.158   0.686   7.624 -0.4243  0.0557  0.3307
   30CHL1   C19 2186   1.169   0.840   7.667  0.7340  0.3701  0.0284
   30CHL1  H19A 2187   1.097   0.861   7.749 -0.7092 -1.9427 -0.5488
   30CHL1  H19B 2188   1.271   0.873   7.696  1.0348  0.0747 -0.6813
   30CHL1  H19C 2189   1.140   0.900   7.578  2.4059  2.1440  0.6163
   30CHL1    C1 2190   1.266   0.649   7.522 -0.8922  0.0192  0.1631
   30CHL1   H1A 2191   1.353   0.709   7.554  0.1212 -1.2622 -0.0942
   30CHL1   H1B 2192   1.294   0.543   7.543 -1.3822 -0.0831  0.3205
   30CHL1    C2 2193   1.248   0.690   7.376 -0.4449 -0.1948 -0.3169
   30CHL1   H2A 2194   1.315   0.639   7.304 -0.6277 -1.2592  0.2542
   30CHL1   H2B 2195   1.259   0.799   7.357  1.2498  0.0734  1.8803
   30CHL1   C20 2196   1.249   0.468   8.289 -0.1084  1.1577  0.8430
   30CHL1   H20 2197   1.204   0.560   8.331 -0.4939  2.2349 -1.7242
   30CHL1   C21 2198   1.392   0.509   8.260  0.4228 -0.3015 -0.2427
   30CHL1  H21A 2199   1.446   0.509   8.358  0.1917  1.3178 -0.0949
   30CHL1  H21B 2200   1.390   0.614   8.225  1.5649 -0.4555 -0.8207
   30CHL1  H21C 2201   1.448   0.440   8.192 -0.6181  0.0686 -1.5019
   30CHL1   C22 2202   1.236   0.352   8.390 -0.5673  0.5354  0.0213
   30CHL1  H22A 2203   1.129   0.329   8.407 -0.4460 -0.9851 -1.1014
   30CHL1  H22B 2204   1.272   0.261   8.338  1.9270  1.4594 -0.0509
   30CHL1   C23 2205   1.292   0.374   8.526 -0.1235  0.1579 -0.2199
   30CHL1  H23A 2206   1.392   0.422   8.520 -0.2989  0.5984  0.2738
   30CHL1  H23B 2207   1.229   0.449   8.577  0.2829  1.2035 -1.2219
   30CHL1   C24 2208   1.289   0.256   8.617  0.6015  0.5060 -0.4846
   30CHL1  H24A 2209   1.184   0.223   8.607  0.5301  0.5706  0.0612
   30CHL1  H24B 2210   1.348   0.166   8.587 -3.7094 -3.7117  2.1998
   30CHL1   C25 2211   1.303   0.282   8.769  0.6300  0.3097 -0.7016
   30CHL1   H25 2212   1.228   0.360   8.795  0.3402 -0.6177  1.3984
   30CHL1   C26 2213   1.260   0.156   8.849 -0.7785  0.0048 -0.5044
   30CHL1  H26A 2214   1.336   0.075   8.846 -3.2043 -2.5570  1.6156
   30CHL1  H26B 2215   1.260   0.178   8.958 -0.6511 -0.1386 -0.4751
   30CHL1  H26C 2216   1.162   0.110   8.823 -1.2753 -1.4457  3.3341
   30CHL1   C27 2217   1.443   0.336   8.798 -0.2085  0.3076 -0.2935
   30CHL1  H27A 2218   1.481   0.389   8.708 -4.3274 -0.3016 -2.6663
   30CHL1  H27B 2219   1.426   0.400   8.886  0.2053 -1.7825  1.3860
   30CHL1  H27C 2220   1.505   0.245   8.813  2.0077  1.2908 -2.7027
   31CHL1    C3 2221   0.826   2.049   6.724  1.2427  0.1954 -0.2665
   31CHL1    H3 2222   0.926   2.006   6.745  1.1263 -0.3266 -0.7426
   31CHL1    O3 2223   0.798   2.039   6.585  0.0960 -0.6106  0.4967
   31CHL1   H3' 2224   0.705   2.040   6.562  0.4136  2.8258 -1.1944
   31CHL1    C4 2225   0.724   1.967   6.790 -0.1203 -0.6512 -0.5770
   31CHL1   H4A 2226   0.622   2.007   6.768 -0.1003 -1.0270 -1.3572
   31CHL1   H4B 2227   0.737   1.865   6.749  0.0020 -0.2066 -1.6647
   31CHL1    C5 2228   0.740   1.969   6.940 -0.1874 -1.2766  0.2268
   31CHL1    C6 2229   0.746   1.861   7.014 -0.3159  0.0828  0.7606
   31CHL1    H6 2230   0.750   1.763   6.964  2.4861  0.9665 -0.9929
   31CHL1    C7 2231   0.755   1.849   7.163  0.5349 -0.5411 -0.0570
   31CHL1   H7A 2232   0.690   1.765   7.195  1.0754 -0.6392  0.8163
   31CHL1   H7B 2233   0.857   1.813   7.189  0.7869  0.4481  0.3676
   31CHL1    C8 2234   0.737   1.982   7.234  0.4053  0.4874 -0.1135
   31CHL1    H8 2235   0.629   2.004   7.222  0.2693 -0.5623 -0.9393
   31CHL1   C14 2236   0.787   1.977   7.378  0.5535  0.3062 -0.2844
   31CHL1   H14 2237   0.897   1.970   7.362  0.4932  2.1600 -1.8873
   31CHL1   C15 2238   0.742   1.862   7.468 -0.2693 -0.2990  0.7590
   31CHL1  H15A 2239   0.636   1.830   7.458 -0.6108  0.5211  1.6014
   31CHL1  H15B 2240   0.807   1.773   7.453 -0.3991  0.0389 -2.7028
   31CHL1   C16 2241   0.763   1.922   7.614 -0.2466 -0.6690  0.0919
   31CHL1  H16A 2242   0.660   1.929   7.656  0.1239 -2.1247  1.3412
   31CHL1  H16B 2243   0.823   1.852   7.676 -0.7987 -2.4655 -1.2895
   31CHL1   C17 2244   0.829   2.062   7.591  0.5843 -0.3547  0.2582
   31CHL1   H17 2245   0.937   2.038   7.579  1.0294  2.0133 -0.9137
   31CHL1   C13 2246   0.772   2.113   7.457 -0.3127 -0.0069  0.2103
   31CHL1   C18 2247   0.618   2.146   7.471 -0.2141 -0.4261 -0.2659
   31CHL1  H18A 2248   0.578   2.160   7.368 -1.7499  1.2805  0.5018
   31CHL1  H18B 2249   0.565   2.061   7.521  0.6224 -1.0405 -0.4082
   31CHL1  H18C 2250   0.611   2.243   7.525  1.3330  1.3393 -3.0230
   31CHL1   C12 2251   0.842   2.225   7.379 -0.4664  0.0587  0.6272
   31CHL1  H12A 2252   0.830   2.323   7.429 -0.3300  0.9227 -0.9675
   31CHL1  H12B 2253   0.949   2.197   7.368 -0.5869 -0.1119 -0.1802
   31CHL1   C11 2254   0.786   2.230   7.234 -0.3614  0.0307  0.8117
   31CHL1  H11A 2255   0.680   2.264   7.237 -0.2989  0.4411 -0.7856
   31CHL1  H11B 2256   0.833   2.313   7.177 -1.9431  0.5277  0.1829
   31CHL1    C9 2257   0.801   2.095   7.151 -0.4492 -0.3784 -0.4641
   31CHL1    H9 2258   0.911   2.081   7.157 -0.2389  1.2675 -0.1792
   31CHL1   C10 2259   0.753   2.106   7.003  0.7169 -0.0672 -0.2111
   31CHL1   C19 2260   0.606   2.164   7.001  0.3114 -0.6485  0.4354
   31CHL1  H19A 2261   0.570   2.174   6.896  0.8554  0.7979  0.3681
   31CHL1  H19B 2262   0.535   2.100   7.057  1.1477 -1.0669  1.0507
   31CHL1  H19C 2263   0.591   2.266   7.042  1.0153  0.1095 -1.1310
   31CHL1    C1 2264   0.841   2.202   6.923  0.0950  0.1478  1.1129
   31CHL1   H1A 2265   0.823   2.308   6.954 -1.0597 -0.2295  1.7786
   31CHL1   H1B 2266   0.947   2.178   6.947  0.0806 -4.4639 -2.1680
   31CHL1    C2 2267   0.817   2.194   6.770 -0.3525  0.5680  0.3478
   31CHL1   H2A 2268   0.890   2.263   6.721 -0.5167  0.3632 -0.1909
   31CHL1   H2B 2269   0.715   2.225   6.741 -0.0121  0.3763 -1.1266
   31CHL1   C20 2270   0.819   2.161   7.706 -0.1182 -0.6863 -0.1762
   31CHL1   H20 2271   0.737   2.234   7.688 -2.1697 -3.0185 -0.8698
   31CHL1   C21 2272   0.951   2.234   7.718  0.1860 -0.1037  0.4773
   31CHL1  H21A 2273   0.986   2.283   7.624  0.9258  0.0341  0.8237
   31CHL1  H21B 2274   1.033   2.160   7.728  0.2835 -0.0039  0.4150
   31CHL1  H21C 2275   0.955   2.299   7.808  0.3222 -0.0775  0.4526
   31CHL1   C22 2276   0.780   2.094   7.841 -0.3361  0.2042  0.2322
   31CHL1  H22A 2277   0.676   2.055   7.842  0.5232 -2.2906  0.7386
   31CHL1  H22B 2278   0.845   2.005   7.858 -1.6420 -0.8888 -0.3216
   31CHL1   C23 2279   0.780   2.191   7.960  0.0470  0.0266 -0.4219
   31CHL1  H23A 2280   0.881   2.182   8.006  0.4317  2.5746 -0.6238
   31CHL1  H23B 2281   0.749   2.293   7.928 -1.8189 -0.1208  0.7549
   31CHL1   C24 2282   0.695   2.138   8.079 -0.0917  0.4323  0.6750
   31CHL1  H24A 2283   0.597   2.108   8.037 -1.4110  0.9536  3.2003
   31CHL1  H24B 2284   0.730   2.039   8.117 -1.9705 -0.4630  0.2011
   31CHL1   C25 2285   0.681   2.238   8.191  0.4533  0.3134 -0.4961
   31CHL1   H25 2286   0.626   2.328   8.156 -0.4633  0.1716  0.5194
   31CHL1   C26 2287   0.595   2.166   8.294 -0.3508  0.1940 -0.4534
   31CHL1  H26A 2288   0.496   2.136   8.252  0.0857 -0.7057 -0.8857
   31CHL1  H26B 2289   0.644   2.067   8.311  1.0873  0.8536 -0.6062
   31CHL1  H26C 2290   0.589   2.208   8.396 -2.0038 -1.3777  0.1633
   31CHL1   C27 2291   0.813   2.277   8.270  0.1338 -0.1486 -0.3299
   31CHL1  H27A 2292   0.856   2.186   8.319  1.0137  0.2951 -0.2596
   31CHL1  H27B 2293   0.784   2.347   8.351  0.6910 -0.4359  0.1227
   31CHL1  H27C 2294   0.882   2.337   8.208  0.1207  2.5758  2.0992
   32CHL1    C3 2295   1.542   0.635   6.982  0.2204  0.0614  0.8267
   32CHL1    H3 2296   1.437   0.626   7.018 -0.2932 -0.7815 -0.8250
   32CHL1    O3 2297   1.562   0.585   6.845  0.5969 -0.3102 -0.3323
   32CHL1   H3' 2298   1.511   0.649   6.795 -0.7321  0.3432  1.7006
   32CHL1    C4 2299   1.586   0.772   6.993 -0.6576 -0.2985  0.0729
   32CHL1   H4A 2300   1.688   0.783   6.950 -0.7527 -0.6684 -0.2517
   32CHL1   H4B 2301   1.536   0.829   6.912  0.8783 -2.6699 -2.7348
   32CHL1    C5 2302   1.576   0.822   7.134 -0.2881 -0.1205  0.1732
   32CHL1    C6 2303   1.496   0.925   7.175  0.3648  0.0017  0.6620
   32CHL1    H6 2304   1.425   0.965   7.101 -0.0203 -1.4221  0.2282
   32CHL1    C7 2305   1.490   0.980   7.315  0.0207 -0.2747 -0.0001
   32CHL1   H7A 2306   1.499   1.090   7.303  1.5189 -0.2501  1.0596
   32CHL1   H7B 2307   1.391   0.960   7.363 -0.7813 -0.0202 -1.4908
   32CHL1    C8 2308   1.616   0.952   7.395  0.2547  0.2644  0.3635
   32CHL1    H8 2309   1.694   1.007   7.338 -2.6094  1.3473 -2.8897
   32CHL1   C14 2310   1.604   0.986   7.540 -0.0894 -0.5106  0.2647
   32CHL1   H14 2311   1.518   0.921   7.568 -1.8962  1.1215 -1.1656
   32CHL1   C15 2312   1.545   1.126   7.576 -0.1236 -0.9594 -1.3284
   32CHL1  H15A 2313   1.591   1.195   7.502  0.8193 -0.2849 -0.1530
   32CHL1  H15B 2314   1.434   1.125   7.573 -0.2008  0.9494 -0.7577
   32CHL1   C16 2315   1.590   1.156   7.721  1.1055 -0.4642  0.6624
   32CHL1  H16A 2316   1.658   1.243   7.721  2.8407 -1.6800 -1.6164
   32CHL1  H16B 2317   1.496   1.166   7.779  0.7465  1.2044 -0.1463
   32CHL1   C17 2318   1.666   1.025   7.768  0.8348 -0.1938  0.3089
   32CHL1   H17 2319   1.597   0.945   7.802  0.9251  0.1789  1.4246
   32CHL1   C13 2320   1.722   0.958   7.638  0.2722 -0.5127  0.5271
   32CHL1   C18 2321   1.837   1.040   7.580 -0.3348  0.2494  0.9642
   32CHL1  H18A 2322   1.912   1.017   7.658  2.0442 -1.1539 -1.5907
   32CHL1  H18B 2323   1.885   1.018   7.482  0.2151 -0.1729  1.3288
   32CHL1  H18C 2324   1.822   1.150   7.582 -0.0697  0.3638 -1.0546
   32CHL1   C12 2325   1.746   0.807   7.628 -0.4398  0.3193 -0.1926
   32CHL1  H12A 2326   1.840   0.776   7.679 -0.4048 -1.5108 -1.2851
   32CHL1  H12B 2327   1.661   0.747   7.666  1.1141 -1.5704  0.4947
   32CHL1   C11 2328   1.776   0.767   7.483  0.5636  0.0553  0.2512
   32CHL1  H11A 2329   1.873   0.810   7.451  0.2014  0.6324 -0.0903
   32CHL1  H11B 2330   1.778   0.656   7.478  2.0186  0.1193 -2.6403
   32CHL1    C9 2331   1.661   0.806   7.384  0.7878  0.2554 -0.8417
   32CHL1    H9 2332   1.575   0.747   7.422 -0.8194  3.4069  0.7863
   32CHL1   C10 2333   1.664   0.749   7.234 -0.3039 -0.0218 -0.2541
   32CHL1   C19 2334   1.813   0.763   7.201  0.3247  0.3484 -0.0181
   32CHL1  H19A 2335   1.874   0.686   7.254 -0.0514 -0.6009 -0.9322
   32CHL1  H19B 2336   1.837   0.730   7.097  0.0891 -2.1089  0.6491
   32CHL1  H19C 2337   1.844   0.869   7.216  1.5494 -0.1726  1.4156
   32CHL1    C1 2338   1.620   0.597   7.222  0.3378 -0.3901 -0.0088
   32CHL1   H1A 2339   1.698   0.537   7.273  1.8324  0.6940 -0.9573
   32CHL1   H1B 2340   1.518   0.578   7.262 -0.0104 -1.6776 -1.4369
   32CHL1    C2 2341   1.624   0.545   7.079  0.9123 -0.3598 -0.0069
   32CHL1   H2A 2342   1.571   0.447   7.083  0.2264 -0.0090 -0.2993
   32CHL1   H2B 2343   1.724   0.524   7.036  1.3305 -1.2894  1.3634
   32CHL1   C20 2344   1.768   1.056   7.884  0.3926  0.1298  0.6124
   32CHL1   H20 2345   1.849   1.117   7.840  3.1135 -3.7519 -0.2841
   32CHL1   C21 2346   1.838   0.924   7.923 -0.0301 -0.4988  0.3288
   32CHL1  H21A 2347   1.759   0.851   7.950  0.9608 -0.9209  2.2591
   32CHL1  H21B 2348   1.900   0.957   8.009  0.4073  2.9785 -1.1571
   32CHL1  H21C 2349   1.906   0.889   7.842  2.0407  0.9820  1.3640
   32CHL1   C22 2350   1.694   1.110   8.008  0.0379  0.3692  0.8481
   32CHL1  H22A 2351   1.766   1.115   8.093 -0.2403 -0.4930  1.1450
   32CHL1  H22B 2352   1.661   1.213   7.982  2.9847  0.6646 -2.6231
   32CHL1   C23 2353   1.569   1.033   8.050 -0.3043  0.1484 -0.3633
   32CHL1  H23A 2354   1.487   1.057   7.979 -0.9282 -1.3830 -0.1873
   32CHL1  H23B 2355   1.576   0.922   8.051 -0.9440  0.1059 -0.2669
   32CHL1   C24 2356   1.511   1.071   8.191 -1.0794  0.5147  0.5606
   32CHL1  H24A 2357   1.583   1.044   8.271 -1.6653  0.0430  0.9433
   32CHL1  H24B 2358   1.505   1.182   8.185  0.1651  0.5132 -2.4821
   32CHL1   C25 2359   1.377   1.016   8.225 -0.0978 -0.6427  0.5081
   32CHL1   H25 2360   1.364   0.906   8.215 -1.2270 -0.4738 -0.1253
   32CHL1   C26 2361   1.344   1.048   8.373 -0.5175  0.5354  0.0290
   32CHL1  H26A 2362   1.430   1.006   8.430  0.7780 -0.2137 -2.3756
   32CHL1  H26B 2363   1.335   1.156   8.398 -1.4883  0.1740  1.3760
   32CHL1  H26C 2364   1.249   0.997   8.399  1.2963 -1.8480  2.5868
   32CHL1   C27 2365   1.269   1.088   8.142  0.5420  0.3394 -0.1098
   32CHL1  H27A 2366   1.273   1.065   8.034  2.9685 -0.3653  0.0646
   32CHL1  H27B 2367   1.168   1.082   8.188  0.1869  0.5445 -0.8460
   32CHL1  H27C 2368   1.296   1.196   8.149  1.8333 -0.0193  1.0310
   33CHL1    C3 2369   2.980   6.400   6.990  0.4237  0.0281  0.1174
   33CHL1    H3 2370   3.007   6.506   7.010 -1.4478  0.4489  0.5582
   33CHL1    O3 2371   2.955   6.378   6.848 -0.6032 -0.0491 -0.2035
   33CHL1   H3' 2372   3.012   6.307   6.819 -0.1118  1.5854 -3.8684
   33CHL1    C4 2373   3.087   6.304   7.042  0.6923 -0.0747  0.5466
   33CHL1   H4A 2374   3.048   6.203   7.014 -3.6310  1.6476 -0.5144
   33CHL1   H4B 2375   3.180   6.322   6.984  0.9000 -0.8778  0.6113
   33CHL1    C5 2376   3.119   6.314   7.191 -0.2288 -0.8154 -0.4221
   33CHL1    C6 2377   3.245   6.332   7.237  0.0906 -0.0691  0.4634
   33CHL1    H6 2378   3.333   6.327   7.171 -0.1041 -0.7213  0.2556
   33CHL1    C7 2379   3.277   6.318   7.380  0.4178  0.5888  0.4983
   33CHL1   H7A 2380   3.373   6.264   7.392 -0.0352  0.2732  3.2308
   33CHL1   H7B 2381   3.286   6.422   7.416 -0.2139 -0.5805  4.4975
   33CHL1    C8 2382   3.162   6.261   7.465 -0.3421  0.5084 -0.1960
   33CHL1    H8 2383   3.155   6.150   7.462 -0.2104  0.4249  1.4869
   33CHL1   C14 2384   3.190   6.294   7.614 -0.8762  0.1787 -0.1615
   33CHL1   H14 2385   3.196   6.404   7.610  1.1033  0.0706 -1.7308
   33CHL1   C15 2386   3.324   6.255   7.674 -0.3651 -0.0131 -0.6300
   33CHL1  H15A 2387   3.354   6.152   7.645  2.8138  0.5897  0.1187
   33CHL1  H15B 2388   3.402   6.331   7.653 -0.2238  0.5671  1.7117
   33CHL1   C16 2389   3.299   6.268   7.831  0.0692 -0.2263  0.2717
   33CHL1  H16A 2390   3.323   6.172   7.882  2.3781  0.7093  1.0923
   33CHL1  H16B 2391   3.374   6.342   7.866  0.5961  0.1026 -1.4718
   33CHL1   C17 2392   3.149   6.300   7.847  0.0382 -0.7018  0.1004
   33CHL1   H17 2393   3.129   6.409   7.849 -0.1120 -0.7296  0.1483
   33CHL1   C13 2394   3.088   6.251   7.712  0.2527 -0.3363 -0.6168
   33CHL1   C18 2395   3.084   6.096   7.715 -0.6976 -0.6804 -0.0046
   33CHL1  H18A 2396   3.002   6.062   7.783 -3.4898 -0.2826 -2.9245
   33CHL1  H18B 2397   3.044   6.058   7.619 -2.2891  0.8728 -0.0122
   33CHL1  H18C 2398   3.185   6.059   7.741  0.0418  1.3436  0.0947
   33CHL1   C12 2399   2.953   6.312   7.679 -0.2716  0.2384 -0.2653
   33CHL1  H12A 2400   2.872   6.270   7.743  1.7150 -2.6461  0.5593
   33CHL1  H12B 2401   2.964   6.422   7.688 -1.8930  0.3877  0.2239
   33CHL1   C11 2402   2.916   6.287   7.532  0.6512 -0.2896 -0.2169
   33CHL1  H11A 2403   2.895   6.178   7.521  1.8324 -0.6578  0.8709
   33CHL1  H11B 2404   2.821   6.340   7.511  0.0856 -0.5737  1.4250
   33CHL1    C9 2405   3.027   6.319   7.428 -0.2422  0.0364  0.5522
   33CHL1    H9 2406   3.048   6.428   7.438 -0.6816  0.0112  1.8602
   33CHL1   C10 2407   2.994   6.294   7.275 -0.1104  0.2248 -0.0626
   33CHL1   C19 2408   2.935   6.151   7.263 -0.2789 -0.0143  0.1477
   33CHL1  H19A 2409   2.910   6.120   7.159 -1.0417 -0.6109  0.4952
   33CHL1  H19B 2410   3.000   6.075   7.311  0.4031  1.3041  1.4086
   33CHL1  H19C 2411   2.842   6.150   7.324  0.0397  1.1031  0.6804
   33CHL1    C1 2412   2.881   6.389   7.225  0.7245 -0.8737  0.2044
   33CHL1   H1A 2413   2.786   6.377   7.281 -0.5833 -0.7468 -1.8631
   33CHL1   H1B 2414   2.907   6.496   7.242  3.3588 -1.7622  2.3734
   33CHL1    C2 2415   2.847   6.377   7.075 -0.5206 -0.9875 -0.3603
   33CHL1   H2A 2416   2.771   6.454   7.052 -1.9453 -2.2530 -0.0046
   33CHL1   H2B 2417   2.788   6.286   7.054 -0.6759 -1.3947  1.6552
   33CHL1   C20 2418   3.088   6.248   7.986 -0.2356 -0.5436 -0.2833
   33CHL1   H20 2419   3.069   6.140   7.967 -4.1804  0.1794 -1.3531
   33CHL1   C21 2420   2.952   6.313   8.026 -0.2673 -0.2277  0.1015
   33CHL1  H21A 2421   2.868   6.309   7.953  0.5463  0.8344 -0.9362
   33CHL1  H21B 2422   2.968   6.422   8.039 -0.5635 -0.3620  1.8245
   33CHL1  H21C 2423   2.914   6.275   8.123 -0.3246 -0.6360 -0.0768
   33CHL1   C22 2424   3.187   6.263   8.106 -0.7892 -0.3185  0.1454
   33CHL1  H22A 2425   3.134   6.221   8.194 -2.9359  0.5423 -0.6776
   33CHL1  H22B 2426   3.278   6.200   8.097  0.7843  1.5218  2.1730
   33CHL1   C23 2427   3.225   6.407   8.148  0.4982 -0.4173 -0.0181
   33CHL1  H23A 2428   3.253   6.468   8.060 -0.6150 -1.4176 -1.1245
   33CHL1  H23B 2429   3.136   6.456   8.193  1.9466 -0.4745  3.1316
   33CHL1   C24 2430   3.338   6.414   8.258  0.3041  0.9432  0.0815
   33CHL1  H24A 2431   3.369   6.317   8.302 -1.4934 -0.3465 -1.3309
   33CHL1  H24B 2432   3.433   6.451   8.213  0.4013  1.5779  0.7943
   33CHL1   C25 2433   3.293   6.504   8.369 -0.4143 -0.1236  0.1230
   33CHL1   H25 2434   3.246   6.591   8.320 -0.4910 -1.0035 -1.4226
   33CHL1   C26 2435   3.185   6.442   8.454 -0.3157  0.1582 -0.2962
   33CHL1  H26A 2436   3.108   6.390   8.393 -2.3512  0.3325  1.9628
   33CHL1  H26B 2437   3.225   6.367   8.526 -3.0967 -0.4437  0.7517
   33CHL1  H26C 2438   3.119   6.521   8.497 -1.4392 -1.4754  1.1552
   33CHL1   C27 2439   3.416   6.532   8.449  0.1725 -0.1876 -0.7125
   33CHL1  H27A 2440   3.400   6.620   8.515 -0.8485  0.3287 -1.6223
   33CHL1  H27B 2441   3.448   6.449   8.516  0.5499  1.4018  1.1733
   33CHL1  H27C 2442   3.503   6.564   8.387  0.4467 -0.9137 -0.7202
   34CHL1    C3 2443   2.581   5.228   7.269 -0.6825  0.0862 -0.2447
   34CHL1    H3 2444   2.493   5.289   7.297 -0.1205  0.8443 -0.1042
   34CHL1    O3 2445   2.596   5.245   7.133  0.3046  0.3279 -0.1246
   34CHL1   H3' 2446   2.675   5.201   7.102  1.8793  2.1723  1.0589
   34CHL1    C4 2447   2.712   5.274   7.344  0.1756 -0.1895  0.0279
   34CHL1   H4A 2448   2.800   5.215   7.309 -0.7698 -0.6556 -1.6649
   34CHL1   H4B 2449   2.725   5.381   7.315  3.1139 -0.0854  1.3586
   34CHL1    C5 2450   2.687   5.259   7.496  0.1311  0.0049  0.0266
   34CHL1    C6 2451   2.700   5.368   7.569  0.4529 -0.6238 -0.0547
   34CHL1    H6 2452   2.745   5.463   7.538 -2.5458  1.1070  0.4942
   34CHL1    C7 2453   2.684   5.366   7.720  0.3491  0.4292 -0.2010
   34CHL1   H7A 2454   2.765   5.422   7.770 -2.0217  4.0495 -0.0226
   34CHL1   H7B 2455   2.590   5.416   7.752  0.7170  1.9394 -1.3562
   34CHL1    C8 2456   2.696   5.218   7.780 -0.7309 -0.2651 -0.4665
   34CHL1    H8 2457   2.803   5.191   7.768  0.2636  3.3497 -1.0746
   34CHL1   C14 2458   2.640   5.227   7.917 -0.3137 -0.0245  0.2538
   34CHL1   H14 2459   2.537   5.269   7.909  0.0685  0.6130 -2.1942
   34CHL1   C15 2460   2.723   5.315   8.014 -0.5667 -0.1893 -0.1154
   34CHL1  H15A 2461   2.829   5.291   7.994 -0.3073  0.5508  0.3531
   34CHL1  H15B 2462   2.718   5.425   8.005  1.7752  0.0007  0.3342
   34CHL1   C16 2463   2.678   5.259   8.149  0.7794 -0.5578  0.1271
   34CHL1  H16A 2464   2.769   5.229   8.206 -0.0884 -1.0299  1.3079
   34CHL1  H16B 2465   2.632   5.346   8.201 -2.2659 -0.9630 -1.6626
   34CHL1   C17 2466   2.591   5.130   8.129  0.2554 -0.3337 -0.1763
   34CHL1   H17 2467   2.488   5.170   8.113  0.9466  1.6860  0.0549
   34CHL1   C13 2468   2.632   5.089   7.987  0.5508  0.3381 -0.3829
   34CHL1   C18 2469   2.765   5.001   8.001  0.2344  0.2389  0.6046
   34CHL1  H18A 2470   2.843   5.039   8.070  1.3203  0.0408 -0.4778
   34CHL1  H18B 2471   2.726   4.900   8.026 -2.1485  0.9457 -0.0264
   34CHL1  H18C 2472   2.815   5.002   7.901 -2.3749 -0.6406 -0.8027
   34CHL1   C12 2473   2.529   5.008   7.911 -0.7075  0.1690  0.4841
   34CHL1  H12A 2474   2.521   4.905   7.952 -0.7585 -0.1988 -0.4120
   34CHL1  H12B 2475   2.427   5.052   7.908  0.3055  2.6750  0.2468
   34CHL1   C11 2476   2.572   4.994   7.762 -0.2190  0.8631  0.3088
   34CHL1  H11A 2477   2.660   4.926   7.756 -0.1339  1.0970 -1.7785
   34CHL1  H11B 2478   2.485   4.946   7.712  0.2896  1.7122 -1.4735
   34CHL1    C9 2479   2.602   5.130   7.696 -0.6020  0.0718  0.0764
   34CHL1    H9 2480   2.501   5.175   7.691 -0.7459 -0.3501 -3.1620
   34CHL1   C10 2481   2.646   5.121   7.544 -0.8774  0.5458 -0.4740
   34CHL1   C19 2482   2.772   5.032   7.537 -0.2307 -0.0674 -0.1661
   34CHL1  H19A 2483   2.828   5.041   7.442  1.0824 -2.1190  0.3694
   34CHL1  H19B 2484   2.852   5.059   7.609  0.0999  0.5745 -0.7696
   34CHL1  H19C 2485   2.744   4.925   7.537 -0.3101 -0.0739  1.6354
   34CHL1    C1 2486   2.529   5.067   7.458 -0.4779 -0.1642  0.1766
   34CHL1   H1A 2487   2.503   4.966   7.494 -3.0804  0.1922 -0.5017
   34CHL1   H1B 2488   2.440   5.130   7.478 -1.2625 -1.6631  1.5844
   34CHL1    C2 2489   2.557   5.077   7.314 -0.2385 -0.2516  0.0383
   34CHL1   H2A 2490   2.473   5.033   7.256 -1.8198 -0.6936  2.5394
   34CHL1   H2B 2491   2.644   5.012   7.291  0.0183 -0.3177  1.1633
   34CHL1   C20 2492   2.595   5.029   8.252  0.5018  0.2763  0.3408
   34CHL1   H20 2493   2.700   5.002   8.278  0.1279 -1.6354  0.0264
   34CHL1   C21 2494   2.509   4.899   8.228 -0.7572 -0.1397  0.5115
   34CHL1  H21A 2495   2.411   4.927   8.184 -0.4899 -4.2545 -3.4941
   34CHL1  H21B 2496   2.506   4.826   8.313  1.5243  1.2909  1.9380
   34CHL1  H21C 2497   2.560   4.836   8.151 -0.9780  0.6027 -0.2443
   34CHL1   C22 2498   2.531   5.099   8.375  0.1375 -0.3724 -0.2225
   34CHL1  H22A 2499   2.576   5.201   8.378  1.5365 -0.9883  0.6362
   34CHL1  H22B 2500   2.421   5.105   8.365 -0.1478 -2.9890  0.6739
   34CHL1   C23 2501   2.586   5.040   8.520  0.2986 -0.7263  0.5430
   34CHL1  H23A 2502   2.538   4.940   8.522 -1.6018  0.0937 -0.5523
   34CHL1  H23B 2503   2.695   5.026   8.508  0.5968  0.3034  1.7759
   34CHL1   C24 2504   2.552   5.112   8.648  0.8777  0.4654 -0.9445
   34CHL1  H24A 2505   2.583   5.058   8.740 -1.0237 -0.8070 -1.0023
   34CHL1  H24B 2506   2.614   5.204   8.660  3.5260 -1.2950 -0.1828
   34CHL1   C25 2507   2.401   5.136   8.669  0.3097 -0.7094  0.0422
   34CHL1   H25 2508   2.375   5.206   8.587  0.2439 -1.4158 -0.5486
   34CHL1   C26 2509   2.302   5.016   8.654  0.0297 -0.1342 -0.4653
   34CHL1  H26A 2510   2.357   4.929   8.699  2.2439  0.9950 -0.8612
   34CHL1  H26B 2511   2.210   5.027   8.715  1.0007 -0.6197  1.1788
   34CHL1  H26C 2512   2.277   4.993   8.548  0.9949 -0.0925 -0.7088
   34CHL1   C27 2513   2.385   5.199   8.804  0.1714  0.4017 -0.0447
   34CHL1  H27A 2514   2.280   5.231   8.820  0.0996  1.0792 -1.6745
   34CHL1  H27B 2515   2.422   5.128   8.881 -0.2412 -1.0599 -1.1557
   34CHL1  H27C 2516   2.452   5.287   8.818  2.8649 -1.1202 -2.1046
   35CHL1    C3 2517   0.722   0.220   7.069  0.5819 -0.2705  0.2124
   35CHL1    H3 2518   0.724   0.112   7.044 -3.5785 -0.3382 -0.6405
   35CHL1    O3 2519   0.683   0.282   6.948  0.3823 -0.0931  0.4605
   35CHL1   H3' 2520   0.692   0.377   6.945 -2.7438  0.3158  0.8761
   35CHL1    C4 2521   0.617   0.239   7.173  0.4108  0.4126  0.7513
   35CHL1   H4A 2522   0.600   0.346   7.193  0.9210  0.8221 -0.8538
   35CHL1   H4B 2523   0.525   0.207   7.120  2.4894 -0.5012 -2.5892
   35CHL1    C5 2524   0.662   0.169   7.304  0.1775  0.0265 -0.1500
   35CHL1    C6 2525   0.595   0.070   7.357  0.0391  0.2120 -0.2527
   35CHL1    H6 2526   0.499   0.038   7.313  0.9346 -1.8006 -0.8849
   35CHL1    C7 2527   0.632  -0.012   7.479  0.1434  0.9508  0.3953
   35CHL1   H7A 2528   0.547  -0.035   7.547 -2.1295 -0.8749 -2.7945
   35CHL1   H7B 2529   0.675  -0.112   7.462  1.3805  1.2427  1.6556
   35CHL1    C8 2530   0.732   0.074   7.558  0.4105 -0.0624 -0.1084
   35CHL1    H8 2531   0.672   0.163   7.588  1.2240  0.3269  0.4099
   35CHL1   C14 2532   0.773  -0.012   7.678  0.1983 -0.3182  1.1872
   35CHL1   H14 2533   0.823  -0.098   7.628  2.0489  0.9794  0.7128
   35CHL1   C15 2534   0.668  -0.069   7.776 -0.2999 -0.1496  0.8335
   35CHL1  H15A 2535   0.590   0.004   7.805  0.0538  0.7326 -0.3228
   35CHL1  H15B 2536   0.617  -0.160   7.737  0.9834 -0.2362 -0.7637
   35CHL1   C16 2537   0.750  -0.095   7.914 -0.3099  0.4653 -0.4877
   35CHL1  H16A 2538   0.707  -0.037   7.998  0.6552  0.9666 -0.3175
   35CHL1  H16B 2539   0.751  -0.201   7.947  0.8930  1.2358  2.2002
   35CHL1   C17 2540   0.892  -0.028   7.886  0.7032 -0.3896 -0.0831
   35CHL1   H17 2541   0.961  -0.109   7.854  0.0744 -1.5909  1.4388
   35CHL1   C13 2542   0.868   0.071   7.769 -0.1164  0.2068 -0.4196
   35CHL1   C18 2543   0.800   0.199   7.833  0.3836 -0.2418  0.4696
   35CHL1  H18A 2544   0.865   0.263   7.896 -0.3739  1.1368 -0.1027
   35CHL1  H18B 2545   0.761   0.257   7.747 -4.4886  1.7774  3.6416
   35CHL1  H18C 2546   0.711   0.177   7.896  0.1934 -2.4709 -0.4941
   35CHL1   C12 2547   0.996   0.110   7.688  1.1225  0.0245 -0.1280
   35CHL1  H12A 2548   1.061   0.173   7.753 -1.1881  4.8914 -2.0961
   35CHL1  H12B 2549   1.034   0.012   7.652 -2.7226 -0.9400 -2.1284
   35CHL1   C11 2550   0.961   0.197   7.563  0.3566 -0.2063 -0.8344
   35CHL1  H11A 2551   0.928   0.293   7.607  1.3762 -0.8375  1.4455
   35CHL1  H11B 2552   1.058   0.207   7.511  0.3318 -1.8306 -1.2483
   35CHL1    C9 2553   0.853   0.124   7.477  0.4207  0.3882 -0.6124
   35CHL1    H9 2554   0.888   0.031   7.427 -1.0201  0.6171 -2.1575
   35CHL1   C10 2555   0.796   0.213   7.357  0.0093 -0.0239 -0.0254
   35CHL1   C19 2556   0.778   0.359   7.403  0.1629 -0.1956  0.0819
   35CHL1  H19A 2557   0.873   0.415   7.419  0.4425 -1.2204  2.4362
   35CHL1  H19B 2558   0.710   0.423   7.343 -0.2850 -0.3405  0.4378
   35CHL1  H19C 2559   0.744   0.362   7.508 -1.0219  0.8364 -0.3099
   35CHL1    C1 2560   0.904   0.216   7.245 -0.2542  0.3401  0.1727
   35CHL1   H1A 2561   0.998   0.246   7.295  1.2300 -2.8977 -0.4321
   35CHL1   H1B 2562   0.925   0.109   7.221  2.1636  0.1993  2.5339
   35CHL1    C2 2563   0.851   0.275   7.109 -0.6654 -0.1368 -0.4968
   35CHL1   H2A 2564   0.929   0.258   7.032 -0.5874 -2.3883  0.0127
   35CHL1   H2B 2565   0.844   0.384   7.130 -0.7256 -0.2538  0.1000
   35CHL1   C20 2566   0.960   0.023   8.018  0.1339  0.4510  0.1816
   35CHL1   H20 2567   0.902   0.107   8.063 -1.3155 -0.3690 -0.0889
   35CHL1   C21 2568   1.100   0.077   7.998  0.4349  0.9422  0.6232
   35CHL1  H21A 2569   1.160  -0.010   7.963  0.0379  0.5940  0.8061
   35CHL1  H21B 2570   1.154   0.107   8.091  0.5038 -1.0825  1.2993
   35CHL1  H21C 2571   1.118   0.166   7.934 -0.5812  1.3119  0.8280
   35CHL1   C22 2572   0.972  -0.099   8.119 -0.1346  0.3163 -0.2327
   35CHL1  H22A 2573   0.868  -0.131   8.143  0.8846 -2.3081  1.0511
   35CHL1  H22B 2574   1.016  -0.183   8.062 -3.7333 -0.9988 -1.3091
   35CHL1   C23 2575   1.046  -0.066   8.247  0.5345 -0.5601 -0.1439
   35CHL1  H23A 2576   1.155  -0.046   8.233  0.6869 -0.2327  1.3441
   35CHL1  H23B 2577   0.995   0.018   8.299  1.0481 -1.7909  2.5081
   35CHL1   C24 2578   1.057  -0.184   8.347 -0.7313  0.2816  0.6371
   35CHL1  H24A 2579   0.960  -0.234   8.367 -2.6035  2.6647 -1.7601
   35CHL1  H24B 2580   1.124  -0.257   8.297 -0.5031  0.4038  0.7608
   35CHL1   C25 2581   1.132  -0.161   8.479 -0.0997 -0.1649 -0.1793
   35CHL1   H25 2582   1.233  -0.122   8.455 -0.0132 -0.5458 -0.4488
   35CHL1   C26 2583   1.078  -0.039   8.556  0.0635 -0.1560  0.2378
   35CHL1  H26A 2584   1.151  -0.024   8.638 -1.4491  1.9544  1.2896
   35CHL1  H26B 2585   1.075   0.052   8.493  1.2765 -0.5217 -0.3786
   35CHL1  H26C 2586   0.975  -0.063   8.590 -1.4720  2.9221 -1.7208
   35CHL1   C27 2587   1.146  -0.286   8.569  0.2446 -0.2102 -0.3462
   35CHL1  H27A 2588   1.229  -0.290   8.644 -0.6022 -0.3500  0.6052
   35CHL1  H27B 2589   1.151  -0.382   8.514  1.9458 -1.1823  1.3565
   35CHL1  H27C 2590   1.054  -0.282   8.631 -0.3709  2.9739 -1.3366
   36CHL1    C3 2591   6.747   0.358   7.132 -0.3087 -0.2404 -0.2870
   36CHL1    H3 2592   6.725   0.465   7.151 -0.1764  0.1696 -2.2328
   36CHL1    O3 2593   6.701   0.322   7.009 -1.0076  0.0533  0.0892
   36CHL1   H3' 2594   6.712   0.228   7.024  1.0425  0.1744 -0.4310
   36CHL1    C4 2595   6.895   0.327   7.130 -0.5181 -0.0266 -0.7347
   36CHL1   H4A 2596   6.922   0.221   7.114  1.3609  0.0554  1.3028
   36CHL1   H4B 2597   6.946   0.378   7.045  0.7328 -0.8045 -0.4759
   36CHL1    C5 2598   6.955   0.373   7.266 -0.7885 -0.2630 -0.0723
   36CHL1    C6 2599   7.070   0.453   7.277  0.6136 -0.4904  0.7503
   36CHL1    H6 2600   7.105   0.501   7.184  0.4286 -0.0822  0.8901
   36CHL1    C7 2601   7.141   0.475   7.410  0.4422 -0.0596  0.1283
   36CHL1   H7A 2602   7.251   0.469   7.398  0.3463  0.4228 -1.2748
   36CHL1   H7B 2603   7.116   0.579   7.441  1.0880  0.3093 -0.5440
   36CHL1    C8 2604   7.091   0.375   7.521 -0.5173 -1.1386  0.0275
   36CHL1    H8 2605   7.129   0.271   7.512 -1.5216 -1.5043 -0.0629
   36CHL1   C14 2606   7.136   0.429   7.657 -0.0933  0.7183 -0.5868
   36CHL1   H14 2607   7.103   0.535   7.659  0.8618  1.1717  4.3564
   36CHL1   C15 2608   7.286   0.461   7.688  0.2872  0.1409  0.8051
   36CHL1  H15A 2609   7.336   0.371   7.648 -0.1768  0.9174 -1.6983
   36CHL1  H15B 2610   7.314   0.554   7.634 -1.4563  0.3683  0.2251
   36CHL1   C16 2611   7.293   0.483   7.840 -0.1825 -0.2017 -0.3112
   36CHL1  H16A 2612   7.376   0.421   7.881  0.1491  1.4064  1.5760
   36CHL1  H16B 2613   7.313   0.591   7.856 -4.9565  1.1032 -1.3440
   36CHL1   C17 2614   7.153   0.448   7.894  0.5771  0.5547 -0.4063
   36CHL1   H17 2615   7.082   0.533   7.893 -1.4953 -0.9928  1.9924
   36CHL1   C13 2616   7.089   0.362   7.789  0.2599 -0.3379 -0.4470
   36CHL1   C18 2617   7.145   0.213   7.807  0.0646 -0.1091  0.1786
   36CHL1  H18A 2618   7.125   0.158   7.713  1.9743  0.4429 -0.5852
   36CHL1  H18B 2619   7.254   0.220   7.825  0.0866  4.8004 -0.2850
   36CHL1  H18C 2620   7.101   0.173   7.901 -2.2007 -0.3368 -0.9166
   36CHL1   C12 2621   6.935   0.362   7.782 -0.3734  0.2877  0.3531
   36CHL1  H12A 2622   6.897   0.305   7.869  1.3551  0.3594  1.1997
   36CHL1  H12B 2623   6.890   0.464   7.788  0.8110  0.7983  0.9696
   36CHL1   C11 2624   6.888   0.293   7.653  0.6632  0.5747  0.0169
   36CHL1  H11A 2625   6.913   0.185   7.648 -0.4223  0.2277  1.3913
   36CHL1  H11B 2626   6.777   0.294   7.663  0.7726  0.0882  1.6625
   36CHL1    C9 2627   6.937   0.370   7.521 -0.4857  0.5804 -0.5530
   36CHL1    H9 2628   6.907   0.477   7.524  3.5241  1.8693  0.0767
   36CHL1   C10 2629   6.885   0.304   7.388 -0.2558 -0.1386  0.1823
   36CHL1   C19 2630   6.920   0.154   7.382  0.5340 -0.3359 -0.0573
   36CHL1  H19A 2631   6.892   0.109   7.285  2.1729  0.3034 -0.8572
   36CHL1  H19B 2632   7.023   0.123   7.411 -0.4303 -1.1327  2.9424
   36CHL1  H19C 2633   6.854   0.109   7.459  0.4933 -0.0433  0.0794
   36CHL1    C1 2634   6.732   0.325   7.379  0.1245  0.4105 -0.0424
   36CHL1   H1A 2635   6.698   0.267   7.467  0.1231 -0.6778 -0.7381
   36CHL1   H1B 2636   6.703   0.430   7.399 -1.0027  0.2900 -0.9519
   36CHL1    C2 2637   6.672   0.283   7.244  0.5775  0.1327 -0.8671
   36CHL1   H2A 2638   6.566   0.313   7.231  0.5846 -0.1428 -1.5879
   36CHL1   H2B 2639   6.676   0.173   7.234 -1.5333 -0.1300  0.5968
   36CHL1   C20 2640   7.161   0.410   8.044 -0.7455  0.1266 -0.0398
   36CHL1   H20 2641   7.229   0.322   8.051  0.2323  0.9482  1.1336
   36CHL1   C21 2642   7.021   0.384   8.109  0.0567 -0.5199  0.1438
   36CHL1  H21A 2643   7.027   0.380   8.220 -0.1286 -2.4984  0.1203
   36CHL1  H21B 2644   6.989   0.283   8.076  1.3102 -1.0988  0.6281
   36CHL1  H21C 2645   6.946   0.460   8.080 -1.7598 -1.5103  1.9802
   36CHL1   C22 2646   7.231   0.526   8.116 -0.1097  0.7530 -0.0047
   36CHL1  H22A 2647   7.331   0.536   8.069  0.3852 -3.9186 -0.4206
   36CHL1  H22B 2648   7.169   0.616   8.100 -0.6881  0.0872 -1.8060
   36CHL1   C23 2649   7.275   0.504   8.259  0.1479  0.8825 -1.2426
   36CHL1  H23A 2650   7.306   0.597   8.310  0.8298  1.2916 -2.3632
   36CHL1  H23B 2651   7.197   0.457   8.323  2.7456 -0.7262  0.9707
   36CHL1   C24 2652   7.379   0.400   8.270  0.9520  0.1817 -0.0494
   36CHL1  H24A 2653   7.352   0.301   8.228  1.0575  1.2907 -2.9603
   36CHL1  H24B 2654   7.466   0.435   8.209 -0.0980  3.0890 -0.0128
   36CHL1   C25 2655   7.439   0.364   8.416  0.0150 -1.2092  0.2604
   36CHL1   H25 2656   7.357   0.346   8.489 -1.8544  1.1913 -1.0922
   36CHL1   C26 2657   7.540   0.245   8.403  0.1136 -0.3177  0.1532
   36CHL1  H26A 2658   7.584   0.200   8.495  0.8364  0.2577  0.0978
   36CHL1  H26B 2659   7.508   0.163   8.335  1.0893 -1.1417  0.6527
   36CHL1  H26C 2660   7.632   0.286   8.357  0.7699 -1.5097  0.3526
   36CHL1   C27 2661   7.519   0.486   8.471  0.7131  0.1946  0.4287
   36CHL1  H27A 2662   7.576   0.449   8.559  1.4835  0.6512  0.1327
   36CHL1  H27B 2663   7.591   0.525   8.396  0.6902 -0.0881  0.2565
   36CHL1  H27C 2664   7.446   0.563   8.505  1.1562  0.1368  1.5562
   37CHL1    C3 2665   4.775   1.691   6.894  0.8142 -0.4460  0.3060
   37CHL1    H3 2666   4.783   1.802   6.890  0.9214 -0.4831 -1.9210
   37CHL1    O3 2667   4.786   1.642   6.763 -0.6141 -0.2361 -0.3191
   37CHL1   H3' 2668   4.712   1.673   6.711 -1.0636 -0.3601  0.2312
   37CHL1    C4 2669   4.886   1.636   6.973  0.1210 -0.5654 -1.0589
   37CHL1   H4A 2670   4.905   1.528   6.951  2.0651 -0.4044 -0.2926
   37CHL1   H4B 2671   4.980   1.681   6.936  1.8112  0.2352  3.5900
   37CHL1    C5 2672   4.873   1.667   7.126 -0.1898 -0.7172 -0.8752
   37CHL1    C6 2673   4.978   1.736   7.190  0.3931  0.5721 -0.1123
   37CHL1    H6 2674   5.067   1.781   7.144  0.1348  2.1798  0.8891
   37CHL1    C7 2675   4.973   1.757   7.339  0.0835  0.0093 -0.2963
   37CHL1   H7A 2676   5.072   1.736   7.385  1.5128  3.5626 -1.4158
   37CHL1   H7B 2677   4.948   1.865   7.350 -2.2186 -0.4734 -0.3032
   37CHL1    C8 2678   4.861   1.676   7.413  0.4624  0.1617  0.6362
   37CHL1    H8 2679   4.885   1.568   7.411 -3.3330 -0.8488 -1.2210
   37CHL1   C14 2680   4.832   1.732   7.549  0.1640 -0.2046  0.2714
   37CHL1   H14 2681   4.799   1.837   7.537  3.2394  0.8958  0.6768
   37CHL1   C15 2682   4.957   1.753   7.636 -0.0094  0.0454 -0.2428
   37CHL1  H15A 2683   5.028   1.668   7.635  0.1039  0.1392 -0.1365
   37CHL1  H15B 2684   5.016   1.844   7.611 -0.9007  0.0396 -2.6344
   37CHL1   C16 2685   4.900   1.746   7.776 -0.5126  0.2108  0.7689
   37CHL1  H16A 2686   4.928   1.651   7.826 -2.1283  0.0408  1.4161
   37CHL1  H16B 2687   4.935   1.824   7.847  2.0596 -0.4949  0.3813
   37CHL1   C17 2688   4.742   1.742   7.767  0.0943  0.1279  1.1208
   37CHL1   H17 2689   4.714   1.848   7.750  0.2622  0.0003 -0.0621
   37CHL1   C13 2690   4.728   1.664   7.630  0.2374  1.3448 -0.0321
   37CHL1   C18 2691   4.755   1.510   7.641  0.4972  0.0265  0.0821
   37CHL1  H18A 2692   4.739   1.449   7.549  0.0374  0.4987 -0.1568
   37CHL1  H18B 2693   4.859   1.501   7.677  0.6224  0.5349 -0.1494
   37CHL1  H18C 2694   4.688   1.468   7.719 -0.5592 -1.9111 -1.7545
   37CHL1   C12 2695   4.598   1.687   7.549  0.9512 -0.4122 -0.3829
   37CHL1  H12A 2696   4.525   1.629   7.609  1.2495 -1.2380 -0.8059
   37CHL1  H12B 2697   4.570   1.793   7.565  0.5875 -0.1239 -2.6776
   37CHL1   C11 2698   4.602   1.641   7.405 -0.5011  0.1892  0.0731
   37CHL1  H11A 2699   4.578   1.532   7.405  1.3002 -0.2473  0.9720
   37CHL1  H11B 2700   4.520   1.697   7.354 -0.5164 -1.3679 -1.7348
   37CHL1    C9 2701   4.734   1.683   7.327  0.7809 -0.0846  0.0745
   37CHL1    H9 2702   4.716   1.792   7.309 -1.1124 -0.8652 -3.8669
   37CHL1   C10 2703   4.740   1.628   7.189  0.0079  0.0202  1.3401
   37CHL1   C19 2704   4.737   1.473   7.191 -0.7414 -0.0893  0.4616
   37CHL1  H19A 2705   4.630   1.447   7.211 -1.9058  4.4287  1.3628
   37CHL1  H19B 2706   4.761   1.436   7.090 -0.9658  3.3983 -1.0284
   37CHL1  H19C 2707   4.805   1.428   7.266  0.3544  0.5187 -0.1407
   37CHL1    C1 2708   4.623   1.682   7.099  0.4062  0.1505 -0.1046
   37CHL1   H1A 2709   4.521   1.661   7.136 -0.5690  0.8689 -2.2293
   37CHL1   H1B 2710   4.627   1.793   7.110 -3.3151  0.3510  0.4578
   37CHL1    C2 2711   4.638   1.645   6.947 -0.2228  0.3918 -0.7014
   37CHL1   H2A 2712   4.549   1.681   6.892 -0.7286 -0.8906 -0.7483
   37CHL1   H2B 2713   4.631   1.534   6.943  0.1604  0.3674 -4.9151
   37CHL1   C20 2714   4.670   1.684   7.894 -0.2778 -0.6433 -0.3255
   37CHL1   H20 2715   4.677   1.573   7.887  2.2029 -0.5115 -1.2451
   37CHL1   C21 2716   4.527   1.740   7.891 -0.4244 -0.2475  0.5697
   37CHL1  H21A 2717   4.537   1.850   7.906  0.6576  0.3204 -3.1936
   37CHL1  H21B 2718   4.464   1.705   7.975 -1.2164  0.4580  0.2862
   37CHL1  H21C 2719   4.474   1.733   7.794  1.0438  2.3033 -0.5282
   37CHL1   C22 2720   4.743   1.713   8.025 -0.0891 -0.2941  0.3782
   37CHL1  H22A 2721   4.833   1.649   8.010 -1.1792 -1.3532 -2.4817
   37CHL1  H22B 2722   4.771   1.820   8.025 -1.2317  0.0467 -1.3344
   37CHL1   C23 2723   4.665   1.692   8.157 -0.0622 -0.8153 -0.5290
   37CHL1  H23A 2724   4.728   1.721   8.243  1.6239 -1.9902 -1.3190
   37CHL1  H23B 2725   4.578   1.760   8.165  2.0257  2.2209 -1.8847
   37CHL1   C24 2726   4.621   1.549   8.167  0.9426 -0.2373  0.6973
   37CHL1  H24A 2727   4.555   1.535   8.079  0.7651  0.0034  0.7883
   37CHL1  H24B 2728   4.708   1.484   8.147  0.6960  0.0782 -1.7220
   37CHL1   C25 2729   4.545   1.512   8.299 -0.2138 -0.3037  0.0588
   37CHL1   H25 2730   4.451   1.569   8.309 -0.7582 -1.2357  0.3720
   37CHL1   C26 2731   4.507   1.359   8.292 -0.8291 -0.0322 -0.4678
   37CHL1  H26A 2732   4.448   1.328   8.381  0.0998  0.0118  0.1787
   37CHL1  H26B 2733   4.449   1.349   8.198 -0.6351  1.1778 -0.7399
   37CHL1  H26C 2734   4.594   1.291   8.279 -0.2166  0.8690 -1.2242
   37CHL1   C27 2735   4.620   1.536   8.430 -1.1689 -0.3885 -0.3891
   37CHL1  H27A 2736   4.574   1.486   8.518  0.5564 -0.5628  0.4622
   37CHL1  H27B 2737   4.723   1.496   8.416  0.0703  3.0523 -2.5692
   37CHL1  H27C 2738   4.631   1.643   8.460 -1.8354 -0.1539 -0.9710
   38CHL1    C3 2739   0.320   3.541   6.807  0.6424  0.1018 -0.3828
   38CHL1    H3 2740   0.251   3.625   6.828  1.0140  0.4718 -0.6429
   38CHL1    O3 2741   0.326   3.513   6.674  0.4502  0.5102  0.0479
   38CHL1   H3' 2742   0.233   3.505   6.650  0.6603 -0.2181 -0.5674
   38CHL1    C4 2743   0.460   3.559   6.857 -0.2075 -0.3995  0.1270
   38CHL1   H4A 2744   0.524   3.476   6.822  0.0263  0.4968 -1.7462
   38CHL1   H4B 2745   0.498   3.647   6.801  0.4625  0.0939  1.3236
   38CHL1    C5 2746   0.466   3.573   7.004  0.0079  1.2104  0.1640
   38CHL1    C6 2747   0.530   3.685   7.054 -0.2089 -0.6403 -0.6675
   38CHL1    H6 2748   0.585   3.760   6.996  0.5390  0.1989  1.0581
   38CHL1    C7 2749   0.542   3.715   7.200 -0.9271  1.2236  0.7805
   38CHL1   H7A 2750   0.646   3.746   7.227 -1.1378 -0.0152  3.2930
   38CHL1   H7B 2751   0.477   3.803   7.217 -0.0917  1.6732  1.8403
   38CHL1    C8 2752   0.499   3.598   7.286  0.2460  0.4464  0.2408
   38CHL1    H8 2753   0.579   3.521   7.286  1.1233  1.3176 -0.5983
   38CHL1   C14 2754   0.484   3.649   7.432  0.4116  0.0368 -0.4250
   38CHL1   H14 2755   0.401   3.723   7.430 -0.7426 -0.9895  2.6011
   38CHL1   C15 2756   0.591   3.726   7.510  0.3254  0.7462  0.7490
   38CHL1  H15A 2757   0.693   3.685   7.494 -0.4674 -0.3404 -2.1275
   38CHL1  H15B 2758   0.594   3.835   7.489 -0.1748  0.4948 -0.7595
   38CHL1   C16 2759   0.548   3.698   7.653  0.5492  0.0077 -0.4218
   38CHL1  H16A 2760   0.633   3.641   7.697  2.6011  1.7442 -1.9176
   38CHL1  H16B 2761   0.533   3.790   7.713 -0.6012 -0.7505  0.5063
   38CHL1   C17 2762   0.420   3.611   7.664 -0.2053  0.3716  0.2473
   38CHL1   H17 2763   0.334   3.679   7.648 -0.4006  0.3373  1.1369
   38CHL1   C13 2764   0.418   3.537   7.532 -0.3140  0.3490  0.1878
   38CHL1   C18 2765   0.511   3.422   7.540  0.1346  0.1983  0.2005
   38CHL1  H18A 2766   0.474   3.336   7.601  4.4199 -0.6165  1.9660
   38CHL1  H18B 2767   0.526   3.379   7.438  1.6169  0.3675  0.3317
   38CHL1  H18C 2768   0.607   3.448   7.588 -1.3479 -0.0693  3.5994
   38CHL1   C12 2769   0.279   3.499   7.470 -0.7626 -0.3746  0.0545
   38CHL1  H12A 2770   0.235   3.425   7.540 -0.2510 -0.3986  0.3512
   38CHL1  H12B 2771   0.219   3.591   7.454  0.3932  0.0900 -1.9707
   38CHL1   C11 2772   0.292   3.443   7.332 -0.3774 -0.1954 -0.8790
   38CHL1  H11A 2773   0.325   3.338   7.324 -1.1034 -0.4560 -0.5922
   38CHL1  H11B 2774   0.184   3.439   7.306 -0.0393  1.0802 -2.6911
   38CHL1    C9 2775   0.367   3.536   7.228  0.5381  0.2054  0.2017
   38CHL1    H9 2776   0.302   3.626   7.221  0.9168  0.3775 -1.9956
   38CHL1   C10 2777   0.386   3.469   7.088  0.2482 -0.1138 -0.8647
   38CHL1   C19 2778   0.476   3.347   7.091  0.2496 -0.5512 -0.7202
   38CHL1  H19A 2779   0.572   3.367   7.142  0.1134 -0.7966 -0.3647
   38CHL1  H19B 2780   0.429   3.266   7.150  1.6276 -0.3508  0.7074
   38CHL1  H19C 2781   0.485   3.309   6.987 -2.0845 -0.1481 -1.1377
   38CHL1    C1 2782   0.250   3.439   7.021  0.4370 -0.4231  0.1523
   38CHL1   H1A 2783   0.210   3.344   7.062  1.1946 -1.6621 -1.8581
   38CHL1   H1B 2784   0.185   3.527   7.040 -1.8736 -2.2035  1.0954
   38CHL1    C2 2785   0.254   3.413   6.872 -1.4131 -0.0674  0.4067
   38CHL1   H2A 2786   0.153   3.409   6.827 -0.8705  2.7872 -1.3735
   38CHL1   H2B 2787   0.309   3.320   6.847  2.4532  1.9063  0.7605
   38CHL1   C20 2788   0.408   3.539   7.799  0.1127 -0.0546  0.8220
   38CHL1   H20 2789   0.499   3.477   7.814  0.0127 -0.9202 -1.6959
   38CHL1   C21 2790   0.286   3.435   7.804 -0.0685 -0.2607 -0.4367
   38CHL1  H21A 2791   0.301   3.354   7.730  2.2890 -0.6469  0.3697
   38CHL1  H21B 2792   0.196   3.498   7.792  0.5079  0.6028 -0.3538
   38CHL1  H21C 2793   0.288   3.403   7.911  1.9558  0.7344 -0.1200
   38CHL1   C22 2794   0.410   3.632   7.924  0.1346 -0.9398  0.0652
   38CHL1  H22A 2795   0.421   3.567   8.013 -0.0215  1.4543  1.9352
   38CHL1  H22B 2796   0.504   3.689   7.908 -0.4470 -0.3174 -1.3839
   38CHL1   C23 2797   0.297   3.740   7.926  0.2681  0.4393 -0.6341
   38CHL1  H23A 2798   0.293   3.793   7.829  1.1741 -0.0429 -0.9490
   38CHL1  H23B 2799   0.198   3.690   7.928 -0.2502  1.4584  0.8260
   38CHL1   C24 2800   0.297   3.823   8.061  0.4468  0.7188 -0.2025
   38CHL1  H24A 2801   0.295   3.759   8.151  0.0076 -1.8018 -1.9086
   38CHL1  H24B 2802   0.387   3.887   8.056  1.4228 -0.5533  0.5817
   38CHL1   C25 2803   0.165   3.909   8.068  0.0204 -0.3985 -0.1416
   38CHL1   H25 2804   0.151   3.941   7.963  0.9007 -1.0917 -0.4786
   38CHL1   C26 2805   0.042   3.829   8.108  0.5712  0.7033 -0.3672
   38CHL1  H26A 2806   0.059   3.776   8.205  2.4680 -0.6216 -1.3742
   38CHL1  H26B 2807  -0.043   3.898   8.128 -1.4377 -2.2204  2.0882
   38CHL1  H26C 2808   0.006   3.755   8.034  0.0966 -1.1092  1.5577
   38CHL1   C27 2809   0.187   4.031   8.161  1.1160  0.3849  0.6441
   38CHL1  H27A 2810   0.089   4.082   8.172 -0.5912 -2.7838  1.2826
   38CHL1  H27B 2811   0.212   3.995   8.264  1.2929  0.6916  0.7111
   38CHL1  H27C 2812   0.266   4.105   8.135  3.9211 -2.4147  0.5869
   39CHL1    C3 2813   0.679   2.564   6.876  0.2475 -0.9300 -0.4304
   39CHL1    H3 2814   0.691   2.455   6.894 -2.6906 -1.3671 -0.5647
   39CHL1    O3 2815   0.663   2.590   6.734 -1.0346  0.1845  0.0606
   39CHL1   H3' 2816   0.720   2.665   6.718  1.6607 -1.7341  0.0934
   39CHL1    C4 2817   0.554   2.615   6.953 -0.0617  0.7222 -0.4536
   39CHL1   H4A 2818   0.538   2.721   6.927 -1.3080  0.6826  0.0835
   39CHL1   H4B 2819   0.471   2.548   6.923  1.2834 -1.3897  0.2489
   39CHL1    C5 2820   0.567   2.591   7.111 -0.3054  0.4379  1.0796
   39CHL1    C6 2821   0.486   2.500   7.175  0.2923  0.2549  0.3798
   39CHL1    H6 2822   0.394   2.461   7.130 -0.6197  1.0941  1.4408
   39CHL1    C7 2823   0.500   2.475   7.324 -0.3028  0.4818 -0.2374
   39CHL1   H7A 2824   0.403   2.489   7.376 -0.3460  1.8711 -0.6543
   39CHL1   H7B 2825   0.535   2.369   7.333  1.6348  1.0690 -0.3339
   39CHL1    C8 2826   0.596   2.574   7.391 -0.7053 -0.2854  0.9838
   39CHL1    H8 2827   0.542   2.671   7.400  1.9276  1.3123  0.6492
   39CHL1   C14 2828   0.633   2.535   7.531 -0.0091  0.1690  0.3128
   39CHL1   H14 2829   0.686   2.438   7.528  0.2983  0.3248  0.6700
   39CHL1   C15 2830   0.516   2.511   7.623  0.1513  0.3939  0.2566
   39CHL1  H15A 2831   0.447   2.597   7.631  1.0228  1.1414 -0.0592
   39CHL1  H15B 2832   0.467   2.417   7.589  1.6857  0.2447 -1.7240
   39CHL1   C16 2833   0.584   2.502   7.765  0.5525 -0.4111  0.1216
   39CHL1  H16A 2834   0.527   2.554   7.844 -2.5604 -1.8949 -0.9892
   39CHL1  H16B 2835   0.600   2.398   7.801  0.2189  0.6293  3.5984
   39CHL1   C17 2836   0.731   2.562   7.752 -0.0033 -0.1962 -0.0480
   39CHL1   H17 2837   0.800   2.476   7.753 -0.7810 -0.8380 -0.3521
   39CHL1   C13 2838   0.730   2.625   7.607 -0.3151 -0.4732 -0.6655
   39CHL1   C18 2839   0.657   2.761   7.613  0.2703  0.7286 -0.2625
   39CHL1  H18A 2840   0.646   2.804   7.511 -0.7825  1.5104  0.1592
   39CHL1  H18B 2841   0.559   2.775   7.664  0.4824  2.5522 -0.2783
   39CHL1  H18C 2842   0.718   2.843   7.658  0.9826  0.2057 -0.2696
   39CHL1   C12 2843   0.859   2.632   7.527  0.0688 -0.9063  0.2010
   39CHL1  H12A 2844   0.925   2.714   7.561 -0.5567  0.3974 -1.5544
   39CHL1  H12B 2845   0.905   2.532   7.539 -0.1806 -0.9364  0.9583
   39CHL1   C11 2846   0.835   2.679   7.376 -0.0079  0.3552  0.2988
   39CHL1  H11A 2847   0.817   2.789   7.381  1.8640  0.7211 -0.1071
   39CHL1  H11B 2848   0.930   2.680   7.319 -1.2550  2.5990 -1.9306
   39CHL1    C9 2849   0.726   2.600   7.303  0.3940 -1.1359 -0.4277
   39CHL1    H9 2850   0.766   2.497   7.301 -1.9610 -2.2777  3.0620
   39CHL1   C10 2851   0.702   2.654   7.165  0.2151 -0.7074  0.1137
   39CHL1   C19 2852   0.682   2.806   7.169  0.7119 -0.5181 -0.5667
   39CHL1  H19A 2853   0.640   2.852   7.077 -2.8571  0.5151  1.3886
   39CHL1  H19B 2854   0.609   2.827   7.251  1.6829  1.3039 -0.1196
   39CHL1  H19C 2855   0.779   2.853   7.196  0.5844 -0.3644 -0.3703
   39CHL1    C1 2856   0.820   2.622   7.072 -0.4949 -0.2500  0.7880
   39CHL1   H1A 2857   0.906   2.689   7.094 -0.8825  1.2780 -1.8610
   39CHL1   H1B 2858   0.857   2.518   7.089 -0.7344 -0.7175 -1.2846
   39CHL1    C2 2859   0.795   2.645   6.926 -0.2422  0.4200  1.1092
   39CHL1   H2A 2860   0.884   2.611   6.869 -1.5285 -1.0091 -0.1512
   39CHL1   H2B 2861   0.777   2.749   6.890 -0.4173 -0.1450 -0.5517
   39CHL1   C20 2862   0.770   2.662   7.874 -0.3972  0.1551 -0.0500
   39CHL1   H20 2863   0.709   2.754   7.864 -1.2437 -0.5972 -2.4972
   39CHL1   C21 2864   0.929   2.695   7.868  0.4561  0.1986  0.7237
   39CHL1  H21A 2865   0.960   2.743   7.963  1.0044  2.7381 -0.6715
   39CHL1  H21B 2866   0.943   2.761   7.781 -0.1940 -1.3059 -0.5736
   39CHL1  H21C 2867   0.976   2.598   7.841 -1.2695  0.2405 -2.9276
   39CHL1   C22 2868   0.751   2.602   8.016 -0.2302 -0.3994  0.1990
   39CHL1  H22A 2869   0.658   2.541   8.010 -0.7588  0.4995 -1.0031
   39CHL1  H22B 2870   0.839   2.535   8.028 -0.1395 -0.2644  0.2887
   39CHL1   C23 2871   0.753   2.710   8.121  0.1996  0.1050 -0.7450
   39CHL1  H23A 2872   0.856   2.731   8.156 -0.3383  0.1924  0.8984
   39CHL1  H23B 2873   0.705   2.805   8.091  1.0952  0.5562 -0.7841
   39CHL1   C24 2874   0.669   2.653   8.238  0.0456  0.3312 -0.2236
   39CHL1  H24A 2875   0.566   2.642   8.199 -0.7077 -0.2332  1.8073
   39CHL1  H24B 2876   0.704   2.554   8.273 -0.4548  0.9679  2.3040
   39CHL1   C25 2877   0.664   2.738   8.367 -0.2682 -0.0465 -0.1994
   39CHL1   H25 2878   0.764   2.738   8.417  0.6339  0.2280 -1.9242
   39CHL1   C26 2879   0.641   2.890   8.322  0.3545 -0.8161  0.2084
   39CHL1  H26A 2880   0.561   2.903   8.246  1.1165 -0.2446 -0.5171
   39CHL1  H26B 2881   0.620   2.943   8.418  1.8214 -0.2901  0.2706
   39CHL1  H26C 2882   0.737   2.934   8.287 -0.5440 -0.5289 -2.0861
   39CHL1   C27 2883   0.551   2.701   8.467  0.3446  1.2436 -0.8880
   39CHL1  H27A 2884   0.459   2.671   8.413  0.5895  1.3062 -1.3498
   39CHL1  H27B 2885   0.586   2.611   8.522  0.1722  1.2722 -0.7308
   39CHL1  H27C 2886   0.540   2.782   8.542  1.3844  1.0871 -0.5506
   40CHL1    C3 2887   2.245   6.645   6.902 -0.2770  0.7476 -0.4951
   40CHL1    H3 2888   2.294   6.546   6.894  2.5753  1.8954  1.2231
   40CHL1    O3 2889   2.189   6.677   6.778  0.5047  0.0276  0.2962
   40CHL1   H3' 2890   2.159   6.768   6.783  0.4992  0.1121 -0.9811
   40CHL1    C4 2891   2.133   6.659   7.009 -0.4010 -0.2173 -0.7630
   40CHL1   H4A 2892   2.102   6.765   7.002  0.7385  0.2798  1.0635
   40CHL1   H4B 2893   2.051   6.591   6.978  1.4630 -2.6999 -0.6570
   40CHL1    C5 2894   2.181   6.638   7.149  0.2677 -0.0048 -0.4194
   40CHL1    C6 2895   2.108   6.561   7.235  0.2551  0.2161  0.6595
   40CHL1    H6 2896   2.016   6.515   7.196 -1.0430  1.5555  1.9851
   40CHL1    C7 2897   2.143   6.532   7.375 -0.6181 -1.0765 -0.0988
   40CHL1   H7A 2898   2.059   6.555   7.443  0.6665  0.8811  0.9277
   40CHL1   H7B 2899   2.166   6.423   7.376 -0.3668 -1.0220  0.7354
   40CHL1    C8 2900   2.261   6.618   7.427 -0.0927  0.2249 -0.2762
   40CHL1    H8 2901   2.220   6.718   7.454  1.3579  0.9926 -0.7655
   40CHL1   C14 2902   2.319   6.569   7.559  0.2260  0.1314  0.1845
   40CHL1   H14 2903   2.360   6.469   7.534 -0.7352 -0.4166  0.7211
   40CHL1   C15 2904   2.225   6.544   7.676  0.5338  0.2357 -0.3409
   40CHL1  H15A 2905   2.146   6.622   7.682 -1.0886 -1.4463  2.2342
   40CHL1  H15B 2906   2.184   6.441   7.672 -0.3812  0.4134  2.3348
   40CHL1   C16 2907   2.319   6.543   7.798  0.4500 -0.6170 -0.3008
   40CHL1  H16A 2908   2.298   6.622   7.874  0.8008 -1.6169  0.8819
   40CHL1  H16B 2909   2.311   6.449   7.858  1.1129 -2.5790 -3.1059
   40CHL1   C17 2910   2.459   6.569   7.745 -0.7010 -0.2496 -0.2519
   40CHL1   H17 2911   2.497   6.472   7.707 -0.1416 -0.3916  0.6434
   40CHL1   C13 2912   2.433   6.651   7.614  0.3360  0.2565  0.1824
   40CHL1   C18 2913   2.390   6.794   7.649  0.9638  0.4932  0.5074
   40CHL1  H18A 2914   2.477   6.863   7.651  3.8343 -2.8215  0.5508
   40CHL1  H18B 2915   2.320   6.853   7.588  0.6994  1.3233  1.5789
   40CHL1  H18C 2916   2.346   6.796   7.751 -0.5226 -1.4076 -0.0328
   40CHL1   C12 2917   2.550   6.662   7.516 -0.8002 -0.0240 -0.6291
   40CHL1  H12A 2918   2.630   6.730   7.554  0.5653 -2.3794  0.9221
   40CHL1  H12B 2919   2.594   6.562   7.497 -1.6417 -0.5590  0.2349
   40CHL1   C11 2920   2.508   6.709   7.379 -0.8653 -0.5086 -0.0935
   40CHL1  H11A 2921   2.473   6.814   7.389 -2.8835 -1.0113 -1.2783
   40CHL1  H11B 2922   2.589   6.693   7.304 -2.5235  0.6675 -2.2463
   40CHL1    C9 2923   2.379   6.635   7.328  0.8813 -0.6869  0.1363
   40CHL1    H9 2924   2.410   6.532   7.301  1.8424 -0.6770  1.1552
   40CHL1   C10 2925   2.313   6.701   7.198  0.0710  0.4443  0.3961
   40CHL1   C19 2926   2.273   6.845   7.226  0.1694  0.0093 -0.0848
   40CHL1  H19A 2927   2.188   6.846   7.298  1.4040 -1.4355  1.4551
   40CHL1  H19B 2928   2.357   6.904   7.267 -0.3658 -1.2020  3.0065
   40CHL1  H19C 2929   2.241   6.908   7.140  0.2499  0.3167  0.1099
   40CHL1    C1 2930   2.417   6.697   7.074  0.6673 -0.3189 -0.4037
   40CHL1   H1A 2931   2.498   6.770   7.099  1.2168 -0.6693 -1.1055
   40CHL1   H1B 2932   2.467   6.598   7.075 -0.4291 -0.9292  2.0204
   40CHL1    C2 2933   2.367   6.732   6.933  0.1938  0.3712  0.3639
   40CHL1   H2A 2934   2.432   6.714   6.845  0.2779  1.1843  0.2466
   40CHL1   H2B 2935   2.349   6.842   6.936  0.4196  0.4226 -0.1514
   40CHL1   C20 2936   2.565   6.630   7.846  0.1296 -0.0841 -0.1896
   40CHL1   H20 2937   2.578   6.739   7.860  2.5161 -0.4261  0.7111
   40CHL1   C21 2938   2.699   6.578   7.803  0.1908  0.3191  0.8679
   40CHL1  H21A 2939   2.717   6.580   7.693  1.1598 -0.7997  0.9887
   40CHL1  H21B 2940   2.705   6.470   7.830 -0.9218 -0.7432 -2.6030
   40CHL1  H21C 2941   2.782   6.631   7.855  1.0442  1.5048 -1.5559
   40CHL1   C22 2942   2.544   6.582   7.988  0.0649  0.1397 -0.0236
   40CHL1  H22A 2943   2.444   6.615   8.023 -0.5074 -2.9083  1.5922
   40CHL1  H22B 2944   2.537   6.471   7.989  0.1157  0.1415  0.9971
   40CHL1   C23 2945   2.642   6.639   8.098 -0.1434  1.0543  0.9519
   40CHL1  H23A 2946   2.745   6.602   8.082 -0.3734  0.3679  1.0016
   40CHL1  H23B 2947   2.645   6.750   8.088  3.0855  1.1346  1.7225
   40CHL1   C24 2948   2.588   6.595   8.231  0.1239 -0.4603  0.0970
   40CHL1  H24A 2949   2.481   6.625   8.242 -0.1186  0.1002 -2.8311
   40CHL1  H24B 2950   2.574   6.485   8.239 -1.0998 -0.3924 -0.7817
   40CHL1   C25 2951   2.650   6.639   8.365  0.1672 -0.5168  1.0156
   40CHL1   H25 2952   2.580   6.596   8.440 -1.6027  0.0386 -0.2633
   40CHL1   C26 2953   2.786   6.578   8.382  0.4197  0.4732 -0.1705
   40CHL1  H26A 2954   2.824   6.579   8.487  3.9150 -0.6328 -1.2780
   40CHL1  H26B 2955   2.783   6.469   8.363 -1.0553  0.4465  0.0837
   40CHL1  H26C 2956   2.866   6.624   8.320 -0.1629  1.7056 -0.0535
   40CHL1   C27 2957   2.649   6.795   8.382 -0.2623  0.1587  0.0445
   40CHL1  H27A 2958   2.708   6.822   8.471  1.6456 -2.9918 -0.1129
   40CHL1  H27B 2959   2.705   6.844   8.299  0.5273  0.2223  0.6141
   40CHL1  H27C 2960   2.542   6.827   8.381 -0.5784 -0.6903 -2.7900
   41CHL1    C3 2961   3.171   0.390   6.937  0.4469  0.2996  0.6699
   41CHL1    H3 2962   3.100   0.305   6.946  1.6263 -0.8571 -0.4711
   41CHL1    O3 2963   3.187   0.409   6.792 -0.4141  0.2021  0.3342
   41CHL1   H3' 2964   3.243   0.487   6.788 -1.9572  1.3536  0.3961
   41CHL1    C4 2965   3.112   0.510   6.997 -0.3834 -0.1042 -0.6231
   41CHL1   H4A 2966   3.173   0.598   6.967 -2.3812  2.2868  1.8307
   41CHL1   H4B 2967   3.008   0.529   6.962 -0.2288  3.6323  0.5179
   41CHL1    C5 2968   3.107   0.512   7.146  0.3964  0.6397  0.1039
   41CHL1    C6 2969   3.001   0.548   7.213  0.5370  0.5329 -0.3073
   41CHL1    H6 2970   2.912   0.572   7.154  0.1126 -0.1309  0.0518
   41CHL1    C7 2971   2.993   0.551   7.363  0.4481  0.7263 -0.2132
   41CHL1   H7A 2972   2.954   0.649   7.399  0.3046  0.7257 -0.3674
   41CHL1   H7B 2973   2.925   0.475   7.407  0.1470  1.1141  0.0072
   41CHL1    C8 2974   3.137   0.544   7.435 -0.5479  0.7692  1.2001
   41CHL1    H8 2975   3.181   0.645   7.424 -0.4553  0.4903 -1.4227
   41CHL1   C14 2976   3.117   0.505   7.583 -0.0379  0.2909  0.2789
   41CHL1   H14 2977   3.071   0.403   7.580 -1.1256  0.7724 -1.8783
   41CHL1   C15 2978   3.027   0.590   7.662  0.4028 -0.0044 -0.6660
   41CHL1  H15A 2979   3.057   0.697   7.653  0.2846  0.3076  1.9025
   41CHL1  H15B 2980   2.918   0.581   7.643  0.4297 -1.5870 -0.2293
   41CHL1   C16 2981   3.054   0.556   7.817 -0.2446  0.6366  0.8209
   41CHL1  H16A 2982   3.102   0.643   7.865 -0.1067  1.4031 -0.6436
   41CHL1  H16B 2983   2.974   0.512   7.882  1.0746 -0.2844  1.8723
   41CHL1   C17 2984   3.174   0.453   7.809  0.1344  0.0673  0.1392
   41CHL1   H17 2985   3.131   0.351   7.808 -1.7482  0.7277 -3.6679
   41CHL1   C13 2986   3.238   0.495   7.671  0.1478  0.0668 -0.5985
   41CHL1   C18 2987   3.313   0.632   7.686 -0.9943 -0.2003 -0.0812
   41CHL1  H18A 2988   3.348   0.674   7.589 -1.2799 -0.1822 -0.1787
   41CHL1  H18B 2989   3.261   0.714   7.740  0.3503  1.7578 -1.5638
   41CHL1  H18C 2990   3.406   0.623   7.745 -0.2307 -1.3129 -1.3999
   41CHL1   C12 2991   3.340   0.394   7.611  0.5129 -0.3193 -0.5413
   41CHL1  H12A 2992   3.441   0.391   7.657  0.7321 -0.3638 -1.0098
   41CHL1  H12B 2993   3.308   0.288   7.613  0.6988 -0.3786 -0.6697
   41CHL1   C11 2994   3.360   0.428   7.461 -0.1862  0.2425  0.1929
   41CHL1  H11A 2995   3.406   0.529   7.461 -1.7468  0.9932 -1.2014
   41CHL1  H11B 2996   3.417   0.350   7.406 -2.2956 -1.0743 -0.2635
   41CHL1    C9 2997   3.228   0.438   7.371  0.0494 -0.1563  0.3104
   41CHL1    H9 2998   3.174   0.341   7.377  1.2888 -0.9353 -0.5464
   41CHL1   C10 2999   3.244   0.471   7.219  0.0484 -0.2561  0.0634
   41CHL1   C19 3000   3.339   0.589   7.210 -0.6092  0.0405  0.6548
   41CHL1  H19A 3001   3.314   0.679   7.271  0.6765  0.4335  0.6272
   41CHL1  H19B 3002   3.443   0.572   7.244 -0.0821  0.7583 -0.5253
   41CHL1  H19C 3003   3.345   0.639   7.111  2.1588 -0.8786  0.2920
   41CHL1    C1 3004   3.301   0.347   7.145 -0.2472  0.5528  0.0236
   41CHL1   H1A 3005   3.400   0.310   7.178 -1.5484 -1.9139  1.5236
   41CHL1   H1B 3006   3.243   0.253   7.159 -1.3617  0.4220 -4.1362
   41CHL1    C2 3007   3.308   0.363   6.992  0.5572  0.2841 -0.2495
   41CHL1   H2A 3008   3.346   0.267   6.951  0.3574  0.0754  0.0487
   41CHL1   H2B 3009   3.386   0.437   6.967 -0.5590  1.2155 -1.0670
   41CHL1   C20 3010   3.259   0.452   7.939  0.2348  0.0962  0.0881
   41CHL1   H20 3011   3.315   0.548   7.941 -0.4821  0.5413  3.2128
   41CHL1   C21 3012   3.364   0.336   7.936 -0.0483 -0.3468 -0.2786
   41CHL1  H21A 3013   3.449   0.346   7.865  0.4875 -1.2691  0.2130
   41CHL1  H21B 3014   3.314   0.238   7.924  0.0769 -0.2485 -1.8466
   41CHL1  H21C 3015   3.411   0.337   8.037  2.2886  1.5873 -1.2687
   41CHL1   C22 3016   3.177   0.455   8.068 -0.4690  0.0054  0.6446
   41CHL1  H22A 3017   3.095   0.530   8.068 -0.0660  0.4515 -0.2143
   41CHL1  H22B 3018   3.140   0.350   8.079  1.6808 -1.3476 -3.1939
   41CHL1   C23 3019   3.253   0.495   8.192 -0.1415  0.1016 -0.4915
   41CHL1  H23A 3020   3.346   0.436   8.205  0.8487  1.8338  0.7736
   41CHL1  H23B 3021   3.288   0.598   8.176  0.6326  0.7375  3.9028
   41CHL1   C24 3022   3.172   0.473   8.322 -0.4051 -0.3345  0.3989
   41CHL1  H24A 3023   3.084   0.541   8.322 -1.0678 -1.0539 -2.5525
   41CHL1  H24B 3024   3.131   0.370   8.331 -1.8438  0.0815 -1.0225
   41CHL1   C25 3025   3.263   0.489   8.444  0.1465  0.6428  0.5714
   41CHL1   H25 3026   3.342   0.411   8.442 -0.6264 -0.1869  1.1404
   41CHL1   C26 3027   3.323   0.630   8.442  0.0558  0.2633  0.4581
   41CHL1  H26A 3028   3.404   0.644   8.367 -0.0921 -0.8576  0.0663
   41CHL1  H26B 3029   3.247   0.711   8.446  1.8197  1.9331  2.3996
   41CHL1  H26C 3030   3.361   0.634   8.546  0.3582  1.0825  0.3271
   41CHL1   C27 3031   3.180   0.470   8.573  0.2425 -0.5827  0.8021
   41CHL1  H27A 3032   3.106   0.551   8.561 -0.6475 -1.5574 -0.6033
   41CHL1  H27B 3033   3.110   0.384   8.568  0.7229 -1.0216  1.4334
   41CHL1  H27C 3034   3.241   0.466   8.666  1.0848 -1.5581  0.2423
   42CHL1    C3 3035   5.108   5.391   7.044  0.2672  0.7601  0.8395
   42CHL1    H3 3036   5.129   5.488   7.094 -2.5030  1.2303  1.2867
   42CHL1    O3 3037   5.130   5.394   6.904  0.4628  0.4685  0.1359
   42CHL1   H3' 3038   5.202   5.454   6.886 -0.2955  0.9044 -1.6412
   42CHL1    C4 3039   5.218   5.294   7.107  0.0285  0.4233 -0.2018
   42CHL1   H4A 3040   5.212   5.200   7.049  0.8971  0.0632  0.2683
   42CHL1   H4B 3041   5.312   5.342   7.071 -0.8382  2.4144  0.0579
   42CHL1    C5 3042   5.194   5.271   7.256 -0.1303 -0.6532  0.4400
   42CHL1    C6 3043   5.293   5.290   7.340 -0.3530 -0.2155 -0.2228
   42CHL1    H6 3044   5.396   5.315   7.309  0.1791 -0.6302  1.1287
   42CHL1    C7 3045   5.285   5.253   7.484  0.5642  0.6534  0.4854
   42CHL1   H7A 3046   5.367   5.182   7.509  1.2057  0.4557 -1.8813
   42CHL1   H7B 3047   5.310   5.344   7.542  0.5235  0.0062  1.5316
   42CHL1    C8 3048   5.145   5.191   7.526  0.5477 -0.0093  0.4582
   42CHL1    H8 3049   5.136   5.082   7.507 -1.0394 -0.0497  1.2764
   42CHL1   C14 3050   5.133   5.213   7.681  0.3250  0.2246  0.6406
   42CHL1   H14 3051   5.132   5.323   7.693 -0.6151  0.3266 -0.1887
   42CHL1   C15 3052   5.238   5.161   7.775  0.4570 -0.3729 -0.0237
   42CHL1  H15A 3053   5.256   5.052   7.763 -2.4757 -1.1107  1.2223
   42CHL1  H15B 3054   5.331   5.219   7.764 -0.4694  1.0053 -0.9821
   42CHL1   C16 3055   5.169   5.171   7.921 -0.2860 -0.1076  0.2825
   42CHL1  H16A 3056   5.161   5.067   7.961 -0.5136  0.7445  2.6544
   42CHL1  H16B 3057   5.226   5.237   7.990 -0.8455  1.0509 -0.3496
   42CHL1   C17 3058   5.027   5.225   7.893  1.1812  0.1082  0.1082
   42CHL1   H17 3059   5.034   5.336   7.892 -0.8236  0.2705 -0.2458
   42CHL1   C13 3060   4.994   5.184   7.744  0.6345 -0.4386  0.6262
   42CHL1   C18 3061   4.968   5.034   7.737 -0.0046  0.7704  0.1888
   42CHL1  H18A 3062   4.875   5.002   7.789  0.7910  0.3744  1.4177
   42CHL1  H18B 3063   4.960   5.000   7.632  0.9880  2.6137 -0.5343
   42CHL1  H18C 3064   5.054   4.978   7.779 -1.7912 -0.7149  2.0248
   42CHL1   C12 3065   4.886   5.251   7.666 -0.0776 -0.5845 -0.1054
   42CHL1  H12A 3066   4.784   5.220   7.696  0.2504 -1.3429  0.2687
   42CHL1  H12B 3067   4.902   5.358   7.690 -0.9852 -0.0859 -1.5852
   42CHL1   C11 3068   4.891   5.230   7.511  0.0770 -0.3065  0.6346
   42CHL1  H11A 3069   4.868   5.124   7.486 -0.5592  0.2502 -1.3007
   42CHL1  H11B 3070   4.809   5.297   7.479 -0.3155 -0.0525  2.1120
   42CHL1    C9 3071   5.031   5.262   7.454  0.0333 -0.2292 -0.0336
   42CHL1    H9 3072   5.056   5.369   7.468 -1.3862  0.1112  0.1010
   42CHL1   C10 3073   5.045   5.238   7.303 -0.4054 -0.3166  1.1032
   42CHL1   C19 3074   5.018   5.092   7.273  0.8635  0.2294 -0.0650
   42CHL1  H19A 3075   5.017   5.079   7.163  2.0061 -0.3718 -0.0248
   42CHL1  H19B 3076   5.098   5.021   7.305  1.2327  0.4531 -0.4775
   42CHL1  H19C 3077   4.927   5.057   7.326  1.0720 -0.8786 -0.4172
   42CHL1    C1 3078   4.936   5.326   7.228  0.7273 -0.0778  0.4513
   42CHL1   H1A 3079   4.833   5.287   7.239  0.1724  1.0664 -0.5422
   42CHL1   H1B 3080   4.960   5.424   7.274  1.1995 -0.3260  0.7424
   42CHL1    C2 3081   4.961   5.344   7.075 -0.1271  0.9038 -0.4349
   42CHL1   H2A 3082   4.893   5.418   7.028  1.0267  1.1110 -1.8501
   42CHL1   H2B 3083   4.935   5.249   7.025 -1.9713  1.2426 -0.1877
   42CHL1   C20 3084   4.928   5.186   8.003 -0.0047 -0.2467 -0.2738
   42CHL1   H20 3085   4.902   5.078   7.996  0.0989 -0.4450  1.7785
   42CHL1   C21 3086   4.798   5.271   7.987  0.1988 -0.2350 -0.1256
   42CHL1  H21A 3087   4.817   5.377   8.016  0.5605 -0.6960  1.4699
   42CHL1  H21B 3088   4.725   5.230   8.061 -0.8117  1.7312  0.0380
   42CHL1  H21C 3089   4.769   5.256   7.881  1.7184  0.8977 -0.7302
   42CHL1   C22 3090   4.973   5.203   8.148 -0.4732  0.1223  0.3202
   42CHL1  H22A 3091   5.077   5.163   8.161  0.7041  3.1769  1.1746
   42CHL1  H22B 3092   4.980   5.307   8.185  1.4454  0.4732 -0.8985
   42CHL1   C23 3093   4.898   5.126   8.260  0.4703  0.0223  0.5656
   42CHL1  H23A 3094   4.790   5.150   8.270  0.5172 -0.4933  3.2652
   42CHL1  H23B 3095   4.917   5.020   8.233  2.3943  0.1902  1.0793
   42CHL1   C24 3096   4.955   5.146   8.400  0.1992 -0.1489  0.1921
   42CHL1  H24A 3097   5.060   5.112   8.390  0.9152  2.2501 -1.1643
   42CHL1  H24B 3098   4.946   5.256   8.412 -0.4293  0.0156 -1.5503
   42CHL1   C25 3099   4.884   5.068   8.511  0.2248  0.4960  0.1151
   42CHL1   H25 3100   4.879   4.963   8.474 -0.0647  0.5214  0.0836
   42CHL1   C26 3101   4.971   5.057   8.644  0.1896  0.7999 -0.4501
   42CHL1  H26A 3102   5.042   5.142   8.653 -0.8273  2.0547 -3.0795
   42CHL1  H26B 3103   4.904   5.057   8.732  1.0429  0.1245  0.2099
   42CHL1  H26C 3104   5.028   4.962   8.651 -0.1258  0.7411  2.3532
   42CHL1   C27 3105   4.748   5.135   8.535 -0.2176 -0.1532  0.3205
   42CHL1  H27A 3106   4.757   5.242   8.565  0.4555 -0.8628  2.8955
   42CHL1  H27B 3107   4.695   5.092   8.622  0.9248 -0.7825  0.7322
   42CHL1  H27C 3108   4.684   5.119   8.445 -0.0269  0.8959 -0.0205
   43CHL1    C3 3109   4.586   2.539   6.911  0.8630 -0.6012 -0.6236
   43CHL1    H3 3110   4.477   2.518   6.922  0.9149 -0.5643 -0.0345
   43CHL1    O3 3111   4.630   2.524   6.776  0.2635  0.0656  0.1287
   43CHL1   H3' 3112   4.721   2.554   6.770  0.0386  1.3087  1.9938
   43CHL1    C4 3113   4.615   2.679   6.966 -0.5757 -0.1682 -0.5606
   43CHL1   H4A 3114   4.720   2.702   6.941 -0.3478 -0.1271  0.4306
   43CHL1   H4B 3115   4.555   2.756   6.912 -1.9688 -2.1189 -1.9644
   43CHL1    C5 3116   4.585   2.687   7.117 -0.2269  0.4756 -0.5608
   43CHL1    C6 3117   4.503   2.785   7.161  0.1565 -0.8761 -0.0501
   43CHL1    H6 3118   4.459   2.859   7.092  0.0608 -0.2358  0.6810
   43CHL1    C7 3119   4.480   2.806   7.307  0.3644  0.4803  0.3289
   43CHL1   H7A 3120   4.490   2.916   7.320  0.9508  0.3787  0.8095
   43CHL1   H7B 3121   4.374   2.775   7.317  0.6775 -0.8289 -0.1747
   43CHL1    C8 3122   4.575   2.724   7.404  0.1660 -0.5434  0.0211
   43CHL1    H8 3123   4.673   2.776   7.402  0.0748 -0.3757 -0.0770
   43CHL1   C14 3124   4.519   2.708   7.545 -0.8165 -0.1631 -0.6434
   43CHL1   H14 3125   4.430   2.643   7.535  0.3331 -1.9893  0.4616
   43CHL1   C15 3126   4.481   2.834   7.620 -0.0235 -0.3703 -0.3616
   43CHL1  H15A 3127   4.548   2.922   7.608  0.3125 -0.2510  1.8946
   43CHL1  H15B 3128   4.382   2.867   7.583  0.6249  1.6505 -0.4238
   43CHL1   C16 3129   4.469   2.791   7.769 -0.1875 -0.1513 -0.1152
   43CHL1  H16A 3130   4.537   2.861   7.824  2.6336 -1.0331 -2.2092
   43CHL1  H16B 3131   4.364   2.789   7.804  0.3588  0.1791  1.6408
   43CHL1   C17 3132   4.535   2.647   7.780 -0.0167 -0.2178  0.9724
   43CHL1   H17 3133   4.448   2.578   7.776  0.1747 -0.4188 -1.7811
   43CHL1   C13 3134   4.608   2.632   7.650 -0.3297 -0.6195  0.0041
   43CHL1   C18 3135   4.748   2.714   7.658  0.0292 -0.5820 -0.4301
   43CHL1  H18A 3136   4.815   2.688   7.573 -0.6464  0.0281 -1.1536
   43CHL1  H18B 3137   4.731   2.823   7.648  0.2580 -0.5267 -0.2165
   43CHL1  H18C 3138   4.804   2.696   7.752 -1.3362  1.4552  0.8431
   43CHL1   C12 3139   4.619   2.484   7.594 -0.2460 -0.4415  0.1885
   43CHL1  H12A 3140   4.698   2.426   7.647 -0.2836  0.6282  1.4891
   43CHL1  H12B 3141   4.517   2.441   7.602  0.8828 -2.9745  2.9118
   43CHL1   C11 3142   4.668   2.487   7.449 -0.7128 -0.1893 -0.1090
   43CHL1  H11A 3143   4.773   2.523   7.453 -1.3813  1.8279  0.1732
   43CHL1  H11B 3144   4.668   2.385   7.405  2.0597  1.5893 -4.9431
   43CHL1    C9 3145   4.591   2.583   7.348 -0.7727  0.6509 -0.0520
   43CHL1    H9 3146   4.488   2.543   7.344  0.1703 -2.2856  1.9347
   43CHL1   C10 3147   4.644   2.575   7.203  0.2910 -0.0247 -0.4536
   43CHL1   C19 3148   4.800   2.592   7.214  0.3090 -0.1690  0.1991
   43CHL1  H19A 3149   4.842   2.635   7.120 -0.4556  2.7520  1.0844
   43CHL1  H19B 3150   4.825   2.674   7.285 -0.0249 -0.7863  1.0520
   43CHL1  H19C 3151   4.858   2.505   7.251  1.7121  0.8070  0.3736
   43CHL1    C1 3152   4.619   2.438   7.138  0.4917 -0.2207  0.2283
   43CHL1   H1A 3153   4.671   2.354   7.187  1.0850 -0.6083 -1.0208
   43CHL1   H1B 3154   4.510   2.416   7.142  0.1633 -0.0165 -3.5854
   43CHL1    C2 3155   4.665   2.437   6.990  0.3256 -0.8158 -0.1951
   43CHL1   H2A 3156   4.624   2.344   6.946 -1.5191 -0.3613  0.4469
   43CHL1   H2B 3157   4.775   2.439   6.973  0.3564  2.6315 -0.3145
   43CHL1   C20 3158   4.610   2.631   7.914 -0.0814  0.4139 -0.7799
   43CHL1   H20 3159   4.695   2.703   7.906  0.6123 -0.4586 -1.5024
   43CHL1   C21 3160   4.675   2.487   7.926 -0.1439  0.0595  0.2731
   43CHL1  H21A 3161   4.762   2.480   7.858 -0.6411 -1.6455 -0.2406
   43CHL1  H21B 3162   4.592   2.416   7.906  0.1864 -0.6750  1.3973
   43CHL1  H21C 3163   4.693   2.481   8.036 -0.6882  0.4000  0.3885
   43CHL1   C22 3164   4.504   2.652   8.035 -0.4839 -0.2101  0.3719
   43CHL1  H22A 3165   4.441   2.744   8.032  0.3042  0.3178 -0.9179
   43CHL1  H22B 3166   4.432   2.568   8.031  0.1202 -0.9067  2.6250
   43CHL1   C23 3167   4.576   2.657   8.174  0.4962  0.2272 -0.1212
   43CHL1  H23A 3168   4.611   2.553   8.190 -0.9026 -0.6936 -2.5308
   43CHL1  H23B 3169   4.666   2.721   8.171  0.6099  0.1144  0.6111
   43CHL1   C24 3170   4.479   2.697   8.284 -0.2999 -0.7985 -0.0764
   43CHL1  H24A 3171   4.421   2.785   8.249 -0.5024 -1.0957 -0.4963
   43CHL1  H24B 3172   4.399   2.620   8.281 -0.8211 -0.3259  1.1908
   43CHL1   C25 3173   4.547   2.722   8.422  1.1389  0.5264  0.1260
   43CHL1   H25 3174   4.462   2.753   8.487  0.6127  1.2584 -0.8957
   43CHL1   C26 3175   4.605   2.593   8.476  0.0197  0.1278 -0.4265
   43CHL1  H26A 3176   4.551   2.500   8.449  2.2180 -1.3160 -0.1172
   43CHL1  H26B 3177   4.706   2.569   8.435  0.7247 -0.3986  1.4679
   43CHL1  H26C 3178   4.622   2.603   8.586 -1.1371  1.7206 -0.3584
   43CHL1   C27 3179   4.653   2.834   8.415 -0.3580 -0.3407  0.1863
   43CHL1  H27A 3180   4.745   2.789   8.372 -0.1029  1.2713 -1.0480
   43CHL1  H27B 3181   4.616   2.919   8.353 -1.2092 -0.4468  0.5272
   43CHL1  H27C 3182   4.679   2.872   8.516  0.4404 -0.9664  0.2204
   44CHL1    C3 3183   5.070   0.063   6.788  0.5097 -0.8630  0.0513
   44CHL1    H3 3184   5.032  -0.039   6.811 -2.6384  0.1733 -0.1904
   44CHL1    O3 3185   5.085   0.084   6.645 -0.3194 -0.1154  0.0721
   44CHL1   H3' 3186   5.100   0.177   6.627 -1.4176 -0.3470 -2.3794
   44CHL1    C4 3187   4.977   0.170   6.848 -0.1573  0.5843 -0.0068
   44CHL1   H4A 3188   5.015   0.270   6.818  0.7328 -0.0500 -1.0472
   44CHL1   H4B 3189   4.880   0.162   6.793  1.0048 -0.5324 -2.0081
   44CHL1    C5 3190   4.968   0.181   6.997  0.3969 -0.0411 -0.4756
   44CHL1    C6 3191   4.849   0.169   7.058 -0.7922 -0.0553 -0.7419
   44CHL1    H6 3192   4.758   0.167   6.995 -1.1855  1.8048 -0.2982
   44CHL1    C7 3193   4.833   0.173   7.205  0.2454 -0.4636 -0.6650
   44CHL1   H7A 3194   4.770   0.259   7.234  0.3439 -1.1145  1.7245
   44CHL1   H7B 3195   4.790   0.080   7.248  2.5879 -2.3140 -2.0721
   44CHL1    C8 3196   4.965   0.201   7.286 -0.1444  0.1823  0.2991
   44CHL1    H8 3197   4.979   0.311   7.290 -0.1824  0.1650  1.3705
   44CHL1   C14 3198   4.945   0.148   7.428  0.5319  0.5801 -0.6471
   44CHL1   H14 3199   4.938   0.038   7.419  3.2695  0.2680  0.1409
   44CHL1   C15 3200   4.817   0.176   7.512  0.5108 -0.4485 -0.4372
   44CHL1  H15A 3201   4.786   0.283   7.505 -1.5495 -1.0958 -2.3081
   44CHL1  H15B 3202   4.728   0.117   7.480 -0.8233  1.5300 -0.5540
   44CHL1   C16 3203   4.849   0.140   7.660  0.7892 -0.6405  0.5403
   44CHL1  H16A 3204   4.814   0.227   7.718 -0.5692 -1.8443  1.6112
   44CHL1  H16B 3205   4.791   0.052   7.694 -0.1746  0.2568  1.2640
   44CHL1   C17 3206   4.999   0.107   7.660 -0.1705  0.4794  0.1177
   44CHL1   H17 3207   5.005  -0.004   7.664 -0.6327  0.3654 -1.5163
   44CHL1   C13 3208   5.068   0.161   7.527  0.9926 -0.0405  0.3712
   44CHL1   C18 3209   5.093   0.310   7.562 -0.4416 -0.0972 -0.0398
   44CHL1  H18A 3210   5.196   0.329   7.599 -1.0456  0.4646  1.4263
   44CHL1  H18B 3211   5.093   0.366   7.466 -0.5127 -0.1573 -0.0750
   44CHL1  H18C 3212   5.018   0.359   7.628  1.0442  0.4065  1.3515
   44CHL1   C12 3213   5.183   0.084   7.459  0.2587 -0.2340  0.7333
   44CHL1  H12A 3214   5.275   0.086   7.521  1.3257  0.1840 -0.8174
   44CHL1  H12B 3215   5.150  -0.021   7.452  1.8999 -0.7431  0.3264
   44CHL1   C11 3216   5.207   0.136   7.317 -0.1045 -0.7832  0.0532
   44CHL1  H11A 3217   5.236   0.242   7.330  0.4177 -1.1183  1.8578
   44CHL1  H11B 3218   5.291   0.083   7.267  0.4051  0.2263 -0.1887
   44CHL1    C9 3219   5.082   0.126   7.223 -0.3777 -0.2281 -0.0479
   44CHL1    H9 3220   5.061   0.017   7.224  2.0816 -0.7787 -0.6375
   44CHL1   C10 3221   5.102   0.173   7.073 -0.4962 -0.1870  0.0526
   44CHL1   C19 3222   5.154   0.322   7.078  0.1725  0.2196  0.2550
   44CHL1  H19A 3223   5.174   0.369   6.980  0.7909 -0.5478  0.0079
   44CHL1  H19B 3224   5.090   0.404   7.119 -2.0706  0.2570 -2.9425
   44CHL1  H19C 3225   5.259   0.328   7.113  1.3981 -0.0690 -3.0330
   44CHL1    C1 3226   5.193   0.067   7.001 -0.4344 -0.3366  0.2706
   44CHL1   H1A 3227   5.297   0.080   7.037  0.1376  1.7249 -1.8512
   44CHL1   H1B 3228   5.164  -0.035   7.033 -1.3976 -1.1259 -2.7806
   44CHL1    C2 3229   5.203   0.078   6.857  0.1513  0.2922  0.1639
   44CHL1   H2A 3230   5.271   0.002   6.812  0.8831  0.4566  0.9649
   44CHL1   H2B 3231   5.241   0.175   6.819 -1.6571  0.3404 -1.6852
   44CHL1   C20 3232   5.058   0.151   7.796 -0.7337 -0.8824  0.3560
   44CHL1   H20 3233   5.056   0.262   7.800 -3.0073 -0.8712 -0.0399
   44CHL1   C21 3234   5.195   0.103   7.826 -0.3060  0.2751 -0.3306
   44CHL1  H21A 3235   5.229   0.124   7.929 -3.2251  1.5977  0.4812
   44CHL1  H21B 3236   5.266   0.147   7.753 -0.2587 -1.7402 -1.5837
   44CHL1  H21C 3237   5.197  -0.006   7.805  0.5060 -0.0627  1.3497
   44CHL1   C22 3238   4.972   0.105   7.920 -0.0128  0.0294 -0.6459
   44CHL1  H22A 3239   4.872   0.061   7.898  0.4606 -0.4826 -1.8455
   44CHL1  H22B 3240   5.028   0.024   7.971 -1.0452 -0.3158 -0.0383
   44CHL1   C23 3241   4.972   0.219   8.023  0.3611  0.0614  0.5145
   44CHL1  H23A 3242   5.068   0.275   8.017  0.0688  0.3908 -2.8636
   44CHL1  H23B 3243   4.883   0.275   7.988 -0.4514 -2.1975 -1.3126
   44CHL1   C24 3244   4.954   0.156   8.160  0.0860  0.1916  0.0180
   44CHL1  H24A 3245   4.865   0.091   8.157 -1.1848  1.6100  3.1274
   44CHL1  H24B 3246   5.048   0.103   8.185  0.3768 -0.5235 -2.3416
   44CHL1   C25 3247   4.912   0.239   8.283 -0.4426 -0.2840 -0.1238
   44CHL1   H25 3248   4.828   0.305   8.256  0.2898  1.4930  1.6917
   44CHL1   C26 3249   4.867   0.159   8.399  0.2169  0.0452  0.4522
   44CHL1  H26A 3250   4.829   0.214   8.487 -2.3622 -0.8275 -0.0371
   44CHL1  H26B 3251   4.798   0.079   8.363  1.0328 -1.3588  1.8690
   44CHL1  H26C 3252   4.953   0.096   8.431 -0.4532 -1.7053 -1.0217
   44CHL1   C27 3253   5.013   0.352   8.332 -0.1719  0.9629  0.3182
   44CHL1  H27A 3254   5.011   0.428   8.251 -3.4770  0.2418 -0.4477
   44CHL1  H27B 3255   4.972   0.395   8.426  0.5991  0.6345  0.8094
   44CHL1  H27C 3256   5.111   0.305   8.352 -0.1513 -0.1340 -2.0401
   45CHL1    C3 3257   4.399   5.598   6.828  0.5887  0.5313  0.0298
   45CHL1    H3 3258   4.506   5.630   6.822  0.7245 -0.0746 -0.9718
   45CHL1    O3 3259   4.348   5.580   6.703  0.0248  0.5571  0.1412
   45CHL1   H3' 3260   4.377   5.656   6.651  1.7727 -0.2584 -0.1460
   45CHL1    C4 3261   4.374   5.467   6.908  0.0288 -0.3232  0.1778
   45CHL1   H4A 3262   4.267   5.437   6.904 -0.2089  0.1330  2.2138
   45CHL1   H4B 3263   4.429   5.389   6.850 -0.0272  0.8773 -1.5912
   45CHL1    C5 3264   4.414   5.480   7.054  0.2623 -1.0438  0.9453
   45CHL1    C6 3265   4.513   5.407   7.109  0.3177  0.6048 -0.2015
   45CHL1    H6 3266   4.571   5.334   7.051 -2.2206  0.7555 -3.2358
   45CHL1    C7 3267   4.544   5.422   7.252  0.2318  1.1004 -0.1994
   45CHL1   H7A 3268   4.523   5.324   7.302 -2.3407  1.7819  0.2282
   45CHL1   H7B 3269   4.651   5.445   7.269  1.4969 -1.9145 -3.0244
   45CHL1    C8 3270   4.442   5.505   7.332 -0.9056  0.1277 -0.7828
   45CHL1    H8 3271   4.348   5.447   7.345 -0.8560  0.1669 -0.2490
   45CHL1   C14 3272   4.489   5.528   7.473 -0.1808 -0.0768 -0.0539
   45CHL1   H14 3273   4.577   5.594   7.461 -0.0773 -0.1212  0.4178
   45CHL1   C15 3274   4.512   5.400   7.557 -0.1656  0.4430 -0.6654
   45CHL1  H15A 3275   4.425   5.332   7.558 -1.7820  2.1801  3.9250
   45CHL1  H15B 3276   4.602   5.348   7.517  0.2826  1.6503 -1.2942
   45CHL1   C16 3277   4.540   5.455   7.693  0.0712  0.2873 -0.2346
   45CHL1  H16A 3278   4.477   5.406   7.770 -0.5298 -0.1352 -0.9780
   45CHL1  H16B 3279   4.645   5.457   7.728  0.3091 -1.2958 -0.7471
   45CHL1   C17 3280   4.500   5.605   7.685  0.0251 -0.6458  0.4574
   45CHL1   H17 3281   4.598   5.653   7.664 -0.2222 -0.3576 -0.0462
   45CHL1   C13 3282   4.406   5.628   7.562  0.0922  0.4331 -0.1962
   45CHL1   C18 3283   4.270   5.568   7.607 -1.0831 -0.0270 -0.4628
   45CHL1  H18A 3284   4.281   5.500   7.694  1.0154 -3.0687 -2.8716
   45CHL1  H18B 3285   4.205   5.654   7.632 -0.7538  0.1097 -0.0604
   45CHL1  H18C 3286   4.219   5.508   7.529 -1.4478 -0.0402 -0.2122
   45CHL1   C12 3287   4.404   5.764   7.486  0.0185 -0.1619  0.4797
   45CHL1  H12A 3288   4.361   5.848   7.545  0.7637 -0.3510  1.3224
   45CHL1  H12B 3289   4.512   5.783   7.467 -0.2621  2.4598  1.1351
   45CHL1   C11 3290   4.345   5.735   7.346  0.4334 -0.1506 -0.9292
   45CHL1  H11A 3291   4.238   5.707   7.357  1.2235 -2.6318  1.6066
   45CHL1  H11B 3292   4.360   5.835   7.300 -0.1189  0.3012 -0.1469
   45CHL1    C9 3293   4.416   5.632   7.258 -1.0319 -0.0765 -0.1166
   45CHL1    H9 3294   4.516   5.673   7.233 -0.0865  0.5866  3.9804
   45CHL1   C10 3295   4.344   5.596   7.129 -0.2309  0.4713 -0.5633
   45CHL1   C19 3296   4.194   5.555   7.153 -0.6120  0.6389 -0.4827
   45CHL1  H19A 3297   4.133   5.640   7.191 -0.7213 -0.2437  1.3952
   45CHL1  H19B 3298   4.141   5.538   7.057 -1.9749  1.3565  0.1087
   45CHL1  H19C 3299   4.176   5.471   7.223  0.2350  0.0884 -0.9110
   45CHL1    C1 3300   4.338   5.727   7.045 -0.4615 -0.1119  0.2771
   45CHL1   H1A 3301   4.253   5.790   7.077 -0.9286  0.5238 -2.0130
   45CHL1   H1B 3302   4.432   5.783   7.065 -0.6607  0.3280 -0.0041
   45CHL1    C2 3303   4.315   5.709   6.885  0.0991 -0.2548 -0.5853
   45CHL1   H2A 3304   4.340   5.809   6.844  0.1618  0.3103  0.7862
   45CHL1   H2B 3305   4.211   5.683   6.858  0.4420 -1.3022 -0.9571
   45CHL1   C20 3306   4.465   5.677   7.817 -0.1107  0.2869 -0.3232
   45CHL1   H20 3307   4.361   5.645   7.840 -0.1610 -0.6327 -1.7410
   45CHL1   C21 3308   4.463   5.829   7.810  0.5963 -0.1494  0.5099
   45CHL1  H21A 3309   4.449   5.887   7.904 -0.7403 -1.1206  0.9376
   45CHL1  H21B 3310   4.390   5.856   7.730  0.7199 -0.2672  0.3570
   45CHL1  H21C 3311   4.560   5.864   7.769  2.0697 -2.3741  1.8846
   45CHL1   C22 3312   4.557   5.627   7.936 -0.5196  0.4020 -0.3372
   45CHL1  H22A 3313   4.561   5.516   7.937 -1.1702  0.3404 -1.5428
   45CHL1  H22B 3314   4.664   5.654   7.926 -0.3928 -0.7561 -3.1367
   45CHL1   C23 3315   4.501   5.658   8.075 -1.0092 -0.1309  0.0466
   45CHL1  H23A 3316   4.493   5.767   8.097  1.0622  0.1215 -0.2638
   45CHL1  H23B 3317   4.397   5.621   8.081 -1.6152  1.7051  3.8424
   45CHL1   C24 3318   4.581   5.589   8.186  0.2540  0.5009  0.1482
   45CHL1  H24A 3319   4.584   5.482   8.159 -0.2490  1.0442 -2.2874
   45CHL1  H24B 3320   4.679   5.641   8.186  0.9512 -0.7574  1.2604
   45CHL1   C25 3321   4.519   5.594   8.328 -0.2321 -0.0009 -0.1533
   45CHL1   H25 3322   4.423   5.538   8.323  1.2641 -2.6252 -1.5915
   45CHL1   C26 3323   4.601   5.517   8.428 -0.6415 -0.3243 -0.5358
   45CHL1  H26A 3324   4.616   5.410   8.401 -0.3781 -0.9889  1.9703
   45CHL1  H26B 3325   4.709   5.544   8.429 -0.4394 -0.7982 -2.7988
   45CHL1  H26C 3326   4.568   5.520   8.534  0.2872 -2.2504 -0.1427
   45CHL1   C27 3327   4.497   5.731   8.384 -0.0913 -0.4991 -0.2741
   45CHL1  H27A 3328   4.453   5.718   8.485  1.3908 -1.6187  0.2541
   45CHL1  H27B 3329   4.595   5.784   8.389  0.3140 -1.3231  0.7868
   45CHL1  H27C 3330   4.415   5.784   8.330 -0.7393  0.5908  1.6836
   46CHL1    C3 3331   6.158   6.540   7.036 -0.4422  0.1588  0.1494
   46CHL1    H3 3332   6.095   6.453   7.065 -0.7686 -0.2255 -1.6207
   46CHL1    O3 3333   6.157   6.528   6.891  0.2449  0.0175  0.0366
   46CHL1   H3' 3334   6.199   6.610   6.863 -0.0487  0.0811 -0.2259
   46CHL1    C4 3335   6.081   6.664   7.083  0.5466  0.2408 -0.3284
   46CHL1   H4A 3336   6.135   6.745   7.029  2.9145 -2.2825 -2.1028
   46CHL1   H4B 3337   5.976   6.648   7.052 -0.8868  0.7017  3.7884
   46CHL1    C5 3338   6.088   6.677   7.236 -0.3983 -0.2039 -0.0162
   46CHL1    C6 3339   5.974   6.686   7.311 -0.3457 -0.6334  0.1765
   46CHL1    H6 3340   5.878   6.673   7.259  1.1018 -1.0171 -2.6191
   46CHL1    C7 3341   5.964   6.694   7.461  0.2444 -0.1772 -0.3538
   46CHL1   H7A 3342   5.904   6.782   7.491  0.6109 -0.1037  0.1864
   46CHL1   H7B 3343   5.913   6.602   7.497 -1.5585  1.1681  0.6611
   46CHL1    C8 3344   6.107   6.724   7.520 -0.1381  0.6085  0.4512
   46CHL1    H8 3345   6.123   6.832   7.501  1.1701  0.3678  0.1326
   46CHL1   C14 3346   6.109   6.694   7.676 -0.0754 -0.7213 -0.2669
   46CHL1   H14 3347   6.102   6.583   7.683 -1.0095 -0.5972  1.1230
   46CHL1   C15 3348   5.998   6.744   7.765  0.4186 -0.6164  0.0747
   46CHL1  H15A 3349   5.968   6.849   7.742 -0.6902 -0.8089  0.5576
   46CHL1  H15B 3350   5.900   6.694   7.753 -1.2886  1.7647  2.7579
   46CHL1   C16 3351   6.057   6.740   7.904 -0.1235  0.4545 -0.4656
   46CHL1  H16A 3352   6.046   6.842   7.947  2.0903  0.5270  0.0746
   46CHL1  H16B 3353   5.996   6.666   7.959  0.9128 -0.4171 -0.4607
   46CHL1   C17 3354   6.207   6.700   7.889 -0.3366  0.2875 -0.1704
   46CHL1   H17 3355   6.201   6.589   7.883 -0.2039  0.2148  0.8810
   46CHL1   C13 3356   6.237   6.742   7.741 -0.0594  0.1198 -0.4241
   46CHL1   C18 3357   6.258   6.890   7.740  0.3194 -0.6697  0.6123
   46CHL1  H18A 3358   6.173   6.938   7.793 -1.2748 -2.1551 -0.4564
   46CHL1  H18B 3359   6.357   6.917   7.782  1.1467  0.5708 -1.9437
   46CHL1  H18C 3360   6.253   6.924   7.634 -0.5062  0.3348  0.9574
   46CHL1   C12 3361   6.356   6.678   7.671  0.1899  0.0935  0.8458
   46CHL1  H12A 3362   6.456   6.721   7.692  1.0680 -0.0711 -2.4718
   46CHL1  H12B 3363   6.362   6.571   7.700 -0.4529 -0.2228 -0.1329
   46CHL1   C11 3364   6.357   6.690   7.514 -0.1840  0.4820 -0.3947
   46CHL1  H11A 3365   6.370   6.798   7.492 -3.5168  0.9202 -0.6499
   46CHL1  H11B 3366   6.441   6.628   7.476 -0.8531 -0.3067 -0.5971
   46CHL1    C9 3367   6.222   6.647   7.447  0.5141  0.0327  0.1676
   46CHL1    H9 3368   6.209   6.539   7.468  0.0900  0.1365  0.4633
   46CHL1   C10 3369   6.225   6.667   7.294 -0.3225  0.4537  0.3954
   46CHL1   C19 3370   6.312   6.793   7.261 -0.1343 -0.8947 -0.1088
   46CHL1  H19A 3371   6.305   6.807   7.151 -0.8897 -3.2064 -0.3998
   46CHL1  H19B 3372   6.268   6.882   7.312 -2.0548 -0.4942 -2.2647
   46CHL1  H19C 3373   6.420   6.777   7.278 -0.0809  0.7771  1.4226
   46CHL1    C1 3374   6.311   6.549   7.240  0.1535  0.0121 -0.7696
   46CHL1   H1A 3375   6.416   6.561   7.275  0.4602  0.6412 -1.8416
   46CHL1   H1B 3376   6.270   6.457   7.286  0.6170  1.2263  2.3558
   46CHL1    C2 3377   6.305   6.532   7.088  0.0810 -0.0726  0.2773
   46CHL1   H2A 3378   6.356   6.436   7.064  0.6305  0.4780 -0.8336
   46CHL1   H2B 3379   6.372   6.606   7.038  1.2355 -2.0252 -1.2317
   46CHL1   C20 3380   6.298   6.728   8.011 -0.5500 -0.3640  0.2521
   46CHL1   H20 3381   6.287   6.837   8.031 -0.6392 -0.5596  1.3122
   46CHL1   C21 3382   6.443   6.701   7.976  0.1302 -0.6572  0.3449
   46CHL1  H21A 3383   6.497   6.726   8.070 -2.8135  1.5996  1.6056
   46CHL1  H21B 3384   6.488   6.764   7.896 -1.1037  0.1319  0.2489
   46CHL1  H21C 3385   6.455   6.594   7.948  0.7640 -0.6049  0.3872
   46CHL1   C22 3386   6.256   6.645   8.139 -0.2547  0.2731  0.0759
   46CHL1  H22A 3387   6.149   6.618   8.125 -0.2520  0.5834 -0.5890
   46CHL1  H22B 3388   6.322   6.555   8.140  2.5374  2.2236  0.5320
   46CHL1   C23 3389   6.273   6.730   8.269 -0.5311 -0.0279  0.3475
   46CHL1  H23A 3390   6.379   6.762   8.275 -0.1549 -1.2877  0.6718
   46CHL1  H23B 3391   6.196   6.810   8.273 -1.7942 -1.2505  1.1663
   46CHL1   C24 3392   6.253   6.637   8.390 -0.5827 -0.4718  0.2372
   46CHL1  H24A 3393   6.148   6.628   8.425  0.0996 -0.2142  2.5525
   46CHL1  H24B 3394   6.270   6.538   8.344 -0.4637  0.3565 -1.5765
   46CHL1   C25 3395   6.334   6.666   8.520 -0.0454 -0.4680  0.1034
   46CHL1   H25 3396   6.440   6.637   8.505  0.0663  1.1516 -3.1499
   46CHL1   C26 3397   6.334   6.817   8.562 -0.8434  0.7109 -0.2271
   46CHL1  H26A 3398   6.364   6.867   8.467 -0.8670  0.1114 -0.5561
   46CHL1  H26B 3399   6.231   6.845   8.592 -0.6602  2.0617 -0.7912
   46CHL1  H26C 3400   6.406   6.837   8.644  1.7196  1.5056 -2.5509
   46CHL1   C27 3401   6.280   6.585   8.637 -0.0914  0.3581  0.2607
   46CHL1  H27A 3402   6.260   6.482   8.602 -0.2298  0.3217  0.4453
   46CHL1  H27B 3403   6.345   6.589   8.726 -0.5724  0.7329  0.6015
   46CHL1  H27C 3404   6.183   6.625   8.674 -0.8355 -0.8611 -0.3169
   47CHL1    C3 3405   3.704   0.401   6.730  0.3111  0.0045  0.3749
   47CHL1    H3 3406   3.613   0.461   6.752  0.0835  0.7525 -2.2579
   47CHL1    O3 3407   3.717   0.400   6.589  0.5415 -0.2935  0.1604
   47CHL1   H3' 3408   3.810   0.403   6.569  0.7583 -3.4504  0.0768
   47CHL1    C4 3409   3.833   0.467   6.787 -0.1251 -0.0261 -0.6411
   47CHL1   H4A 3410   3.920   0.407   6.752  0.4905 -0.5967  1.7126
   47CHL1   H4B 3411   3.839   0.571   6.750 -1.6269  0.2630 -0.1305
   47CHL1    C5 3412   3.840   0.462   6.939  0.1397  0.5033 -0.3518
   47CHL1    C6 3413   3.860   0.563   7.016  0.6178 -0.1456  1.0090
   47CHL1    H6 3414   3.884   0.658   6.967  1.9837 -0.3150  1.3043
   47CHL1    C7 3415   3.871   0.573   7.162  0.3240 -0.4819 -0.3018
   47CHL1   H7A 3416   3.957   0.633   7.198  1.0641 -1.9830  0.5216
   47CHL1   H7B 3417   3.780   0.629   7.193  0.6283 -0.6556  0.9456
   47CHL1    C8 3418   3.882   0.434   7.233 -0.0505 -0.5240  0.7620
   47CHL1    H8 3419   3.982   0.396   7.202  0.8266  2.0057  0.2557
   47CHL1   C14 3420   3.856   0.434   7.382 -0.6373 -0.3057  0.1452
   47CHL1   H14 3421   3.750   0.466   7.382  0.0731  2.3492  0.4545
   47CHL1   C15 3422   3.922   0.542   7.476 -0.5262  0.3758 -0.6543
   47CHL1  H15A 3423   4.031   0.554   7.462 -0.6891  1.7258 -0.8138
   47CHL1  H15B 3424   3.879   0.643   7.462  2.9949  2.3067  1.2065
   47CHL1   C16 3425   3.902   0.482   7.622 -0.2066 -0.1000  0.3071
   47CHL1  H16A 3426   4.007   0.469   7.654 -0.2108  1.2300  0.9001
   47CHL1  H16B 3427   3.858   0.561   7.686  1.4491  0.6622  0.5312
   47CHL1   C17 3428   3.834   0.345   7.606 -0.3297  0.0516 -0.4519
   47CHL1   H17 3429   3.724   0.361   7.609 -0.6513 -1.5617 -2.0129
   47CHL1   C13 3430   3.864   0.305   7.454 -0.2395  0.4597  0.1437
   47CHL1   C18 3431   4.010   0.243   7.448 -0.0377  0.1667 -0.2909
   47CHL1  H18A 3432   4.009   0.141   7.492 -1.1617  0.7024  1.0025
   47CHL1  H18B 3433   4.049   0.231   7.345 -0.3455  0.2767 -0.4232
   47CHL1  H18C 3434   4.092   0.298   7.499 -2.1264  1.5048  1.8374
   47CHL1   C12 3435   3.764   0.210   7.392 -0.3350 -0.3715 -0.4287
   47CHL1  H12A 3436   3.772   0.105   7.427 -0.9279 -0.8425 -1.6675
   47CHL1  H12B 3437   3.664   0.249   7.420 -0.9826 -1.9728 -0.4141
   47CHL1   C11 3438   3.768   0.207   7.237  0.2034  0.5691 -0.5824
   47CHL1  H11A 3439   3.848   0.135   7.208  0.4377  1.3346 -1.9028
   47CHL1  H11B 3440   3.673   0.160   7.203  0.7424 -1.6878  0.8085
   47CHL1    C9 3441   3.781   0.340   7.165  0.0001  0.3207  0.7481
   47CHL1    H9 3442   3.689   0.403   7.174  2.3447  3.7986  2.6796
   47CHL1   C10 3443   3.809   0.324   7.010  0.4035  0.6146 -0.2703
   47CHL1   C19 3444   3.923   0.216   6.994 -0.3075 -1.1095 -0.4454
   47CHL1  H19A 3445   4.015   0.252   7.045 -1.7757  0.5991  1.1384
   47CHL1  H19B 3446   3.902   0.113   7.031  1.6047 -2.1974 -2.1852
   47CHL1  H19C 3447   3.945   0.196   6.887  0.2135  1.0615 -0.7734
   47CHL1    C1 3448   3.682   0.267   6.941 -0.1876  0.4820 -0.2198
   47CHL1   H1A 3449   3.679   0.161   6.976  2.2326  0.6483  0.6621
   47CHL1   H1B 3450   3.589   0.316   6.977 -0.0248 -0.6357  1.8632
   47CHL1    C2 3451   3.680   0.258   6.785 -0.2155  0.3808  0.0254
   47CHL1   H2A 3452   3.576   0.229   6.759 -1.0227  1.8929  1.4148
   47CHL1   H2B 3453   3.756   0.187   6.744  1.1654  2.0120 -0.3374
   47CHL1   C20 3454   3.888   0.255   7.720 -0.0993  0.2364 -1.1634
   47CHL1   H20 3455   3.996   0.231   7.715  0.5492  2.4410  0.5852
   47CHL1   C21 3456   3.808   0.124   7.713  0.0850 -0.2528 -0.0555
   47CHL1  H21A 3457   3.836   0.069   7.620 -0.5189 -0.6293 -0.0191
   47CHL1  H21B 3458   3.698   0.141   7.713 -0.1035 -0.8541  3.5116
   47CHL1  H21C 3459   3.825   0.068   7.807  1.5064  1.2640  0.6230
   47CHL1   C22 3460   3.878   0.320   7.862 -0.1866  0.1587  0.2544
   47CHL1  H22A 3461   3.817   0.413   7.855 -0.9980 -0.4190 -0.5702
   47CHL1  H22B 3462   3.835   0.254   7.941  3.4418  0.2487  2.5339
   47CHL1   C23 3463   4.013   0.354   7.927 -0.4999 -0.0969  0.0151
   47CHL1  H23A 3464   4.055   0.266   7.979 -0.2487  0.6000  1.0187
   47CHL1  H23B 3465   4.092   0.365   7.850  1.0955 -1.8897  1.3085
   47CHL1   C24 3466   4.001   0.477   8.023  0.5134  0.8910 -0.0263
   47CHL1  H24A 3467   3.969   0.565   7.963 -1.9656  0.0280 -0.0936
   47CHL1  H24B 3468   3.931   0.449   8.105 -0.0821 -1.2363 -1.1900
   47CHL1   C25 3469   4.139   0.494   8.092 -0.7872  0.1622 -0.1867
   47CHL1   H25 3470   4.219   0.497   8.016 -0.8015  0.4154 -0.1923
   47CHL1   C26 3471   4.136   0.634   8.151 -0.0490 -0.2604  0.7698
   47CHL1  H26A 3472   4.235   0.665   8.191 -0.4525  0.7049  1.0319
   47CHL1  H26B 3473   4.120   0.710   8.071  0.6121 -0.3654  0.5313
   47CHL1  H26C 3474   4.054   0.640   8.225 -0.2044 -0.2580  0.5993
   47CHL1   C27 3475   4.158   0.376   8.190 -0.2188 -0.1245  0.1164
   47CHL1  H27A 3476   4.180   0.286   8.128 -2.7473  0.0053 -1.1065
   47CHL1  H27B 3477   4.245   0.392   8.257 -0.6969  1.6273  0.3815
   47CHL1  H27C 3478   4.066   0.358   8.250  1.7880 -3.5600  2.5299
   48CHL1    C3 3479   1.824   2.391   6.559 -0.1353  0.4842  0.6021
   48CHL1    H3 3480   1.889   2.302   6.569 -1.2358 -0.4726 -0.4828
   48CHL1    O3 3481   1.827   2.434   6.421 -0.5499  0.9340 -0.6414
   48CHL1   H3' 3482   1.736   2.427   6.389 -0.6810  0.4294 -0.1722
   48CHL1    C4 3483   1.685   2.334   6.605  0.3458  0.2371 -0.7931
   48CHL1   H4A 3484   1.605   2.411   6.615  0.5001  0.1949  1.1308
   48CHL1   H4B 3485   1.645   2.253   6.539 -0.3879  0.3020 -0.4393
   48CHL1    C5 3486   1.692   2.284   6.750 -0.8723 -0.0884 -0.2518
   48CHL1    C6 3487   1.651   2.160   6.793 -0.1458  0.1472  0.0981
   48CHL1    H6 3488   1.614   2.091   6.716  2.2723  1.3734 -2.3316
   48CHL1    C7 3489   1.645   2.115   6.929  0.2998 -0.0142 -0.4175
   48CHL1   H7A 3490   1.542   2.077   6.947 -1.0666  1.7698 -3.6564
   48CHL1   H7B 3491   1.725   2.043   6.957  0.9185  0.6468 -0.4638
   48CHL1    C8 3492   1.671   2.231   7.030  0.7323  0.2259 -0.1940
   48CHL1    H8 3493   1.584   2.299   7.035 -1.1548 -2.0669 -0.0661
   48CHL1   C14 3494   1.705   2.171   7.167  0.0482  0.3454 -0.7565
   48CHL1   H14 3495   1.806   2.125   7.156 -1.6120 -4.2824  0.8519
   48CHL1   C15 3496   1.614   2.061   7.233  0.4045 -0.2233  0.2970
   48CHL1  H15A 3497   1.508   2.090   7.218  1.0126  2.1298  0.2096
   48CHL1  H15B 3498   1.628   1.963   7.182 -3.4745 -0.6449 -0.2082
   48CHL1   C16 3499   1.643   2.065   7.387 -1.2131 -0.2124  0.3210
   48CHL1  H16A 3500   1.546   2.087   7.438 -1.3854  0.6579 -0.3617
   48CHL1  H16B 3501   1.687   1.972   7.430 -1.9992 -0.4104  0.7405
   48CHL1   C17 3502   1.736   2.185   7.413 -0.2658 -0.4101 -0.5521
   48CHL1   H17 3503   1.838   2.142   7.405  0.0626  0.5119 -1.6080
   48CHL1   C13 3504   1.722   2.271   7.278 -0.2290  0.1139 -0.4991
   48CHL1   C18 3505   1.607   2.368   7.299 -0.0723  0.2264  0.5616
   48CHL1  H18A 3506   1.511   2.316   7.320  0.1414 -0.4773 -0.1378
   48CHL1  H18B 3507   1.628   2.440   7.381  0.8545  4.9263 -3.3572
   48CHL1  H18C 3508   1.588   2.437   7.214 -1.1206 -1.5401 -0.7258
   48CHL1   C12 3509   1.846   2.359   7.250  0.0990 -0.0464  0.1520
   48CHL1  H12A 3510   1.853   2.447   7.317  2.3542  1.1476 -1.5084
   48CHL1  H12B 3511   1.941   2.302   7.256 -0.5904 -1.5213 -1.8100
   48CHL1   C11 3512   1.831   2.411   7.108  0.0137 -1.1471 -0.3665
   48CHL1  H11A 3513   1.749   2.485   7.116  1.6432  0.7766 -0.6077
   48CHL1  H11B 3514   1.923   2.468   7.082 -0.8136  0.1367 -0.5859
   48CHL1    C9 3515   1.792   2.316   6.990 -0.4335  0.3958 -0.1165
   48CHL1    H9 3516   1.883   2.253   6.985  0.2851  1.4016 -0.0617
   48CHL1   C10 3517   1.767   2.383   6.850 -0.1876  0.5506 -0.1677
   48CHL1   C19 3518   1.659   2.499   6.870 -0.0132  0.4319 -1.1621
   48CHL1  H19A 3519   1.570   2.458   6.922  1.3033 -0.7046  0.2806
   48CHL1  H19B 3520   1.711   2.572   6.935 -1.5068  0.8122 -0.3697
   48CHL1  H19C 3521   1.647   2.554   6.774  0.2267  1.1429 -0.7897
   48CHL1    C1 3522   1.903   2.440   6.787  0.7968 -0.1303 -0.7207
   48CHL1   H1A 3523   1.945   2.512   6.859 -0.1656 -1.4828  1.2871
   48CHL1   H1B 3524   1.979   2.359   6.779  0.8120 -0.2663  0.6914
   48CHL1    C2 3525   1.882   2.499   6.649 -0.3360 -0.2386  0.5961
   48CHL1   H2A 3526   1.985   2.525   6.616 -0.3365  0.7459  1.3168
   48CHL1   H2B 3527   1.818   2.590   6.653  0.6765  0.5188  0.1428
   48CHL1   C20 3528   1.705   2.249   7.546  0.0674 -1.4993 -0.6691
   48CHL1   H20 3529   1.606   2.301   7.544  0.9238  0.2411  0.2676
   48CHL1   C21 3530   1.808   2.362   7.560 -0.8990 -0.0996  0.1750
   48CHL1  H21A 3531   1.829   2.390   7.666 -0.5296  2.4577 -0.5138
   48CHL1  H21B 3532   1.754   2.454   7.531 -0.9811  0.5827  2.2931
   48CHL1  H21C 3533   1.902   2.341   7.504 -0.8750  0.2834  0.0747
   48CHL1   C22 3534   1.704   2.155   7.669 -0.1193 -0.7146 -0.4684
   48CHL1  H22A 3535   1.657   2.059   7.639  0.2065 -1.0516  0.0846
   48CHL1  H22B 3536   1.812   2.138   7.690 -0.2282  0.0168  0.7474
   48CHL1   C23 3537   1.650   2.216   7.801  0.2259  0.2567  0.8013
   48CHL1  H23A 3538   1.721   2.297   7.830 -0.4426  1.3706 -0.5442
   48CHL1  H23B 3539   1.548   2.254   7.776 -0.0930 -1.3205 -0.4166
   48CHL1   C24 3540   1.632   2.107   7.913  0.0669 -0.0962  0.1980
   48CHL1  H24A 3541   1.586   2.014   7.873  2.2479 -0.6366 -1.2643
   48CHL1  H24B 3542   1.735   2.084   7.947 -0.2599 -1.3873  0.3507
   48CHL1   C25 3543   1.552   2.157   8.029  0.3050  0.1761 -0.2627
   48CHL1   H25 3544   1.445   2.176   8.005  0.0266  0.1068  0.8388
   48CHL1   C26 3545   1.556   2.063   8.152  0.1887 -0.0048 -0.1496
   48CHL1  H26A 3546   1.533   1.962   8.113  0.7968 -0.4194  0.5607
   48CHL1  H26B 3547   1.657   2.058   8.197  1.3195  1.8033 -2.2800
   48CHL1  H26C 3548   1.485   2.091   8.234  0.8113 -1.1094  0.7898
   48CHL1   C27 3549   1.613   2.290   8.083 -0.1299  0.4432  0.1598
   48CHL1  H27A 3550   1.720   2.278   8.110 -0.2966  1.3387  1.2918
   48CHL1  H27B 3551   1.613   2.365   8.001  0.1045 -0.6126 -0.8305
   48CHL1  H27C 3552   1.557   2.323   8.174 -1.8470 -2.0618  0.1269
   49CHL1    C3 3553   6.567   3.115   6.618  0.3873  0.4716 -0.9286
   49CHL1    H3 3554   6.652   3.046   6.634  0.4559  0.7788  0.1026
   49CHL1    O3 3555   6.520   3.110   6.486 -0.0491  0.1371  0.2576
   49CHL1   H3' 3556   6.459   3.184   6.483 -0.2428  0.0178  1.0396
   49CHL1    C4 3557   6.448   3.075   6.717  0.3583  0.2448  0.1638
   49CHL1   H4A 3558   6.356   3.134   6.698  0.9306  1.7667  1.8316
   49CHL1   H4B 3559   6.416   2.972   6.688  0.3294  0.6408 -1.2755
   49CHL1    C5 3560   6.480   3.087   6.858 -0.4454  0.0558 -0.1604
   49CHL1    C6 3561   6.450   2.989   6.940 -0.5153  0.4278 -0.5339
   49CHL1    H6 3562   6.393   2.903   6.902 -0.2223  0.1807 -0.4159
   49CHL1    C7 3563   6.459   3.002   7.087 -0.4836  0.1758 -0.6022
   49CHL1   H7A 3564   6.365   2.964   7.133 -0.7529 -0.6985 -1.8251
   49CHL1   H7B 3565   6.543   2.935   7.115 -0.5698  0.8069  1.3604
   49CHL1    C8 3566   6.492   3.140   7.150 -0.2604  1.2351 -0.0243
   49CHL1    H8 3567   6.391   3.187   7.148  0.8063  3.7156  0.7786
   49CHL1   C14 3568   6.552   3.132   7.284 -0.1090 -0.2069  0.3156
   49CHL1   H14 3569   6.656   3.093   7.278  0.0550 -0.1054  2.1843
   49CHL1   C15 3570   6.485   3.031   7.376  0.0443  0.5424  0.2612
   49CHL1  H15A 3571   6.377   3.041   7.351  0.1526 -0.3252 -0.5983
   49CHL1  H15B 3572   6.507   2.923   7.361 -2.6645 -0.0597 -0.0680
   49CHL1   C16 3573   6.520   3.087   7.519  0.3770 -0.4994  0.4450
   49CHL1  H16A 3574   6.428   3.104   7.579 -0.4103  0.8836 -1.0950
   49CHL1  H16B 3575   6.586   3.018   7.576  0.5945 -0.1619  0.6065
   49CHL1   C17 3576   6.603   3.219   7.498  0.1069  0.3727  0.0154
   49CHL1   H17 3577   6.710   3.192   7.490  0.3561  0.8994  1.2901
   49CHL1   C13 3578   6.569   3.267   7.356 -0.0688 -0.1088 -0.3186
   49CHL1   C18 3579   6.433   3.335   7.373  0.5197 -0.1238  0.2014
   49CHL1  H18A 3580   6.354   3.277   7.425  0.3645 -1.7362 -1.7058
   49CHL1  H18B 3581   6.439   3.433   7.425 -1.2437  0.2883 -0.3170
   49CHL1  H18C 3582   6.388   3.350   7.273 -0.8799 -1.3293  0.6136
   49CHL1   C12 3583   6.670   3.345   7.268 -0.0571 -0.6794  0.2371
   49CHL1  H12A 3584   6.673   3.449   7.306  0.0045 -0.5996  0.0146
   49CHL1  H12B 3585   6.775   3.308   7.269  0.4230  0.5631 -0.9724
   49CHL1   C11 3586   6.626   3.348   7.119  0.0646  0.7503 -0.4838
   49CHL1  H11A 3587   6.537   3.413   7.124 -1.0934 -0.8581  1.3401
   49CHL1  H11B 3588   6.702   3.408   7.064 -1.0473  2.6283 -0.0619
   49CHL1    C9 3589   6.584   3.218   7.057  0.0374  0.8182  0.0894
   49CHL1    H9 3590   6.678   3.159   7.057  1.0596  2.3419  2.2217
   49CHL1   C10 3591   6.537   3.222   6.908 -0.2835  0.3080 -0.0095
   49CHL1   C19 3592   6.431   3.335   6.891  0.1872  0.4550  0.3839
   49CHL1  H19A 3593   6.347   3.312   6.960 -1.1361 -2.3466 -1.9375
   49CHL1  H19B 3594   6.480   3.430   6.923 -0.9733  0.9995  0.5781
   49CHL1  H19C 3595   6.399   3.337   6.785 -0.1015 -1.2713  0.4018
   49CHL1    C1 3596   6.656   3.258   6.811 -0.2644  0.3710  0.4433
   49CHL1   H1A 3597   6.673   3.368   6.817  1.6678  0.3581 -2.4780
   49CHL1   H1B 3598   6.737   3.193   6.848 -1.4809 -1.1904  0.4751
   49CHL1    C2 3599   6.624   3.245   6.657 -0.2863 -1.2015 -0.8305
   49CHL1   H2A 3600   6.724   3.262   6.612  0.6372  1.1519  1.8054
   49CHL1   H2B 3601   6.555   3.328   6.630 -0.1815 -0.7602  0.2000
   49CHL1   C20 3602   6.612   3.313   7.616  0.1805 -0.1341 -0.3775
   49CHL1   H20 3603   6.511   3.351   7.641  0.1312 -0.8674  0.6199
   49CHL1   C21 3604   6.702   3.440   7.589  0.3414  0.0707 -0.6684
   49CHL1  H21A 3605   6.651   3.503   7.513 -1.4648  1.1356  1.3211
   49CHL1  H21B 3606   6.810   3.415   7.576  0.9833  1.2104  1.8342
   49CHL1  H21C 3607   6.703   3.497   7.685  0.3225 -2.3674  0.8614
   49CHL1   C22 3608   6.655   3.248   7.747  0.1340 -0.0787  0.4895
   49CHL1  H22A 3609   6.614   3.145   7.750 -2.6504  0.9098 -0.3653
   49CHL1  H22B 3610   6.766   3.242   7.743  0.3100  2.1236  0.9606
   49CHL1   C23 3611   6.628   3.324   7.878  0.1602  0.2443 -0.0771
   49CHL1  H23A 3612   6.688   3.418   7.885  1.5371 -0.4039 -2.1004
   49CHL1  H23B 3613   6.521   3.354   7.882  0.7933  2.9465 -0.9084
   49CHL1   C24 3614   6.662   3.241   8.007 -0.5648 -0.0677 -0.5114
   49CHL1  H24A 3615   6.578   3.172   8.028  0.1220 -0.5841  0.6305
   49CHL1  H24B 3616   6.753   3.179   7.991 -0.2779 -0.1140  1.1079
   49CHL1   C25 3617   6.685   3.327   8.135  0.1960  0.5253 -0.1929
   49CHL1   H25 3618   6.770   3.390   8.101 -0.8939  1.6931 -0.8494
   49CHL1   C26 3619   6.575   3.415   8.181  0.3349 -0.0747 -0.1284
   49CHL1  H26A 3620   6.509   3.356   8.249 -0.4242  0.5324 -0.3253
   49CHL1  H26B 3621   6.615   3.502   8.237 -1.6908  1.2890 -0.6854
   49CHL1  H26C 3622   6.519   3.456   8.094 -0.6699  0.3054  0.6738
   49CHL1   C27 3623   6.740   3.225   8.241  0.2564  0.1754  0.4150
   49CHL1  H27A 3624   6.799   3.288   8.312  0.1036 -0.0922  0.7841
   49CHL1  H27B 3625   6.663   3.167   8.296 -2.5076  2.4498 -0.7943
   49CHL1  H27C 3626   6.820   3.158   8.203  0.7288  1.3207 -0.6659
   50CHL1    C3 3627   2.863   4.795   6.929  0.9349  0.0735  0.2586
   50CHL1    H3 3628   2.915   4.890   6.953 -0.4091  1.6558 -2.6753
   50CHL1    O3 3629   2.811   4.788   6.799  0.1880 -0.2604 -0.0371
   50CHL1   H3' 3630   2.847   4.707   6.762  0.1810 -1.2811  2.0352
   50CHL1    C4 3631   2.949   4.668   6.958 -0.1819  0.4638  0.0847
   50CHL1   H4A 3632   2.899   4.574   6.926 -0.0063  0.5561 -0.4814
   50CHL1   H4B 3633   3.039   4.672   6.893  0.5379  2.1616  1.1425
   50CHL1    C5 3634   2.983   4.654   7.104 -0.5709 -0.3959 -0.8495
   50CHL1    C6 3635   3.114   4.644   7.145 -0.1089 -0.5323 -0.7010
   50CHL1    H6 3636   3.186   4.656   7.062  1.0822 -0.6750  0.2802
   50CHL1    C7 3637   3.163   4.627   7.288 -0.3275 -0.1317 -0.3301
   50CHL1   H7A 3638   3.249   4.557   7.296  0.0292  0.2930 -0.4289
   50CHL1   H7B 3639   3.180   4.727   7.332 -0.2027 -0.5641  0.6434
   50CHL1    C8 3640   3.049   4.582   7.376  0.3334 -0.4213 -0.4580
   50CHL1    H8 3641   3.029   4.472   7.372 -1.8831 -0.0886  0.1146
   50CHL1   C14 3642   3.094   4.609   7.524 -0.5253 -0.5558  0.4951
   50CHL1   H14 3643   3.109   4.719   7.536  0.9206 -0.7257  0.4618
   50CHL1   C15 3644   3.232   4.543   7.571  0.4593 -0.1021  0.0079
   50CHL1  H15A 3645   3.256   4.436   7.548 -1.5952 -0.1545 -2.2928
   50CHL1  H15B 3646   3.322   4.604   7.550  0.0088  0.4421 -0.3854
   50CHL1   C16 3647   3.213   4.538   7.722  0.3649 -0.2131 -0.2525
   50CHL1  H16A 3648   3.211   4.434   7.761 -3.4263 -0.4604 -0.7651
   50CHL1  H16B 3649   3.290   4.597   7.776  0.4070  0.4011 -0.9615
   50CHL1   C17 3650   3.067   4.598   7.756  0.0060  0.0824  0.4341
   50CHL1   H17 3651   3.090   4.706   7.768 -0.5756  0.1427  1.0939
   50CHL1   C13 3652   2.985   4.569   7.624  0.0126 -0.2676 -0.3818
   50CHL1   C18 3653   2.965   4.417   7.616 -0.0407 -0.2569  0.2227
   50CHL1  H18A 3654   2.921   4.389   7.518  2.4494  0.3530 -1.1709
   50CHL1  H18B 3655   3.054   4.357   7.647  0.0569  0.3856  1.2372
   50CHL1  H18C 3656   2.887   4.399   7.693 -0.5901 -1.6827 -0.6115
   50CHL1   C12 3657   2.854   4.648   7.602  0.0991  0.0077 -0.2167
   50CHL1  H12A 3658   2.768   4.623   7.668  1.0070 -0.8815  0.6748
   50CHL1  H12B 3659   2.875   4.756   7.617  0.6864 -0.1088 -0.1765
   50CHL1   C11 3660   2.802   4.627   7.460 -0.4885  0.1722 -0.5181
   50CHL1  H11A 3661   2.764   4.524   7.445 -2.1472  0.6855  0.0032
   50CHL1  H11B 3662   2.719   4.699   7.440  0.6390  1.0801 -2.2402
   50CHL1    C9 3663   2.919   4.659   7.353 -0.0068 -0.0230  0.1649
   50CHL1    H9 3664   2.942   4.765   7.378 -1.3949  0.6995 -1.4132
   50CHL1   C10 3665   2.868   4.648   7.202 -0.3598  0.3864 -0.2415
   50CHL1   C19 3666   2.793   4.509   7.181 -0.8496  0.1802  0.3363
   50CHL1  H19A 3667   2.749   4.499   7.079 -1.6836 -0.1795  0.7185
   50CHL1  H19B 3668   2.866   4.426   7.190 -0.1783  0.7621  0.3217
   50CHL1  H19C 3669   2.713   4.491   7.256  0.7108 -3.0873  1.4289
   50CHL1    C1 3670   2.778   4.762   7.171  0.4271 -0.3216  0.0052
   50CHL1   H1A 3671   2.677   4.739   7.211 -0.7070  1.1171 -1.8554
   50CHL1   H1B 3672   2.811   4.863   7.203 -0.0252  1.0016 -3.3136
   50CHL1    C2 3673   2.742   4.773   7.018  0.5437  0.3668 -0.0761
   50CHL1   H2A 3674   2.665   4.852   7.000 -0.2150 -0.4806 -0.6299
   50CHL1   H2B 3675   2.689   4.677   7.002 -2.7395  1.2551  3.7635
   50CHL1   C20 3676   3.018   4.559   7.891  0.7691  0.0660  0.2309
   50CHL1   H20 3677   3.006   4.449   7.895  2.1181 -0.1113 -0.0878
   50CHL1   C21 3678   2.867   4.615   7.918 -0.2486  0.0591  0.9073
   50CHL1  H21A 3679   2.803   4.561   7.845  1.3176  2.0874 -2.2197
   50CHL1  H21B 3680   2.880   4.725   7.903  2.4796 -0.3063  0.0204
   50CHL1  H21C 3681   2.841   4.609   8.026 -0.0991  0.5794  0.9777
   50CHL1   C22 3682   3.113   4.589   8.012 -0.0554 -1.0427  0.1954
   50CHL1  H22A 3683   3.055   4.554   8.100  2.1023 -0.9811  1.7316
   50CHL1  H22B 3684   3.202   4.523   8.009  0.1273 -0.9161  1.6880
   50CHL1   C23 3685   3.162   4.728   8.036 -0.2400 -0.0300 -0.0757
   50CHL1  H23A 3686   3.226   4.760   7.951  0.1279 -0.4055  0.0590
   50CHL1  H23B 3687   3.068   4.787   8.032 -1.6180 -2.1673 -1.4075
   50CHL1   C24 3688   3.239   4.748   8.168  0.3399  0.1756 -0.0076
   50CHL1  H24A 3689   3.329   4.683   8.157 -1.3154 -1.8635 -2.5157
   50CHL1  H24B 3690   3.277   4.852   8.167  0.1822  0.2503 -2.5145
   50CHL1   C25 3691   3.158   4.721   8.297  0.6223 -0.2308  0.4443
   50CHL1   H25 3692   3.131   4.614   8.301  1.6828 -0.6695 -2.0757
   50CHL1   C26 3693   3.235   4.749   8.424 -0.4278 -0.1172  0.0839
   50CHL1  H26A 3694   3.252   4.859   8.426 -0.3801 -0.0901 -1.4072
   50CHL1  H26B 3695   3.197   4.710   8.521 -1.0994  0.8794  0.2305
   50CHL1  H26C 3696   3.340   4.711   8.426 -0.8712 -1.3991 -0.3862
   50CHL1   C27 3697   3.023   4.812   8.296  0.1837 -0.0580  0.0447
   50CHL1  H27A 3698   2.967   4.806   8.392 -0.6630 -2.4118 -0.5108
   50CHL1  H27B 3699   3.050   4.916   8.269  2.1624 -0.7864 -1.1043
   50CHL1  H27C 3700   2.940   4.777   8.231 -0.4456  0.0823  0.7684
   51CHL1    C3 3701   2.269   4.818   6.898 -0.4886  0.2880 -0.4628
   51CHL1    H3 3702   2.366   4.870   6.913 -1.4097  1.7337  0.9049
   51CHL1    O3 3703   2.238   4.799   6.760  0.5210 -0.1124  0.2705
   51CHL1   H3' 3704   2.160   4.742   6.761 -0.2318  0.8630 -0.2039
   51CHL1    C4 3705   2.287   4.684   6.975 -0.4197  0.5174  0.2291
   51CHL1   H4A 3706   2.203   4.615   6.951  1.4361 -1.7777 -0.0466
   51CHL1   H4B 3707   2.376   4.629   6.936 -0.2627  2.0497 -1.7451
   51CHL1    C5 3708   2.289   4.710   7.129 -0.2664 -0.7421 -0.0340
   51CHL1    C6 3709   2.401   4.681   7.190 -0.8000  1.2632  0.6072
   51CHL1    H6 3710   2.488   4.641   7.136 -0.2266 -0.5979  2.7526
   51CHL1    C7 3711   2.428   4.698   7.338 -0.4683 -0.3997  0.4782
   51CHL1   H7A 3712   2.486   4.611   7.377 -0.1417 -0.7107 -0.6717
   51CHL1   H7B 3713   2.493   4.787   7.349 -0.6812 -0.1849  0.0038
   51CHL1    C8 3714   2.294   4.717   7.421  0.6057 -0.1843  1.0376
   51CHL1    H8 3715   2.245   4.618   7.415 -2.2375  1.1431  0.3345
   51CHL1   C14 3716   2.317   4.742   7.571 -0.1392 -0.2372 -0.0439
   51CHL1   H14 3717   2.353   4.846   7.580  1.1896 -0.3059 -3.2309
   51CHL1   C15 3718   2.415   4.659   7.648  0.2087  0.1513 -0.3608
   51CHL1  H15A 3719   2.401   4.555   7.613  1.2242 -0.0283 -0.2773
   51CHL1  H15B 3720   2.520   4.691   7.628  0.7434 -0.9511  0.5422
   51CHL1   C16 3721   2.375   4.676   7.793  0.5936 -0.4478  0.5607
   51CHL1  H16A 3722   2.364   4.575   7.836  1.3335 -0.3449  1.0042
   51CHL1  H16B 3723   2.452   4.735   7.847  1.2409  1.4836 -2.2165
   51CHL1   C17 3724   2.251   4.769   7.792  0.1459  0.3147 -0.0693
   51CHL1   H17 3725   2.294   4.872   7.790 -1.3924  0.9984  0.4930
   51CHL1   C13 3726   2.186   4.749   7.653  0.3669 -0.1722  0.6899
   51CHL1   C18 3727   2.108   4.619   7.650  0.6950 -0.1172  0.1872
   51CHL1  H18A 3728   2.180   4.539   7.676  0.4384 -0.2310  0.5510
   51CHL1  H18B 3729   2.024   4.610   7.722 -0.4729 -1.4120 -1.2581
   51CHL1  H18C 3730   2.077   4.593   7.546 -1.1169 -1.3708  0.9795
   51CHL1   C12 3731   2.107   4.871   7.587  0.1502  0.1388 -0.1912
   51CHL1  H12A 3732   2.015   4.897   7.643  1.0588 -0.0551  1.4600
   51CHL1  H12B 3733   2.173   4.960   7.593  1.2854 -0.7248  0.4956
   51CHL1   C11 3734   2.080   4.854   7.439  0.2543  0.5195 -0.0148
   51CHL1  H11A 3735   2.001   4.776   7.445 -1.4174  2.1991  1.4532
   51CHL1  H11B 3736   2.028   4.946   7.403  1.1184  0.4192 -1.5730
   51CHL1    C9 3737   2.199   4.813   7.354 -0.5457 -0.7536 -0.1924
   51CHL1    H9 3738   2.259   4.906   7.362  0.3092 -1.1135 -1.9066
   51CHL1   C10 3739   2.174   4.781   7.196  0.4737  0.2907 -0.1222
   51CHL1   C19 3740   2.047   4.695   7.179  0.5257 -0.6797  0.2639
   51CHL1  H19A 3741   2.039   4.657   7.075  0.6018 -1.1557  0.4305
   51CHL1  H19B 3742   2.058   4.604   7.243  1.7664 -1.7677 -1.3966
   51CHL1  H19C 3743   1.949   4.739   7.207  0.4111 -1.3788  1.0044
   51CHL1    C1 3744   2.157   4.913   7.120  0.2338 -0.5863 -0.1323
   51CHL1   H1A 3745   2.065   4.965   7.155  0.5411 -1.8913  2.8055
   51CHL1   H1B 3746   2.243   4.984   7.129  0.5200 -0.7364 -1.3682
   51CHL1    C2 3747   2.149   4.896   6.964 -0.2581  0.2353 -0.0429
   51CHL1   H2A 3748   2.146   4.997   6.918 -0.7595 -0.6974 -2.2006
   51CHL1   H2B 3749   2.050   4.854   6.936 -0.6413 -0.8389  2.6459
   51CHL1   C20 3750   2.160   4.746   7.911  0.2073 -0.0875 -0.6790
   51CHL1   H20 3751   2.122   4.642   7.916  1.7175 -0.6415 -0.2548
   51CHL1   C21 3752   2.030   4.826   7.890  0.6280 -0.6114  0.2554
   51CHL1  H21A 3753   1.976   4.837   7.986  0.7134  1.1548  0.1433
   51CHL1  H21B 3754   1.953   4.785   7.822 -0.4814  1.1199  0.4135
   51CHL1  H21C 3755   2.055   4.932   7.867  0.2400 -0.5196  0.2572
   51CHL1   C22 3756   2.230   4.784   8.038  0.6081  0.1914 -0.6434
   51CHL1  H22A 3757   2.331   4.736   8.033  0.3986 -0.4327  0.7175
   51CHL1  H22B 3758   2.239   4.895   8.043  1.2184  0.1124  0.4267
   51CHL1   C23 3759   2.151   4.727   8.159 -1.0337 -0.3498 -0.5851
   51CHL1  H23A 3760   2.075   4.804   8.183  0.0481  0.4929  0.2486
   51CHL1  H23B 3761   2.094   4.641   8.118  2.0968 -3.1902  0.5568
   51CHL1   C24 3762   2.239   4.695   8.279  0.0006  0.0484 -0.0667
   51CHL1  H24A 3763   2.288   4.595   8.267  0.3843  0.4586 -2.4700
   51CHL1  H24B 3764   2.322   4.768   8.291  1.7225 -1.4856 -1.7513
   51CHL1   C25 3765   2.153   4.685   8.411 -0.6741 -0.2904  0.1392
   51CHL1   H25 3766   2.083   4.600   8.399 -1.0568 -0.0847  0.8514
   51CHL1   C26 3767   2.247   4.658   8.533 -0.6422  0.0194 -1.2727
   51CHL1  H26A 3768   2.269   4.549   8.532 -1.5197 -0.2061  0.2439
   51CHL1  H26B 3769   2.341   4.714   8.513  0.7569 -1.6680  0.2887
   51CHL1  H26C 3770   2.200   4.687   8.630  0.4996 -1.3412 -0.2803
   51CHL1   C27 3771   2.068   4.812   8.454  0.3706  0.2562  0.5286
   51CHL1  H27A 3772   1.993   4.837   8.376  1.1579  1.0653  0.0159
   51CHL1  H27B 3773   2.015   4.794   8.551  0.3421 -0.9301  0.3051
   51CHL1  H27C 3774   2.146   4.890   8.466  0.3382  0.1463  1.6512
   52CHL1    C3 3775   3.244   5.284   7.050 -0.5569 -0.5026 -0.4413
   52CHL1    H3 3776   3.339   5.228   7.063  0.2167  0.7533 -0.5534
   52CHL1    O3 3777   3.217   5.302   6.915 -0.4165 -0.3473  0.0422
   52CHL1   H3' 3778   3.288   5.358   6.884  1.0454 -1.0936  1.8511
   52CHL1    C4 3779   3.127   5.200   7.112  0.6928 -0.0661  0.3415
   52CHL1   H4A 3780   3.034   5.251   7.077  1.8775  0.5483 -2.1604
   52CHL1   H4B 3781   3.123   5.099   7.066 -0.0007 -1.5415  3.4416
   52CHL1    C5 3782   3.124   5.182   7.261 -0.7465  0.0003 -0.4546
   52CHL1    C6 3783   3.121   5.057   7.317  0.6043  0.6619 -0.3581
   52CHL1    H6 3784   3.095   4.969   7.257 -2.0347  0.6394  0.7009
   52CHL1    C7 3785   3.130   5.034   7.473  0.6556 -0.1034  0.4314
   52CHL1   H7A 3786   3.044   4.969   7.501  0.6373 -1.4173 -2.3105
   52CHL1   H7B 3787   3.220   4.976   7.501  1.3081  0.2432 -0.8477
   52CHL1    C8 3788   3.132   5.169   7.552 -0.0605 -0.3451 -0.1264
   52CHL1    H8 3789   3.028   5.207   7.566  0.1679 -0.1295  1.0672
   52CHL1   C14 3790   3.199   5.142   7.689  0.0159 -0.3696 -0.4150
   52CHL1   H14 3791   3.301   5.108   7.663 -0.3068 -1.1259 -0.7295
   52CHL1   C15 3792   3.142   5.025   7.766 -0.6155  0.7275  0.0457
   52CHL1  H15A 3793   3.031   5.024   7.765 -0.6143 -0.5501  0.0826
   52CHL1  H15B 3794   3.194   4.929   7.749 -2.4187 -0.2112 -0.4576
   52CHL1   C16 3795   3.174   5.059   7.916  0.5452 -0.9385 -0.0503
   52CHL1  H16A 3796   3.084   5.057   7.982  0.1972  0.8283 -0.4414
   52CHL1  H16B 3797   3.250   4.984   7.947  1.8115 -0.4412 -1.8087
   52CHL1   C17 3798   3.250   5.195   7.913 -0.0479 -0.1471  0.2611
   52CHL1   H17 3799   3.355   5.164   7.894  0.3126 -1.3933  3.5987
   52CHL1   C13 3800   3.199   5.259   7.784 -1.2601  0.0758  0.7786
   52CHL1   C18 3801   3.068   5.323   7.801 -0.9682  0.0764  0.1665
   52CHL1  H18A 3802   3.019   5.358   7.708  0.4612 -0.1287 -0.6929
   52CHL1  H18B 3803   2.989   5.265   7.854 -0.0898  1.2791  3.0055
   52CHL1  H18C 3804   3.075   5.419   7.857  0.7820  1.7136 -2.6394
   52CHL1   C12 3805   3.291   5.365   7.719  0.5952 -1.0468 -1.0980
   52CHL1  H12A 3806   3.278   5.455   7.784  1.0312 -1.2251 -0.7621
   52CHL1  H12B 3807   3.394   5.323   7.726 -0.2774 -3.4942 -1.9907
   52CHL1   C11 3808   3.261   5.406   7.576  0.3719  0.1538 -0.0455
   52CHL1  H11A 3809   3.179   5.481   7.580 -0.2882 -0.5922  0.8479
   52CHL1  H11B 3810   3.348   5.456   7.529  1.2798 -1.1989  0.1323
   52CHL1    C9 3811   3.216   5.278   7.489 -0.4558 -0.8949 -0.7820
   52CHL1    H9 3812   3.317   5.235   7.470  1.2744  2.5719 -0.1472
   52CHL1   C10 3813   3.164   5.313   7.343  0.2986  0.3641 -0.3249
   52CHL1   C19 3814   3.040   5.407   7.365  0.4212  0.5938  0.2241
   52CHL1  H19A 3815   2.955   5.359   7.418  1.4524 -0.8774  0.5989
   52CHL1  H19B 3816   3.064   5.496   7.428 -1.8977 -0.6694  3.1575
   52CHL1  H19C 3817   2.995   5.438   7.269  1.4096 -0.9888 -0.7962
   52CHL1    C1 3818   3.278   5.397   7.280 -0.1764  0.5921  0.0286
   52CHL1   H1A 3819   3.277   5.499   7.326 -2.7021  0.9475 -0.6720
   52CHL1   H1B 3820   3.383   5.362   7.279  0.5769  2.2820 -4.4496
   52CHL1    C2 3821   3.253   5.415   7.129 -0.2251  0.2552 -0.4884
   52CHL1   H2A 3822   3.326   5.489   7.089 -0.1599 -0.0264 -0.9013
   52CHL1   H2B 3823   3.150   5.453   7.112 -1.1684 -2.7557 -2.3362
   52CHL1   C20 3824   3.256   5.270   8.049 -0.4256 -0.0185  0.2224
   52CHL1   H20 3825   3.181   5.350   8.031 -2.7516 -2.7375 -3.6223
   52CHL1   C21 3826   3.387   5.352   8.054 -0.5454  0.0316  0.1554
   52CHL1  H21A 3827   3.416   5.403   8.148  0.7266  2.4937 -1.4554
   52CHL1  H21B 3828   3.384   5.435   7.981 -1.7891 -0.4546 -0.3783
   52CHL1  H21C 3829   3.480   5.292   8.040 -0.0546  0.2679  2.0870
   52CHL1   C22 3830   3.239   5.185   8.178 -0.6717 -0.4201  0.1586
   52CHL1  H22A 3831   3.159   5.111   8.159  0.4357 -1.7524  0.5378
   52CHL1  H22B 3832   3.329   5.128   8.208 -1.5224 -1.0829  1.5237
   52CHL1   C23 3833   3.206   5.270   8.301  0.2365  0.4371 -0.2155
   52CHL1  H23A 3834   3.253   5.222   8.390  1.3444  1.1779 -0.3806
   52CHL1  H23B 3835   3.251   5.372   8.294  1.3287 -0.0828 -1.1957
   52CHL1   C24 3836   3.054   5.299   8.321 -0.3119  0.3196  0.4659
   52CHL1  H24A 3837   3.020   5.359   8.234  0.3667  1.4446  0.9503
   52CHL1  H24B 3838   2.999   5.203   8.317  2.0815 -1.1856  1.4341
   52CHL1   C25 3839   3.013   5.376   8.440 -0.0859 -0.2194  0.6420
   52CHL1   H25 3840   3.068   5.338   8.529  0.5779  0.6490  0.6184
   52CHL1   C26 3841   3.062   5.519   8.420  0.1570 -0.0236 -0.8479
   52CHL1  H26A 3842   3.171   5.529   8.438 -0.1697  0.1271  1.2662
   52CHL1  H26B 3843   3.046   5.567   8.321 -2.0675  2.0064  0.3874
   52CHL1  H26C 3844   3.031   5.585   8.504  2.3323 -1.7473  1.4782
   52CHL1   C27 3845   2.865   5.377   8.469  0.1288  0.0013  0.3971
   52CHL1  H27A 3846   2.848   5.419   8.571 -2.9794  0.2367 -0.1197
   52CHL1  H27B 3847   2.816   5.436   8.389  3.4603  1.8661 -0.4675
   52CHL1  H27C 3848   2.825   5.273   8.469  2.6126 -1.0095 -0.2135
   53CHL1    C3 3849   6.159   1.379   7.027 -0.8332  0.4804 -1.2785
   53CHL1    H3 3850   6.061   1.368   7.078 -1.0703 -3.2989 -2.2747
   53CHL1    O3 3851   6.154   1.422   6.892 -0.8516 -0.2385  0.0290
   53CHL1   H3' 3852   6.176   1.345   6.839  1.0321 -0.8989  1.6281
   53CHL1    C4 3853   6.249   1.472   7.110 -0.3498 -0.1861  0.3933
   53CHL1   H4A 3854   6.344   1.489   7.055  0.0281 -0.7423  0.8621
   53CHL1   H4B 3855   6.198   1.570   7.111  0.6401  0.3382  0.6432
   53CHL1    C5 3856   6.277   1.425   7.253 -0.0735  0.8344 -0.0007
   53CHL1    C6 3857   6.242   1.509   7.361  0.6085  0.2692  0.6070
   53CHL1    H6 3858   6.191   1.606   7.351 -0.0602 -0.0802  0.5429
   53CHL1    C7 3859   6.259   1.465   7.506  0.5111  0.6563  0.2121
   53CHL1   H7A 3860   6.289   1.549   7.572  1.8546  0.3020  0.0906
   53CHL1   H7B 3861   6.163   1.447   7.558  1.6492 -0.1962  2.1396
   53CHL1    C8 3862   6.346   1.339   7.520  0.6227 -0.2610 -1.5526
   53CHL1    H8 3863   6.450   1.376   7.511  0.8225  0.0936  1.2770
   53CHL1   C14 3864   6.317   1.280   7.664  0.6135  0.3805 -0.1743
   53CHL1   H14 3865   6.214   1.239   7.663  0.8410 -0.2095  0.0890
   53CHL1   C15 3866   6.325   1.382   7.782 -0.0651  0.4922  0.0292
   53CHL1  H15A 3867   6.408   1.455   7.772 -0.4150  0.6969 -1.7151
   53CHL1  H15B 3868   6.234   1.445   7.789 -0.4915 -0.0383 -0.6618
   53CHL1   C16 3869   6.337   1.289   7.902 -0.3079  0.1030  0.4396
   53CHL1  H16A 3870   6.432   1.313   7.954  1.7046 -0.0756 -2.8743
   53CHL1  H16B 3871   6.245   1.292   7.965 -0.8385 -2.1956 -0.1210
   53CHL1   C17 3872   6.357   1.137   7.847 -0.1792  0.1229  0.3420
   53CHL1   H17 3873   6.254   1.098   7.836  0.4281 -1.2774 -0.5802
   53CHL1   C13 3874   6.412   1.164   7.699 -0.0967  0.0223 -0.1291
   53CHL1   C18 3875   6.565   1.203   7.688  0.1581  0.2989  0.1227
   53CHL1  H18A 3876   6.588   1.236   7.585  1.4563  2.2781  0.9786
   53CHL1  H18B 3877   6.589   1.289   7.755 -1.2686  0.9065 -0.1104
   53CHL1  H18C 3878   6.631   1.119   7.718  0.7104  1.5960  2.9134
   53CHL1   C12 3879   6.378   1.057   7.599  0.1053  0.8077  1.0343
   53CHL1  H12A 3880   6.437   0.963   7.608  0.2171  0.6706 -0.7785
   53CHL1  H12B 3881   6.271   1.033   7.616 -0.1215 -0.1277 -1.3501
   53CHL1   C11 3882   6.397   1.093   7.453  0.8549 -0.0713 -0.0798
   53CHL1  H11A 3883   6.504   1.091   7.423  1.1278  1.7140  0.6852
   53CHL1  H11B 3884   6.356   1.003   7.401  0.5994 -0.6083  1.0280
   53CHL1    C9 3885   6.321   1.228   7.420 -0.9957  0.1027 -0.3434
   53CHL1    H9 3886   6.220   1.187   7.440 -0.4162 -1.0265  0.3655
   53CHL1   C10 3887   6.329   1.276   7.276  0.5984  1.7239 -0.6555
   53CHL1   C19 3888   6.475   1.283   7.231  0.1569 -0.0782 -0.0141
   53CHL1  H19A 3889   6.498   1.178   7.202 -2.6526 -0.9791  0.7220
   53CHL1  H19B 3890   6.484   1.338   7.135  1.3466  0.6447  0.4846
   53CHL1  H19C 3891   6.549   1.323   7.304  0.2082 -0.5569  0.2027
   53CHL1    C1 3892   6.247   1.179   7.187  0.1022  0.1535  0.1842
   53CHL1   H1A 3893   6.308   1.086   7.183  2.0966  1.4167 -0.3318
   53CHL1   H1B 3894   6.152   1.150   7.236  1.3535  1.6897  3.8889
   53CHL1    C2 3895   6.216   1.231   7.036  0.1754 -0.2794 -0.0255
   53CHL1   H2A 3896   6.150   1.155   6.990  0.4843 -1.2230  1.0478
   53CHL1   H2B 3897   6.315   1.229   6.986  0.6852 -0.9592  0.9651
   53CHL1   C20 3898   6.438   1.050   7.943 -0.4982 -0.5339  0.2686
   53CHL1   H20 3899   6.536   1.101   7.954 -0.5665 -0.2996 -0.1724
   53CHL1   C21 3900   6.457   0.910   7.871  0.4226  0.3919 -0.6149
   53CHL1  H21A 3901   6.530   0.918   7.788 -1.7120 -0.4100 -2.6885
   53CHL1  H21B 3902   6.371   0.858   7.824  1.0357 -1.6918  0.4323
   53CHL1  H21C 3903   6.521   0.848   7.938  1.0553  0.4336 -1.1679
   53CHL1   C22 3904   6.361   1.022   8.068  0.6821  0.1087 -0.1556
   53CHL1  H22A 3905   6.323   1.120   8.104  1.7715  0.7873 -0.7902
   53CHL1  H22B 3906   6.283   0.946   8.046  2.6072 -2.3441  0.9643
   53CHL1   C23 3907   6.447   0.965   8.184  0.2332 -0.5336  0.0926
   53CHL1  H23A 3908   6.481   0.860   8.172 -1.2608 -1.1150  0.7293
   53CHL1  H23B 3909   6.537   1.030   8.194 -0.9464  0.8912  1.9200
   53CHL1   C24 3910   6.376   0.981   8.319 -0.2047  0.1360  0.0392
   53CHL1  H24A 3911   6.341   1.086   8.314  0.8185  0.4332 -1.7328
   53CHL1  H24B 3912   6.286   0.916   8.321  1.0206 -1.6527 -0.5782
   53CHL1   C25 3913   6.469   0.945   8.441  0.4248 -0.6295  0.5839
   53CHL1   H25 3914   6.564   1.001   8.427 -1.3985  2.8931  1.0260
   53CHL1   C26 3915   6.413   1.004   8.576 -0.2607  0.7506  0.0863
   53CHL1  H26A 3916   6.401   1.114   8.575  0.4898  0.8429 -1.5089
   53CHL1  H26B 3917   6.315   0.957   8.598  0.5494 -0.6955  0.7676
   53CHL1  H26C 3918   6.489   0.976   8.652  0.1721 -0.7376 -0.8540
   53CHL1   C27 3919   6.493   0.793   8.440 -0.4138 -0.1325 -0.1210
   53CHL1  H27A 3920   6.544   0.764   8.346 -0.2272  1.7936 -0.6520
   53CHL1  H27B 3921   6.549   0.771   8.534 -1.0508  4.1221  1.5176
   53CHL1  H27C 3922   6.404   0.728   8.442 -1.0051  0.6566 -0.1810
   54CHL1    C3 3923   4.834   3.043   6.955  0.0822  1.5641 -0.5374
   54CHL1    H3 3924   4.743   2.983   6.980  1.8683 -1.0687  0.0765
   54CHL1    O3 3925   4.830   3.082   6.819 -0.1046  0.0282  0.0576
   54CHL1   H3' 3926   4.874   3.022   6.759 -0.7745 -1.2948  0.8421
   54CHL1    C4 3927   4.855   3.168   7.044 -0.1178 -1.1644 -0.2439
   54CHL1   H4A 3928   4.938   3.226   6.997 -0.2981 -0.0594  0.7636
   54CHL1   H4B 3929   4.766   3.233   7.041  0.0505 -0.9559 -3.2913
   54CHL1    C5 3930   4.880   3.126   7.188 -0.6333  0.7560  0.0701
   54CHL1    C6 3931   4.808   3.176   7.293  0.1388  0.5960 -0.4535
   54CHL1    H6 3932   4.729   3.247   7.264 -0.2824  0.8830  1.3281
   54CHL1    C7 3933   4.831   3.158   7.445  0.1582  0.1028  0.7232
   54CHL1   H7A 3934   4.828   3.256   7.497  1.8749  1.0855 -0.8834
   54CHL1   H7B 3935   4.753   3.095   7.492 -1.6645  2.7031  1.4158
   54CHL1    C8 3936   4.969   3.091   7.466  0.7894  0.1719 -0.9063
   54CHL1    H8 3937   5.052   3.165   7.457  0.6107  0.3129 -1.4174
   54CHL1   C14 3938   4.973   3.043   7.616  0.8477  1.3372 -0.7460
   54CHL1   H14 3939   4.881   2.982   7.628  2.3539 -1.0616 -0.6864
   54CHL1   C15 3940   4.961   3.146   7.732  0.1138 -0.0824 -0.3292
   54CHL1  H15A 3941   5.049   3.213   7.723  0.7782 -0.7632  0.8667
   54CHL1  H15B 3942   4.870   3.209   7.728 -0.4310 -0.8359 -0.0244
   54CHL1   C16 3943   4.965   3.068   7.863 -0.2323  0.7822 -0.5304
   54CHL1  H16A 3944   5.035   3.114   7.936  0.0797 -0.9837  0.3387
   54CHL1  H16B 3945   4.865   3.058   7.911 -0.7722  0.1341 -1.7088
   54CHL1   C17 3946   5.034   2.929   7.813  0.4994  0.6471  0.4165
   54CHL1   H17 3947   4.946   2.862   7.812  0.5706  0.5458  0.8663
   54CHL1   C13 3948   5.079   2.949   7.664 -0.3596  0.9281 -0.0989
   54CHL1   C18 3949   5.222   3.022   7.661 -0.4245  0.2142 -0.4134
   54CHL1  H18A 3950   5.303   2.968   7.714 -1.5936 -0.7144  0.5114
   54CHL1  H18B 3951   5.244   3.046   7.555  0.9160  0.7442 -0.0303
   54CHL1  H18C 3952   5.215   3.119   7.715  0.0440 -0.8383  1.6779
   54CHL1   C12 3953   5.087   2.836   7.560 -0.1414  0.0696  0.1104
   54CHL1  H12A 3954   5.172   2.768   7.584  0.2985  0.4768 -0.2628
   54CHL1  H12B 3955   4.992   2.779   7.559 -0.1326  0.0452 -1.6275
   54CHL1   C11 3956   5.107   2.884   7.414  0.4246 -1.0716  0.1564
   54CHL1  H11A 3957   5.210   2.924   7.411 -0.3056  0.9226  0.3083
   54CHL1  H11B 3958   5.101   2.787   7.361 -1.1422 -2.9916  3.5076
   54CHL1    C9 3959   4.996   2.975   7.365 -0.1151  0.2816 -0.5403
   54CHL1    H9 3960   4.902   2.915   7.372 -0.4719  0.9395  0.6093
   54CHL1   C10 3961   5.004   3.026   7.217  0.2580 -0.6251 -0.3779
   54CHL1   C19 3962   5.155   3.079   7.190 -0.0607 -0.0772  0.0399
   54CHL1  H19A 3963   5.155   3.122   7.088 -0.5879  0.5020  0.2741
   54CHL1  H19B 3964   5.174   3.161   7.263 -1.4767  1.1024 -0.8608
   54CHL1  H19C 3965   5.227   2.995   7.192  0.4517  0.3598  0.1910
   54CHL1    C1 3966   4.983   2.905   7.116 -0.0044  0.2753 -0.0110
   54CHL1   H1A 3967   5.071   2.838   7.126 -0.6952 -0.6628 -0.1956
   54CHL1   H1B 3968   4.894   2.849   7.151  0.1068  0.3402  0.3897
   54CHL1    C2 3969   4.951   2.935   6.972 -0.0044  0.7063  0.2492
   54CHL1   H2A 3970   4.931   2.838   6.923 -1.5793  0.6225  1.0161
   54CHL1   H2B 3971   5.040   2.983   6.925  0.8745 -0.6126  0.5047
   54CHL1   C20 3972   5.125   2.866   7.916 -0.2264 -0.0728  1.0379
   54CHL1   H20 3973   5.218   2.927   7.922 -0.0922  0.1574 -2.0422
   54CHL1   C21 3974   5.173   2.731   7.872  0.3240  0.6074  0.4430
   54CHL1  H21A 3975   5.233   2.680   7.951 -0.3068 -1.3729 -0.2885
   54CHL1  H21B 3976   5.247   2.738   7.789 -1.6954 -0.6819 -1.5808
   54CHL1  H21C 3977   5.094   2.663   7.834  1.0126  0.6317 -1.0858
   54CHL1   C22 3978   5.046   2.857   8.051  0.1326 -0.6429  0.2814
   54CHL1  H22A 3979   5.014   2.961   8.072 -1.7344 -0.8910 -1.1482
   54CHL1  H22B 3980   4.950   2.805   8.031  0.2403 -0.6005 -0.3666
   54CHL1   C23 3981   5.122   2.804   8.170 -0.5659 -0.1894 -0.0628
   54CHL1  H23A 3982   5.146   2.696   8.157  3.1661  0.2413  1.7678
   54CHL1  H23B 3983   5.222   2.851   8.177 -0.1136 -1.3019  1.8315
   54CHL1   C24 3984   5.047   2.831   8.300  0.4397  1.2351 -0.0763
   54CHL1  H24A 3985   5.009   2.935   8.302  0.3964  1.3005 -2.0575
   54CHL1  H24B 3986   4.957   2.766   8.305 -1.5037  3.7340 -0.3560
   54CHL1   C25 3987   5.137   2.819   8.428 -0.1505 -0.1364 -0.2569
   54CHL1   H25 3988   5.218   2.892   8.410  0.4657  0.4338  3.7989
   54CHL1   C26 3989   5.073   2.861   8.559  0.0986 -0.0140  0.9541
   54CHL1  H26A 3990   5.154   2.875   8.634 -1.7965  0.7323  2.9636
   54CHL1  H26B 3991   5.019   2.957   8.546  0.0197 -0.3270 -1.4681
   54CHL1  H26C 3992   5.013   2.772   8.589  0.0846 -0.4753 -0.3572
   54CHL1   C27 3993   5.203   2.680   8.434  0.3314 -0.3498  0.6145
   54CHL1  H27A 3994   5.275   2.665   8.517  1.6304 -3.6234 -0.9102
   54CHL1  H27B 3995   5.118   2.609   8.423 -0.2659  0.5974 -1.4156
   54CHL1  H27C 3996   5.268   2.654   8.348 -0.0939  1.6646 -0.3717
   55CHL1    C3 3997   5.831   6.124   6.938 -0.6335 -0.0861 -0.0137
   55CHL1    H3 3998   5.832   6.013   6.949 -0.8980  0.1021  2.7581
   55CHL1    O3 3999   5.828   6.157   6.799  0.1547  0.0753 -0.1725
   55CHL1   H3' 4000   5.853   6.249   6.801  0.0592  0.0925  0.4227
   55CHL1    C4 4001   5.714   6.170   7.017  0.3868 -0.3082 -0.7119
   55CHL1   H4A 4002   5.688   6.277   7.002  2.4014  0.1351 -1.2765
   55CHL1   H4B 4003   5.628   6.108   6.983 -0.3239  0.1010  0.2854
   55CHL1    C5 4004   5.732   6.143   7.167  0.1976  0.6390  0.0082
   55CHL1    C6 4005   5.650   6.059   7.235 -0.6594  0.6617 -0.0077
   55CHL1    H6 4006   5.565   6.011   7.184 -0.2208  2.1187 -2.2903
   55CHL1    C7 4007   5.671   6.032   7.377 -0.7695  0.7087 -0.1330
   55CHL1   H7A 4008   5.571   6.022   7.425 -0.1550 -0.6407  0.9320
   55CHL1   H7B 4009   5.722   5.933   7.380 -2.7413 -0.3964 -1.0335
   55CHL1    C8 4010   5.765   6.133   7.455  0.1786  0.2693  0.5503
   55CHL1    H8 4011   5.697   6.221   7.468 -0.9982 -0.7572  1.5932
   55CHL1   C14 4012   5.811   6.071   7.583  0.2243  0.1127 -0.2001
   55CHL1   H14 4013   5.875   5.983   7.562 -1.3009 -1.7153  2.3523
   55CHL1   C15 4014   5.689   6.020   7.669  0.5085 -0.1774  0.4640
   55CHL1  H15A 4015   5.602   6.089   7.670 -0.9768 -1.9714  0.7897
   55CHL1  H15B 4016   5.655   5.919   7.639 -0.3256  0.3702 -0.4999
   55CHL1   C16 4017   5.745   6.018   7.815 -0.1164  0.7480 -0.2639
   55CHL1  H16A 4018   5.684   6.081   7.883  0.0818 -0.2058  0.8171
   55CHL1  H16B 4019   5.749   5.918   7.862  0.7671  1.1011  0.4421
   55CHL1   C17 4020   5.893   6.080   7.798 -0.0061  0.2453 -0.4400
   55CHL1   H17 4021   5.966   6.002   7.766  0.1477 -0.1220  0.7596
   55CHL1   C13 4022   5.885   6.163   7.666  0.0385 -1.0651 -0.6583
   55CHL1   C18 4023   5.807   6.292   7.703  0.4178  0.0218 -0.3493
   55CHL1  H18A 4024   5.762   6.344   7.616 -0.4920  0.4835  0.3776
   55CHL1  H18B 4025   5.718   6.279   7.768  1.4183  0.3258  1.1458
   55CHL1  H18C 4026   5.859   6.369   7.764  0.6017 -0.6480  0.3723
   55CHL1   C12 4027   6.012   6.203   7.602 -0.1399  0.1655  0.1429
   55CHL1  H12A 4028   6.058   6.276   7.673  0.7936 -2.0565  1.9301
   55CHL1  H12B 4029   6.081   6.116   7.604  0.4488  0.5931  3.2175
   55CHL1   C11 4030   5.987   6.249   7.460  0.2069  0.2741 -0.8337
   55CHL1  H11A 4031   5.944   6.350   7.470 -1.3922 -0.5142  1.0960
   55CHL1  H11B 4032   6.080   6.254   7.400  0.2967 -2.3969 -1.0474
   55CHL1    C9 4033   5.892   6.159   7.377 -0.2545  0.1685  0.8719
   55CHL1    H9 4034   5.934   6.057   7.361  0.2135  0.8308 -3.6542
   55CHL1   C10 4035   5.867   6.207   7.227 -0.7921  0.0755  1.0070
   55CHL1   C19 4036   5.828   6.352   7.233  0.1543 -0.3696 -0.7399
   55CHL1  H19A 4037   5.796   6.399   7.137 -1.2778  0.7610  0.2627
   55CHL1  H19B 4038   5.749   6.372   7.308  0.7141 -1.5309  0.1766
   55CHL1  H19C 4039   5.915   6.412   7.267  1.1533 -0.8776 -2.2975
   55CHL1    C1 4040   5.984   6.175   7.138 -0.2007  0.2659 -0.6540
   55CHL1   H1A 4041   6.075   6.228   7.173  0.0647 -1.0141  0.6582
   55CHL1   H1B 4042   6.024   6.073   7.155  1.8766  1.1024 -0.1142
   55CHL1    C2 4043   5.959   6.196   6.991  0.6370  0.0875 -0.4961
   55CHL1   H2A 4044   6.051   6.180   6.931 -0.1588  1.5674 -2.2164
   55CHL1   H2B 4045   5.934   6.304   6.976  0.4162  0.0800 -0.1851
   55CHL1   C20 4046   5.952   6.138   7.934  1.0445  0.2003 -0.3049
   55CHL1   H20 4047   5.918   6.243   7.946  1.3413  0.0725  2.1243
   55CHL1   C21 4048   6.108   6.131   7.922  0.4727  0.1204  0.5937
   55CHL1  H21A 4049   6.154   6.206   7.990 -0.5722  1.4248 -0.0794
   55CHL1  H21B 4050   6.133   6.164   7.818 -1.0391 -1.8815 -0.4784
   55CHL1  H21C 4051   6.142   6.029   7.950  0.9131 -0.2230 -1.0376
   55CHL1   C22 4052   5.896   6.066   8.063 -0.6418 -0.0023 -0.1370
   55CHL1  H22A 4053   5.787   6.080   8.080 -0.6907 -0.2604 -0.2383
   55CHL1  H22B 4054   5.914   5.957   8.050 -0.4877 -0.4164  2.8475
   55CHL1   C23 4055   5.958   6.108   8.197  0.4657  0.6409  0.0368
   55CHL1  H23A 4056   6.069   6.101   8.195  0.4844  0.6932  0.6014
   55CHL1  H23B 4057   5.918   6.205   8.234 -2.0181 -0.2323 -0.2081
   55CHL1   C24 4058   5.924   6.014   8.315  0.1245  0.6439  0.3143
   55CHL1  H24A 4059   5.817   5.985   8.307  0.1726 -0.3721  2.5478
   55CHL1  H24B 4060   5.980   5.922   8.290  0.0257  0.4718  0.7079
   55CHL1   C25 4061   5.967   6.075   8.453  0.1612 -0.5683 -0.0077
   55CHL1   H25 4062   5.927   6.179   8.455  0.4352 -0.4656  0.1414
   55CHL1   C26 4063   5.902   5.992   8.566  0.0582  0.3389 -0.7474
   55CHL1  H26A 4064   5.927   6.019   8.671 -0.8758 -0.1298 -0.3968
   55CHL1  H26B 4065   5.794   5.970   8.552 -0.1031  0.2314  0.5149
   55CHL1  H26C 4066   5.942   5.888   8.557  1.4296  0.6580  1.0298
   55CHL1   C27 4067   6.115   6.089   8.473 -0.4356  0.0972  0.2997
   55CHL1  H27A 4068   6.168   5.991   8.474  1.0526  0.8580 -0.6322
   55CHL1  H27B 4069   6.149   6.154   8.390 -0.4115 -0.8283 -0.4373
   55CHL1  H27C 4070   6.139   6.137   8.570 -0.1017 -1.3225  0.9424
   56CHL1    C3 4071   4.201   2.436   6.845 -0.1292 -0.3126  0.6574
   56CHL1    H3 4072   4.304   2.398   6.862 -0.4378 -1.5162 -0.0286
   56CHL1    O3 4073   4.176   2.410   6.708 -0.0427  0.1916  0.0574
   56CHL1   H3' 4074   4.081   2.405   6.703  0.0066 -0.1334 -0.7319
   56CHL1    C4 4075   4.108   2.357   6.928 -0.2622  0.3511  0.1504
   56CHL1   H4A 4076   4.003   2.366   6.895 -1.1868  3.1103  3.3660
   56CHL1   H4B 4077   4.140   2.252   6.910  0.9597  0.3629  2.0498
   56CHL1    C5 4078   4.107   2.388   7.074  0.2702  0.6046 -0.6488
   56CHL1    C6 4079   4.145   2.301   7.169  0.5020  1.0811 -0.0276
   56CHL1    H6 4080   4.168   2.198   7.137  0.7422  0.6432  1.4873
   56CHL1    C7 4081   4.150   2.322   7.320  0.3073  0.5839 -0.3543
   56CHL1   H7A 4082   4.110   2.232   7.371  2.8897 -0.8298 -0.6441
   56CHL1   H7B 4083   4.257   2.330   7.349  0.3955 -2.3588  0.4907
   56CHL1    C8 4084   4.074   2.454   7.353  0.0076  0.6089  0.2342
   56CHL1    H8 4085   3.965   2.441   7.341  0.3504 -0.8666 -1.7232
   56CHL1   C14 4086   4.101   2.494   7.496  0.1877 -0.2042  1.0988
   56CHL1   H14 4087   4.210   2.517   7.495  0.4105 -1.1416 -0.9713
   56CHL1   C15 4088   4.085   2.390   7.611  0.3195 -0.1485 -0.6919
   56CHL1  H15A 4089   3.985   2.347   7.587 -0.8930  1.3623  1.3827
   56CHL1  H15B 4090   4.169   2.318   7.612 -0.1976 -0.7802 -1.2649
   56CHL1   C16 4091   4.077   2.481   7.735  0.0596  0.0340  0.0431
   56CHL1  H16A 4092   3.974   2.471   7.777  0.0679 -0.9071 -0.1362
   56CHL1  H16B 4093   4.149   2.464   7.818  0.1459  1.6588  0.3439
   56CHL1   C17 4094   4.087   2.633   7.684  0.2992 -0.5355  0.0263
   56CHL1   H17 4095   4.195   2.660   7.676  0.0312  0.2905 -0.8969
   56CHL1   C13 4096   4.042   2.632   7.543  0.5957  0.4497  0.1262
   56CHL1   C18 4097   3.886   2.633   7.531  0.1766  0.0011  0.2121
   56CHL1  H18A 4098   3.848   2.736   7.548  0.7723  0.2784 -0.1125
   56CHL1  H18B 4099   3.853   2.602   7.430  0.1905 -2.3629  0.8707
   56CHL1  H18C 4100   3.836   2.572   7.610 -1.1117  1.7259  0.7941
   56CHL1   C12 4101   4.103   2.735   7.450  0.4412  0.4431 -0.1317
   56CHL1  H12A 4102   4.056   2.833   7.468 -3.2319 -1.0286 -0.7925
   56CHL1  H12B 4103   4.214   2.736   7.461  0.4865  0.0076 -0.5100
   56CHL1   C11 4104   4.076   2.704   7.301 -0.2383  0.6165  0.8054
   56CHL1  H11A 4105   3.967   2.715   7.287 -0.4795 -2.0852  0.1635
   56CHL1  H11B 4106   4.130   2.789   7.253 -0.7252  2.0434  2.6752
   56CHL1    C9 4107   4.124   2.561   7.253 -0.4919 -0.0982  0.1207
   56CHL1    H9 4108   4.233   2.542   7.265 -0.7986 -0.4468  3.3206
   56CHL1   C10 4109   4.086   2.534   7.105  0.5220 -0.8549  0.6074
   56CHL1   C19 4110   3.942   2.582   7.066 -0.1209  0.6103  0.8266
   56CHL1  H19A 4111   3.938   2.693   7.067  1.1969  0.6666  0.9875
   56CHL1  H19B 4112   3.907   2.548   6.965  1.2099  0.7226  0.3103
   56CHL1  H19C 4113   3.872   2.535   7.139 -1.4865 -0.1823 -0.9072
   56CHL1    C1 4114   4.189   2.615   7.022  0.0734  0.0576 -0.8427
   56CHL1   H1A 4115   4.175   2.723   7.045  0.4992 -0.1370  0.4212
   56CHL1   H1B 4116   4.294   2.598   7.054 -0.1567 -2.1016 -1.0946
   56CHL1    C2 4117   4.181   2.589   6.878  0.2622  0.2045 -0.5661
   56CHL1   H2A 4118   4.250   2.660   6.828  0.2287 -1.3828 -3.0363
   56CHL1   H2B 4119   4.077   2.601   6.840 -0.0062  0.6475  0.2893
   56CHL1   C20 4120   4.022   2.732   7.782  0.4992 -0.0824  0.0811
   56CHL1   H20 4121   3.913   2.716   7.772  0.4309 -0.4221  1.2894
   56CHL1   C21 4122   4.062   2.877   7.736  0.1645  0.1878 -0.0655
   56CHL1  H21A 4123   4.172   2.884   7.718  0.0566  0.2144 -0.7405
   56CHL1  H21B 4124   4.019   2.952   7.805  0.6420  1.6120 -1.2653
   56CHL1  H21C 4125   4.007   2.906   7.644  3.1199  0.4902 -1.8893
   56CHL1   C22 4126   4.065   2.711   7.932  0.1853  0.1458 -1.0413
   56CHL1  H22A 4127   4.043   2.608   7.966 -0.9556  0.3987 -0.9782
   56CHL1  H22B 4128   4.176   2.712   7.941  0.1049  0.0147  0.0322
   56CHL1   C23 4129   4.005   2.808   8.034 -0.0381  0.8480  0.0036
   56CHL1  H23A 4130   4.020   2.913   7.998 -0.7507  0.8532 -0.2871
   56CHL1  H23B 4131   3.896   2.787   8.030  0.2893 -0.8259 -0.9261
   56CHL1   C24 4132   4.070   2.781   8.175  0.4694  0.1660 -0.3980
   56CHL1  H24A 4133   4.065   2.672   8.198  1.1003  0.2549  0.1967
   56CHL1  H24B 4134   4.176   2.812   8.172  0.2160  1.2942  0.9520
   56CHL1   C25 4135   4.013   2.864   8.289  0.7808  0.0375  0.5337
   56CHL1   H25 4136   3.918   2.817   8.321 -0.4127  1.9145 -0.1441
   56CHL1   C26 4137   4.109   2.848   8.415 -0.2641  0.0506  0.4470
   56CHL1  H26A 4138   4.117   2.738   8.425 -0.6636 -0.2195 -1.7013
   56CHL1  H26B 4139   4.068   2.891   8.509  0.4124  2.2267 -0.1781
   56CHL1  H26C 4140   4.206   2.895   8.389 -1.0320  1.6681  0.3067
   56CHL1   C27 4141   3.978   3.009   8.262 -0.4767  0.3045  0.5559
   56CHL1  H27A 4142   3.899   3.020   8.184 -2.0482 -0.2898  1.9883
   56CHL1  H27B 4143   3.936   3.048   8.357  0.4326 -2.3671  2.1700
   56CHL1  H27C 4144   4.069   3.065   8.232 -0.6027  1.1555  1.6889
   57SAPC     N 4145   4.775   6.552  10.649 -0.0250 -0.2081 -0.2787
   57SAPC   C12 4146   4.819   6.693  10.662  0.2080 -0.9436 -0.1510
   57SAPC  H12A 4147   4.753   6.738  10.735  0.3596  1.1671 -1.2311
   57SAPC  H12B 4148   4.808   6.745  10.568  0.8940 -1.6879 -0.6547
   57SAPC   C13 4149   4.621   6.536  10.639 -0.2612  0.6267 -0.1054
   57SAPC  H13A 4150   4.598   6.431  10.639  0.8391  0.3210  1.9995
   57SAPC  H13B 4151   4.573   6.587  10.721  1.2885  0.1843  1.1438
   57SAPC  H13C 4152   4.585   6.575  10.545  0.6028  1.3178 -0.1664
   57SAPC   C14 4153   4.830   6.489  10.526 -0.3810 -0.0569  0.4651
   57SAPC  H14A 4154   4.938   6.486  10.527 -0.4011 -0.7270  0.8664
   57SAPC  H14B 4155   4.801   6.385  10.530 -1.3813  0.2584  2.5908
   57SAPC  H14C 4156   4.790   6.527  10.433  0.5171 -1.4011 -0.5098
   57SAPC   C15 4157   4.821   6.477  10.770  0.1730  0.5087  0.3670
   57SAPC  H15A 4158   4.928   6.465  10.763 -0.1226 -1.7960 -2.0280
   57SAPC  H15B 4159   4.789   6.522  10.863 -1.3737  0.8924 -0.3142
   57SAPC  H15C 4160   4.795   6.372  10.771  1.2926  0.2212  1.1415
   57SAPC   C11 4161   4.957   6.713  10.707 -0.1924 -0.5798 -0.4109
   57SAPC  H11A 4162   4.955   6.700  10.817  2.9330  0.0780 -0.1708
   57SAPC  H11B 4163   4.983   6.820  10.689 -1.8799 -0.4609 -2.5815
   57SAPC     P 4164   5.198   6.653  10.669 -0.7078  0.0670 -0.2968
   57SAPC   O13 4165   5.235   6.786  10.716  0.5016  0.1157  0.0065
   57SAPC   O14 4166   5.231   6.545  10.764 -0.1779  0.6547  0.3764
   57SAPC   O12 4167   5.047   6.642  10.632 -0.2559 -0.4376  0.0136
   57SAPC   O11 4168   5.261   6.628  10.528 -1.0557  0.1361  0.2587
   57SAPC    C1 4169   5.234   6.735  10.434  0.1030  0.1461  0.5672
   57SAPC    HA 4170   5.221   6.836  10.479 -0.3881  0.5993 -0.5620
   57SAPC    HB 4171   5.322   6.746  10.366  0.2551 -0.1907  0.7071
   57SAPC    C2 4172   5.117   6.708  10.330  0.0881 -0.1637  0.0324
   57SAPC    HS 4173   5.017   6.719  10.377 -1.8381 -0.2591 -3.6469
   57SAPC   O21 4174   5.131   6.575  10.276 -0.1931  0.4476 -0.1360
   57SAPC   C21 4175   5.027   6.532  10.208  0.4381 -1.3165  0.3313
   57SAPC   O22 4176   4.917   6.593  10.202 -0.5001  0.1048  0.8087
   57SAPC   C22 4177   5.051   6.390  10.158 -0.1820  0.1079  0.7520
   57SAPC   H2R 4178   5.112   6.335  10.233  1.3141  1.5331  0.6390
   57SAPC   H2S 4179   4.952   6.339  10.156 -0.8160  1.3183 -0.6626
   57SAPC    C3 4180   5.110   6.829  10.221  0.0162 -0.8091  0.2963
   57SAPC    HX 4181   5.061   6.920  10.261  2.0016  0.1386  0.7218
   57SAPC    HY 4182   5.051   6.806  10.130 -1.2545  3.1369 -0.0796
   57SAPC   O31 4183   5.240   6.868  10.182 -0.2139 -0.4168  0.7071
   57SAPC   C31 4184   5.300   6.799  10.082 -0.1850 -0.2701 -0.5556
   57SAPC   O32 4185   5.249   6.712  10.016  0.5971 -0.1875  0.3381
   57SAPC   C32 4186   5.437   6.867  10.059  0.3533 -0.1404  0.2170
   57SAPC   H2X 4187   5.485   6.849  10.157 -1.4179 -0.2861  1.0969
   57SAPC   H2Y 4188   5.429   6.976  10.041  0.7371 -0.5627 -3.4685
   57SAPC   C23 4189   5.124   6.380  10.018 -0.2511  0.1171 -0.2762
   57SAPC   H3R 4190   5.120   6.271   9.996 -0.2122  0.0187  0.1907
   57SAPC   H3S 4191   5.227   6.420  10.017 -0.8089  1.6668  0.3800
   57SAPC   C24 4192   5.052   6.443   9.901 -0.8359  0.2703  0.1866
   57SAPC   H4R 4193   5.065   6.552   9.918 -0.4839  0.0501  1.4376
   57SAPC   H4S 4194   4.945   6.414   9.911 -0.3507 -1.6394  0.2685
   57SAPC   C25 4195   5.101   6.399   9.764 -0.0063 -0.4817  0.6000
   57SAPC   H5R 4196   5.197   6.448   9.741  0.7699 -1.8600  0.7587
   57SAPC   C26 4197   5.046   6.316   9.671  0.0339 -0.1306 -0.4160
   57SAPC   H6R 4198   5.096   6.306   9.573 -2.3798  0.0492 -1.7475
   57SAPC   C27 4199   4.916   6.239   9.684  1.2317 -0.2553 -0.4484
   57SAPC   H7R 4200   4.902   6.199   9.786  0.2142  0.8818 -0.1211
   57SAPC   H7S 4201   4.906   6.158   9.609 -1.5558  1.0424 -1.6147
   57SAPC   C28 4202   4.794   6.330   9.653  0.5887 -0.1508 -0.0085
   57SAPC   H8R 4203   4.725   6.348   9.737  0.7266 -0.0246  0.0779
   57SAPC   C29 4204   4.757   6.390   9.540 -0.4253  0.2163  0.2569
   57SAPC   H9R 4205   4.669   6.455   9.543 -0.7106 -0.1391 -0.2050
   57SAPC  C210 4206   4.841   6.379   9.414 -0.2852 -0.2760 -0.3594
   57SAPC  H10R 4207   4.825   6.276   9.376 -0.1209 -0.0983 -0.9148
   57SAPC  H10S 4208   4.947   6.398   9.440 -0.7555  2.1336  0.1067
   57SAPC  C211 4209   4.809   6.475   9.302  0.7862  0.1384  0.2918
   57SAPC  H11R 4210   4.761   6.567   9.338 -1.2602 -0.8673  0.2885
   57SAPC  C212 4211   4.835   6.463   9.168 -0.7106 -0.1453 -0.4634
   57SAPC  H12R 4212   4.799   6.535   9.093 -1.0027  1.4703  1.1587
   57SAPC  C213 4213   4.919   6.362   9.106  0.1835 -0.5959 -0.7494
   57SAPC  H13R 4214   4.981   6.304   9.179  0.0926  0.9104  0.5825
   57SAPC  H13S 4215   4.995   6.418   9.048 -1.7122  1.5388 -1.3036
   57SAPC  C214 4216   4.842   6.255   9.033  0.1020  0.0121 -0.1418
   57SAPC  H14R 4217   4.758   6.209   9.088  0.8358 -1.5934 -0.2885
   57SAPC  C215 4218   4.874   6.201   8.911  0.3707  1.0578 -0.2187
   57SAPC  H15R 4219   4.819   6.110   8.885 -0.6002  1.6196 -0.1892
   57SAPC  C216 4220   4.989   6.232   8.825 -0.1515 -0.7140  0.1909
   57SAPC  H16R 4221   5.072   6.288   8.872  0.7010 -2.2830  0.6310
   57SAPC  H16S 4222   4.952   6.290   8.738  2.2748  1.0269  0.2166
   57SAPC  C217 4223   5.075   6.121   8.771  0.2583  0.7916  0.2786
   57SAPC  H17R 4224   5.129   6.163   8.683  0.7325 -1.6893 -0.7040
   57SAPC  H17S 4225   5.002   6.050   8.726  1.6102 -0.3285 -0.2253
   57SAPC  C218 4226   5.183   6.057   8.863  0.5949 -0.2390  0.2399
   57SAPC  H18R 4227   5.140   6.016   8.957 -0.5775 -0.2792 -0.2945
   57SAPC  H18S 4228   5.256   6.138   8.887  2.0996 -0.9864 -1.5177
   57SAPC  C219 4229   5.252   5.934   8.799  0.2205 -0.6165  0.3966
   57SAPC  H19R 4230   5.282   5.957   8.694 -2.4434  1.4041 -0.0164
   57SAPC  H19S 4231   5.189   5.844   8.786  1.7015 -1.5752 -0.4717
   57SAPC  C220 4232   5.377   5.899   8.882 -0.2527  0.3268  0.1923
   57SAPC  H20R 4233   5.463   5.968   8.864  0.6083 -0.1587  2.2504
   57SAPC  H20S 4234   5.418   5.799   8.856 -1.2543  0.3118 -1.4714
   57SAPC  H20T 4235   5.350   5.908   8.989 -2.0721  0.1136 -0.2168
   57SAPC   C33 4236   5.503   6.806   9.941 -0.8501  0.4437 -0.1619
   57SAPC   H3X 4237   5.495   6.695   9.944 -0.4346  0.4379  1.2548
   57SAPC   H3Y 4238   5.608   6.837   9.960 -1.3749  1.5224  1.0943
   57SAPC   C34 4239   5.467   6.864   9.805  0.2433 -0.0932 -0.7022
   57SAPC   H4X 4240   5.483   6.974   9.811 -2.1206  0.3366 -1.3214
   57SAPC   H4Y 4241   5.357   6.854   9.793 -0.2693  1.6777  1.7166
   57SAPC   C35 4242   5.543   6.808   9.688 -0.6087 -0.6401  0.4003
   57SAPC   H5X 4243   5.522   6.701   9.670  0.0039 -0.7576  0.3592
   57SAPC   H5Y 4244   5.649   6.809   9.721 -0.5692  3.5722  0.7205
   57SAPC   C36 4245   5.532   6.895   9.552 -0.5845  0.4928  0.3402
   57SAPC   H6X 4246   5.548   7.001   9.581  0.3125  0.9979 -1.8483
   57SAPC   H6Y 4247   5.426   6.873   9.526 -0.7663  1.6949  0.0157
   57SAPC   C37 4248   5.636   6.861   9.445 -0.4432 -0.4960 -0.9032
   57SAPC   H7X 4249   5.618   6.753   9.423  0.0898 -0.4673 -1.5009
   57SAPC   H7Y 4250   5.734   6.893   9.486 -1.3372  1.2207  0.0215
   57SAPC   C38 4251   5.616   6.955   9.326  0.5531  0.2449  0.6224
   57SAPC   H8X 4252   5.602   7.060   9.359 -0.8351 -0.3118  1.9177
   57SAPC   H8Y 4253   5.526   6.930   9.266  0.7188  0.7431  0.1573
   57SAPC   C39 4254   5.734   6.947   9.221  0.2388  0.0898  0.0381
   57SAPC   H9X 4255   5.739   6.843   9.182 -1.2611  0.1641 -0.4347
   57SAPC   H9Y 4256   5.831   6.964   9.273  2.1608 -4.0590 -1.7472
   57SAPC  C310 4257   5.712   7.038   9.097  0.4445 -0.7659  0.0268
   57SAPC  H10X 4258   5.798   7.042   9.027 -0.0291 -1.7917 -0.6528
   57SAPC  H10Y 4259   5.711   7.145   9.126  1.2477 -0.7840  0.1482
   57SAPC  C311 4260   5.576   7.027   9.025 -0.1782 -0.0155  0.3162
   57SAPC  H11X 4261   5.489   7.024   9.095 -0.1203 -2.4280  0.3726
   57SAPC  H11Y 4262   5.585   6.929   8.972  1.0081 -0.2525  0.9064
   57SAPC  C312 4263   5.546   7.144   8.928  0.7479 -0.2257 -0.1342
   57SAPC  H12X 4264   5.641   7.178   8.883  0.7303 -0.4246 -0.3259
   57SAPC  H12Y 4265   5.497   7.225   8.986 -0.1670  0.4814 -1.8135
   57SAPC  C313 4266   5.457   7.090   8.813 -0.2441  0.1045  0.0705
   57SAPC  H13X 4267   5.423   7.173   8.748  0.2351 -2.0915 -3.2113
   57SAPC  H13Y 4268   5.364   7.047   8.856 -1.0400  2.1760  0.5358
   57SAPC  C314 4269   5.535   6.994   8.720 -0.2607  0.1010 -0.0921
   57SAPC  H14X 4270   5.544   6.895   8.768  2.2733  1.1414  1.8154
   57SAPC  H14Y 4271   5.636   7.040   8.712  0.6071 -1.6805  0.2755
   57SAPC  C315 4272   5.480   6.980   8.576 -0.7787 -1.0057  0.1553
   57SAPC  H15X 4273   5.459   7.084   8.541  0.6313  0.3274  2.9394
   57SAPC  H15Y 4274   5.384   6.924   8.569 -1.3268  0.0959 -2.6643
   57SAPC  C316 4275   5.583   6.918   8.479  0.1026  0.0802  0.3310
   57SAPC  H16X 4276   5.631   6.825   8.516  0.3961  0.3969  0.7676
   57SAPC  H16Y 4277   5.667   6.991   8.471  1.1851 -0.9573  1.7423
   57SAPC  C317 4278   5.514   6.905   8.337  0.1186  0.7163 -0.0556
   57SAPC  H17X 4279   5.464   7.000   8.311 -1.0383 -0.6095 -3.1706
   57SAPC  H17Y 4280   5.432   6.835   8.363  0.0211  1.3518  1.4535
   57SAPC  C318 4281   5.607   6.864   8.230  0.2721  0.3670 -0.0222
   57SAPC  H18X 4282   5.554   6.854   8.133 -2.9312 -0.0107  1.6325
   57SAPC  H18Y 4283   5.657   6.768   8.255 -0.8323  0.3143  2.2839
   57SAPC  H18Z 4284   5.688   6.940   8.222  0.3331  0.8896  3.8293
   58SAPC     N 4285   0.349   3.511  10.731  0.8792  0.8772  0.3038
   58SAPC   C12 4286   0.348   3.576  10.590  0.9228  0.5022  0.1710
   58SAPC  H12A 4287   0.267   3.646  10.579  0.1390 -0.6149 -1.8620
   58SAPC  H12B 4288   0.341   3.505  10.508  2.5053  0.9605 -0.4200
   58SAPC   C13 4289   0.471   3.435  10.766 -0.2743 -0.4189 -0.3841
   58SAPC  H13A 4290   0.500   3.428  10.869  0.4082  1.6423 -0.3953
   58SAPC  H13B 4291   0.476   3.335  10.725 -1.7734 -1.8879  2.7369
   58SAPC  H13C 4292   0.554   3.485  10.717 -1.4902  1.5963 -0.4627
   58SAPC   C14 4293   0.323   3.623  10.830  0.6128  0.1154  0.8121
   58SAPC  H14A 4294   0.362   3.714  10.788  0.0857  0.2262  0.5538
   58SAPC  H14B 4295   0.217   3.632  10.846  0.2585  1.0285 -1.6949
   58SAPC  H14C 4296   0.375   3.601  10.923 -1.4098 -3.3079  1.3106
   58SAPC   C15 4297   0.234   3.412  10.733  0.2483  0.0630  0.4665
   58SAPC  H15A 4298   0.225   3.367  10.831 -0.0433 -1.2862 -0.1571
   58SAPC  H15B 4299   0.142   3.467  10.720 -0.2454 -0.4920  1.4868
   58SAPC  H15C 4300   0.249   3.332  10.663 -0.4666 -0.3550  0.7740
   58SAPC   C11 4301   0.479   3.652  10.552 -0.1470 -0.1379  0.1512
   58SAPC  H11A 4302   0.461   3.668  10.443  0.0000 -0.9991 -0.0104
   58SAPC  H11B 4303   0.571   3.590  10.555  0.4429  0.5603 -1.5615
   58SAPC     P 4304   0.466   3.915  10.573 -0.2817  0.1668 -0.1545
   58SAPC   O13 4305   0.318   3.924  10.560 -0.4104  0.0611  0.5450
   58SAPC   O14 4306   0.531   4.020  10.656  0.1561 -0.1016  0.6352
   58SAPC   O12 4307   0.504   3.772  10.640  0.9103  0.1490  0.0257
   58SAPC   O11 4308   0.536   3.931  10.427  0.2833 -0.0254 -0.2990
   58SAPC    C1 4309   0.668   3.878  10.416 -0.3880 -0.0593  0.3656
   58SAPC    HA 4310   0.736   3.919  10.494 -0.9807  0.3814  0.6591
   58SAPC    HB 4311   0.667   3.769  10.435 -1.1416 -0.0196  0.5926
   58SAPC    C2 4312   0.717   3.902  10.270  0.4124  0.0862  0.1458
   58SAPC    HS 4313   0.827   3.885  10.264  0.5788  1.0944  0.0992
   58SAPC   O21 4314   0.700   4.032  10.225 -0.6966  0.0642 -0.5423
   58SAPC   C21 4315   0.766   4.130  10.283 -0.3075 -0.2527  0.2517
   58SAPC   O22 4316   0.847   4.124  10.371  0.2761  0.0052  0.1537
   58SAPC   C22 4317   0.715   4.262  10.217  0.2301 -0.2385 -0.5105
   58SAPC   H2R 4318   0.609   4.253  10.186 -0.6731 -0.2063  2.2815
   58SAPC   H2S 4319   0.717   4.333  10.303 -0.1482 -1.3923  0.4921
   58SAPC    C3 4320   0.635   3.804  10.179 -0.3603  0.5882 -0.3662
   58SAPC    HX 4321   0.528   3.814  10.207 -1.1562 -2.7640 -1.6424
   58SAPC    HY 4322   0.675   3.702  10.199  0.7897  0.9074 -0.9969
   58SAPC   O31 4323   0.674   3.829  10.047  0.0342  0.7098 -0.1500
   58SAPC   C31 4324   0.599   3.909   9.974  0.0398  0.2743  0.3059
   58SAPC   O32 4325   0.485   3.944  10.007  0.0898  0.0191  0.0264
   58SAPC   C32 4326   0.683   3.932   9.846 -1.0270 -0.1417 -0.3792
   58SAPC   H2X 4327   0.784   3.889   9.860 -0.5777  0.8861 -0.3651
   58SAPC   H2Y 4328   0.702   4.041   9.835  2.7891 -0.5687  0.6293
   58SAPC   C23 4329   0.804   4.320  10.097  0.8919  0.8204 -0.2343
   58SAPC   H3R 4330   0.839   4.256  10.013  0.4910  0.3153 -0.0234
   58SAPC   H3S 4331   0.898   4.356  10.145  0.9828 -0.1534  0.3338
   58SAPC   C24 4332   0.744   4.439  10.034 -0.0621 -0.3899  0.1685
   58SAPC   H4R 4333   0.829   4.489   9.984  0.9476 -1.9883  0.2196
   58SAPC   H4S 4334   0.696   4.502  10.111 -0.9002  0.9100 -1.3629
   58SAPC   C25 4335   0.630   4.430   9.933 -0.4344  0.1957 -0.2092
   58SAPC   H5R 4336   0.528   4.453   9.967 -1.0672 -0.8358 -1.3433
   58SAPC   C26 4337   0.629   4.401   9.803 -0.3658 -0.2634 -0.7864
   58SAPC   H6R 4338   0.532   4.392   9.751  0.7042 -1.6184 -2.6457
   58SAPC   C27 4339   0.748   4.368   9.721 -0.1923 -0.5420 -0.0990
   58SAPC   H7R 4340   0.822   4.317   9.785 -0.1696  1.8377  1.9274
   58SAPC   H7S 4341   0.798   4.461   9.685  0.8342  0.1680  2.8763
   58SAPC   C28 4342   0.704   4.280   9.605  0.3427  0.2576 -0.1288
   58SAPC   H8R 4343   0.716   4.173   9.629  0.5640  0.8406  2.7078
   58SAPC   C29 4344   0.662   4.321   9.484 -0.1656  0.7286 -0.4676
   58SAPC   H9R 4345   0.631   4.239   9.418  0.3478  1.2678 -1.4007
   58SAPC  C210 4346   0.640   4.457   9.433  0.1158 -0.8452  0.2001
   58SAPC  H10R 4347   0.639   4.534   9.514  1.7599  0.7317 -1.1896
   58SAPC  H10S 4348   0.535   4.456   9.394  0.3093  1.0843 -0.5012
   58SAPC  C211 4349   0.735   4.510   9.327 -0.4957  0.6823 -0.2973
   58SAPC  H11R 4350   0.827   4.557   9.365  1.2873 -2.1444 -0.7906
   58SAPC  C212 4351   0.727   4.489   9.195  0.1031  1.3417  0.5119
   58SAPC  H12R 4352   0.803   4.526   9.124  0.7961 -0.0433  0.5024
   58SAPC  C213 4353   0.613   4.413   9.125  0.5137  0.2505  0.3619
   58SAPC  H13R 4354   0.520   4.469   9.147  0.4696  0.9085 -1.3619
   58SAPC  H13S 4355   0.595   4.312   9.167 -0.9548 -0.1933 -1.2140
   58SAPC  C214 4356   0.623   4.409   8.972  0.0386  0.7105 -0.2915
   58SAPC  H14R 4357   0.553   4.475   8.920 -1.1839 -0.8969 -0.7470
   58SAPC  C215 4358   0.714   4.341   8.893  0.1504  0.5985  0.2110
   58SAPC  H15R 4359   0.704   4.353   8.784 -0.7197  1.0352  0.3258
   58SAPC  C216 4360   0.826   4.254   8.953  0.4986 -0.1953  0.2018
   58SAPC  H16R 4361   0.824   4.156   8.900  0.0088 -0.0463 -0.0673
   58SAPC  H16S 4362   0.801   4.219   9.055 -1.7768  1.8398  0.4307
   58SAPC  C217 4363   0.967   4.309   8.943  0.5920 -0.2762 -0.0140
   58SAPC  H17R 4364   1.035   4.236   8.991 -1.3180 -1.2882  1.3015
   58SAPC  H17S 4365   0.970   4.404   9.001 -1.2843  0.3806 -0.9000
   58SAPC  C218 4366   1.011   4.320   8.793 -0.5907  0.0891 -0.1649
   58SAPC  H18R 4367   0.933   4.362   8.726 -1.0663  0.2563  0.4924
   58SAPC  H18S 4368   1.028   4.214   8.763  1.8351  0.7488 -1.4437
   58SAPC  C219 4369   1.147   4.389   8.770  0.5426  0.1960  0.6242
   58SAPC  H19R 4370   1.224   4.349   8.839  0.3721  1.1450  1.3958
   58SAPC  H19S 4371   1.146   4.498   8.796  2.9130 -0.1708  2.6067
   58SAPC  C220 4372   1.202   4.367   8.627  0.4344 -0.2595  0.0209
   58SAPC  H20R 4373   1.289   4.433   8.604  0.4632  0.3052  1.6374
   58SAPC  H20S 4374   1.124   4.380   8.550  0.0676  0.5977  0.5205
   58SAPC  H20T 4375   1.243   4.264   8.622 -1.3893 -0.9704 -3.2510
   58SAPC   C33 4376   0.614   3.882   9.721  0.1359 -0.5254 -0.9291
   58SAPC   H3X 4377   0.526   3.945   9.698 -1.1907 -1.8138  0.4359
   58SAPC   H3Y 4378   0.587   3.774   9.730 -0.8554 -0.2985 -1.1732
   58SAPC   C34 4379   0.711   3.882   9.596 -0.0792 -0.1858  0.0396
   58SAPC   H4X 4380   0.767   3.787   9.585  0.4469  0.0180  0.9009
   58SAPC   H4Y 4381   0.793   3.954   9.617 -1.4749  1.2523  0.8344
   58SAPC   C35 4382   0.640   3.926   9.471 -0.8274  0.4377  0.8133
   58SAPC   H5X 4383   0.618   4.035   9.479 -0.8985  1.0464 -4.4495
   58SAPC   H5Y 4384   0.543   3.872   9.463 -0.2796 -0.4239 -0.3481
   58SAPC   C36 4385   0.712   3.902   9.348  0.1878  0.1091  0.0326
   58SAPC   H6X 4386   0.684   3.804   9.305  1.1848  0.0367 -0.4853
   58SAPC   H6Y 4387   0.822   3.899   9.367 -0.0866  0.1768  1.7979
   58SAPC   C37 4388   0.690   3.998   9.240 -0.4754 -0.0085  0.2131
   58SAPC   H7X 4389   0.748   3.971   9.150 -2.5975 -1.0797 -0.9124
   58SAPC   H7Y 4390   0.712   4.104   9.263 -0.1766  0.4897 -2.1270
   58SAPC   C38 4391   0.541   3.994   9.191  0.3319  0.1953  0.2262
   58SAPC   H8X 4392   0.480   4.039   9.271 -0.7115  0.2995 -0.5975
   58SAPC   H8Y 4393   0.514   3.886   9.182  0.3406  0.3122 -1.7802
   58SAPC   C39 4394   0.506   4.058   9.056  0.2285 -0.3916 -0.3032
   58SAPC   H9X 4395   0.550   4.158   9.033 -1.1255  0.2877 -0.0263
   58SAPC   H9Y 4396   0.397   4.075   9.047  0.1293 -1.4762 -1.3377
   58SAPC  C310 4397   0.540   3.972   8.936  0.5290  0.2308  0.6115
   58SAPC  H10X 4398   0.487   3.877   8.959  0.1294  0.5999  1.2471
   58SAPC  H10Y 4399   0.650   3.951   8.938  0.6800  0.8259 -0.6178
   58SAPC  C311 4400   0.482   4.030   8.807 -0.5334 -0.5900 -0.2512
   58SAPC  H11X 4401   0.519   4.134   8.791  0.7358 -1.1022 -0.7409
   58SAPC  H11Y 4402   0.371   4.030   8.819 -0.7040 -1.2405 -1.6219
   58SAPC  C312 4403   0.520   3.942   8.694  0.3284 -0.3969  0.4335
   58SAPC  H12X 4404   0.486   3.837   8.710 -0.3461 -0.5405 -1.6469
   58SAPC  H12Y 4405   0.631   3.945   8.688  0.2520  0.0954 -1.4472
   58SAPC  C313 4406   0.449   3.989   8.569  0.4208  0.0830 -0.1053
   58SAPC  H13X 4407   0.344   4.011   8.598 -0.2123 -0.1895 -2.0748
   58SAPC  H13Y 4408   0.440   3.906   8.496 -1.2873  0.9755 -0.9819
   58SAPC  C314 4409   0.511   4.112   8.501  0.5517 -0.2269 -0.2012
   58SAPC  H14X 4410   0.622   4.117   8.501  0.5349  0.6035 -1.4954
   58SAPC  H14Y 4411   0.462   4.201   8.546 -1.1772 -0.5956 -1.2293
   58SAPC  C315 4412   0.470   4.122   8.353 -0.6469 -0.0126  0.8048
   58SAPC  H15X 4413   0.360   4.131   8.340 -0.7081 -0.8498  0.6729
   58SAPC  H15Y 4414   0.503   4.030   8.301 -0.2403  1.0157 -0.8278
   58SAPC  C316 4415   0.523   4.240   8.268  0.3862  0.7290 -0.3326
   58SAPC  H16X 4416   0.489   4.229   8.163  0.4700  0.8503 -0.3726
   58SAPC  H16Y 4417   0.633   4.245   8.281  0.4393  3.0655 -1.1451
   58SAPC  C317 4418   0.469   4.372   8.322  0.5897 -0.8387 -0.5175
   58SAPC  H17X 4419   0.479   4.372   8.432 -0.4465 -2.0692 -0.3953
   58SAPC  H17Y 4420   0.359   4.377   8.310  0.2489 -4.0925  0.3508
   58SAPC  C318 4421   0.535   4.492   8.266 -0.1619 -0.0789  0.3113
   58SAPC  H18X 4422   0.641   4.512   8.294 -0.2703  1.8301 -0.4798
   58SAPC  H18Y 4423   0.484   4.584   8.299  1.2468  1.1151 -0.6847
   58SAPC  H18Z 4424   0.512   4.491   8.157 -0.9280  0.7357  0.4535
   59SAPC     N 4425   2.268   5.483  11.362  0.0768 -0.5522  0.5198
   59SAPC   C12 4426   2.242   5.619  11.287  0.2229  0.2728 -0.3122
   59SAPC  H12A 4427   2.340   5.659  11.267 -0.1932  1.7743  0.4991
   59SAPC  H12B 4428   2.189   5.684  11.355  0.1613  0.3756 -0.4574
   59SAPC   C13 4429   2.382   5.409  11.295  0.0160  0.0383 -0.1106
   59SAPC  H13A 4430   2.369   5.401  11.188 -1.1747  1.2312 -0.0861
   59SAPC  H13B 4431   2.479   5.451  11.317  0.0083 -0.8857  1.8950
   59SAPC  H13C 4432   2.385   5.304  11.320  1.3921 -0.0512 -0.5565
   59SAPC   C14 4433   2.310   5.526  11.494 -0.5123  0.5921  0.3457
   59SAPC  H14A 4434   2.398   5.585  11.470  0.4026 -0.3536  1.2909
   59SAPC  H14B 4435   2.236   5.590  11.540 -0.5945  1.0599 -0.4160
   59SAPC  H14C 4436   2.335   5.442  11.556 -1.4401  1.1825  1.5529
   59SAPC   C15 4437   2.149   5.397  11.374  0.2890 -0.2833 -0.3486
   59SAPC  H15A 4438   2.097   5.397  11.279 -2.2074 -0.1332  0.9264
   59SAPC  H15B 4439   2.181   5.298  11.400 -0.2276 -0.4846 -0.4759
   59SAPC  H15C 4440   2.082   5.432  11.452  1.4421 -0.6165  0.8306
   59SAPC   C11 4441   2.167   5.617  11.148  0.1857  0.5407 -0.5832
   59SAPC  H11A 4442   2.219   5.545  11.081 -3.1431 -1.1895 -1.5732
   59SAPC  H11B 4443   2.162   5.718  11.103  0.1089  0.6232 -0.3922
   59SAPC     P 4444   1.916   5.654  11.213  0.3445 -0.2589  0.0665
   59SAPC   O13 4445   1.791   5.593  11.160  0.0536  0.0514  0.3073
   59SAPC   O14 4446   1.918   5.672  11.363  0.3050  0.5212  0.0139
   59SAPC   O12 4447   2.036   5.560  11.171 -0.6420 -0.5958  0.8399
   59SAPC   O11 4448   1.947   5.797  11.151  0.1899 -0.5495 -0.0392
   59SAPC    C1 4449   1.857   5.884  11.080 -0.0402 -0.6042 -0.7835
   59SAPC    HA 4450   1.754   5.866  11.118  0.3915 -1.4996  0.0013
   59SAPC    HB 4451   1.894   5.988  11.098  1.5444 -1.1371 -0.7921
   59SAPC    C2 4452   1.857   5.851  10.928 -0.2037 -0.2165 -0.3711
   59SAPC    HS 4453   1.865   5.741  10.912  1.1918 -0.0482 -0.9549
   59SAPC   O21 4454   1.974   5.919  10.879  0.2200 -0.5536 -0.4149
   59SAPC   C21 4455   2.053   5.860  10.787  0.1050  0.0070  0.1157
   59SAPC   O22 4456   2.041   5.749  10.750  0.5581  0.1750 -0.4143
   59SAPC   C22 4457   2.162   5.951  10.732 -0.0713  0.7837  0.0378
   59SAPC   H2R 4458   2.122   6.050  10.700 -4.1142 -1.4966 -2.9034
   59SAPC   H2S 4459   2.228   5.975  10.818  1.9452  2.8185 -1.9361
   59SAPC    C3 4460   1.730   5.897  10.858  0.1863  0.0026  0.5141
   59SAPC    HX 4461   1.720   6.007  10.869 -0.7212 -0.0640  0.3978
   59SAPC    HY 4462   1.648   5.847  10.913 -0.8358  2.4623  1.3806
   59SAPC   O31 4463   1.728   5.847  10.722  0.1983 -0.3401 -0.5868
   59SAPC   C31 4464   1.783   5.921  10.631 -0.0544  0.1460  0.2656
   59SAPC   O32 4465   1.833   6.031  10.654  0.2046  0.0244 -0.1830
   59SAPC   C32 4466   1.799   5.847  10.501 -0.2587  0.3237  0.7509
   59SAPC   H2X 4467   1.697   5.825  10.462  0.8352  0.7170 -2.6252
   59SAPC   H2Y 4468   1.843   5.749  10.533  0.2412  0.1427 -0.4566
   59SAPC   C23 4469   2.232   5.894  10.614  1.0242 -0.0837 -0.4026
   59SAPC   H3R 4470   2.165   5.861  10.532  1.7473  0.9021 -1.4357
   59SAPC   H3S 4471   2.285   5.802  10.645 -0.6799 -0.6649  0.9731
   59SAPC   C24 4472   2.343   5.979  10.549 -0.6803  0.2169 -0.4540
   59SAPC   H4R 4473   2.421   5.987  10.628  0.4780 -0.8860 -1.4313
   59SAPC   H4S 4474   2.295   6.076  10.522 -3.1132 -0.9138 -0.4115
   59SAPC   C25 4475   2.413   5.919  10.432 -0.2889  0.3702  0.2248
   59SAPC   H5R 4476   2.450   5.816  10.446  1.2984  1.1545  2.4088
   59SAPC   C26 4477   2.431   5.968  10.307 -0.4376 -0.2564 -0.7045
   59SAPC   H6R 4478   2.489   5.911  10.233  0.2769 -2.4866  1.4524
   59SAPC   C27 4479   2.390   6.102  10.252  0.1194  0.3563 -0.0301
   59SAPC   H7R 4480   2.374   6.173  10.336  0.2863  0.6633 -0.2575
   59SAPC   H7S 4481   2.290   6.091  10.204 -0.0523 -1.0659  0.5991
   59SAPC   C28 4482   2.498   6.155  10.167 -0.3948 -0.2336  0.6486
   59SAPC   H8R 4483   2.565   6.220  10.224  0.4222 -0.6467  0.1818
   59SAPC   C29 4484   2.515   6.151  10.032  0.1234 -0.0715  1.3029
   59SAPC   H9R 4485   2.595   6.206   9.980 -0.0150 -0.2431  0.8973
   59SAPC  C210 4486   2.421   6.069   9.937 -0.1679  0.4770  0.1627
   59SAPC  H10R 4487   2.328   6.034   9.985  0.2892  1.0005  1.4741
   59SAPC  H10S 4488   2.473   5.977   9.904  0.7764  0.6505  1.1039
   59SAPC  C211 4489   2.367   6.150   9.823 -1.2306 -0.6176 -0.1836
   59SAPC  H11R 4490   2.267   6.189   9.847 -0.4999  0.1956  1.7532
   59SAPC  C212 4491   2.411   6.175   9.702 -0.6575 -0.3100  0.3004
   59SAPC  H12R 4492   2.362   6.238   9.626  0.4491 -1.2166 -1.2391
   59SAPC  C213 4493   2.547   6.113   9.655  0.6777 -0.3804  0.0414
   59SAPC  H13R 4494   2.523   6.007   9.628 -1.7350 -0.1148  0.8401
   59SAPC  H13S 4495   2.612   6.085   9.741  2.1302  1.3825 -0.4323
   59SAPC  C214 4496   2.626   6.180   9.543 -0.1350  0.0469 -0.1750
   59SAPC  H14R 4497   2.661   6.277   9.581  0.4113 -0.5713  0.9585
   59SAPC  C215 4498   2.663   6.124   9.428 -0.4493 -0.0453 -0.3277
   59SAPC  H15R 4499   2.729   6.175   9.356 -0.6366 -0.3416 -0.7137
   59SAPC  C216 4500   2.633   5.987   9.379 -0.1629 -0.4830 -0.3611
   59SAPC  H16R 4501   2.658   5.916   9.460  1.2220  0.6730  0.2676
   59SAPC  H16S 4502   2.706   5.974   9.296  0.1887 -0.7937 -0.0049
   59SAPC  C217 4503   2.490   5.958   9.329 -0.1252  0.7832  0.0770
   59SAPC  H17R 4504   2.410   5.958   9.406 -0.2526  2.6518 -0.0059
   59SAPC  H17S 4505   2.499   5.854   9.291 -0.0561  0.0487  2.0080
   59SAPC  C218 4506   2.461   6.045   9.210  0.2285  0.1784 -0.1732
   59SAPC  H18R 4507   2.494   6.150   9.224  2.5884 -0.4935 -0.2186
   59SAPC  H18S 4508   2.351   6.041   9.195  0.3755 -1.9074 -1.0316
   59SAPC  C219 4509   2.521   5.993   9.083 -0.4469 -0.3057  0.4875
   59SAPC  H19R 4510   2.486   5.889   9.067  0.9926 -0.9934  1.5561
   59SAPC  H19S 4511   2.630   5.986   9.105 -0.3938  1.2913  0.8511
   59SAPC  C220 4512   2.491   6.098   8.975  1.3010  0.2746  0.0406
   59SAPC  H20R 4513   2.525   6.202   8.992  1.6978  0.0432  0.6691
   59SAPC  H20S 4514   2.382   6.103   8.951  1.8779 -1.0947 -3.5292
   59SAPC  H20T 4515   2.531   6.073   8.874 -0.5507 -0.9038 -0.4533
   59SAPC   C33 4516   1.888   5.932  10.406  0.3145  0.0641  0.1718
   59SAPC   H3X 4517   1.994   5.935  10.439 -0.3981  0.2443  2.6648
   59SAPC   H3Y 4518   1.856   6.038  10.408 -0.2020 -0.0787 -0.2574
   59SAPC   C34 4519   1.884   5.888  10.259  0.0814  0.0536 -0.4302
   59SAPC   H4X 4520   1.778   5.871  10.231  0.3308 -1.8367 -0.3688
   59SAPC   H4Y 4521   1.923   5.784  10.263  1.8499  0.6974 -0.1392
   59SAPC   C35 4522   1.953   5.985  10.170 -0.1452 -0.0047  0.6203
   59SAPC   H5X 4523   2.058   5.990  10.205 -0.1999 -0.9066  0.9471
   59SAPC   H5Y 4524   1.911   6.086  10.190 -0.1633  0.2596 -0.6719
   59SAPC   C36 4525   1.970   5.933  10.023  1.3118 -0.2025 -0.2429
   59SAPC   H6X 4526   1.871   5.899   9.986  1.6543 -1.1721 -0.3007
   59SAPC   H6Y 4527   2.034   5.842  10.017 -0.7026 -1.6462 -0.8870
   59SAPC   C37 4528   2.008   6.042   9.925 -0.1315  0.1976 -0.0368
   59SAPC   H7X 4529   2.110   6.080   9.949  0.7858 -1.1015 -1.6505
   59SAPC   H7Y 4530   1.936   6.126   9.915  0.0747  0.3973  0.1471
   59SAPC   C38 4531   2.035   5.989   9.780 -0.0353 -0.2796  0.3213
   59SAPC   H8X 4532   1.982   5.892   9.774  0.9274 -0.9503  1.9637
   59SAPC   H8Y 4533   2.141   5.957   9.768 -0.2427 -1.3477  1.2113
   59SAPC   C39 4534   1.997   6.080   9.663 -0.6741  0.4764  0.1327
   59SAPC   H9X 4535   2.039   6.182   9.677 -1.4709  0.7703  0.4600
   59SAPC   H9Y 4536   1.886   6.082   9.663 -0.7649 -1.3332  1.8538
   59SAPC  C310 4537   2.052   6.022   9.532 -0.3654  0.3017  0.3044
   59SAPC  H10X 4538   2.005   5.927   9.500 -1.1101  1.4611 -2.3998
   59SAPC  H10Y 4539   2.161   6.002   9.532 -0.5424 -0.6991  0.2244
   59SAPC  C311 4540   2.027   6.121   9.414  0.6251 -0.4327  0.2979
   59SAPC  H11X 4541   2.099   6.206   9.418 -2.1782  2.1435  0.3543
   59SAPC  H11Y 4542   1.925   6.164   9.426  0.4231 -0.5726 -0.7873
   59SAPC  C312 4543   2.037   6.064   9.269  0.2695  0.8561 -0.5027
   59SAPC  H12X 4544   1.958   5.987   9.254  0.1170  0.4039  2.0788
   59SAPC  H12Y 4545   2.136   6.014   9.269 -0.1705 -0.1125 -2.7096
   59SAPC  C313 4546   2.040   6.161   9.148  0.0041  0.5420 -0.0784
   59SAPC  H13X 4547   2.126   6.225   9.178 -0.2881  0.6628  0.5136
   59SAPC  H13Y 4548   1.945   6.217   9.137 -0.0580  0.1825 -1.6990
   59SAPC  C314 4549   2.069   6.079   9.023  0.1828  0.3055 -0.3609
   59SAPC  H14X 4550   1.990   6.001   9.014  0.9582 -0.9552  2.4783
   59SAPC  H14Y 4551   2.167   6.025   9.023 -0.0263 -0.1214 -1.8057
   59SAPC  C315 4552   2.068   6.174   8.911  0.0873  0.7017 -0.4345
   59SAPC  H15X 4553   2.146   6.252   8.913  1.5919 -0.7624 -0.2421
   59SAPC  H15Y 4554   1.970   6.227   8.915  1.1762  2.7683  0.0540
   59SAPC  C316 4555   2.068   6.110   8.769  0.1821  0.2827 -0.3795
   59SAPC  H16X 4556   2.035   6.193   8.704  1.5966  2.0891  1.0876
   59SAPC  H16Y 4557   1.987   6.035   8.779  0.5641  0.0173  1.0291
   59SAPC  C317 4558   2.204   6.051   8.736  0.2629  0.2515 -0.2010
   59SAPC  H17X 4559   2.228   5.988   8.824  0.5667  0.3471 -0.2153
   59SAPC  H17Y 4560   2.287   6.125   8.743  1.0260 -0.4410 -1.4804
   59SAPC  C318 4561   2.199   5.960   8.614  0.0851  0.1424 -0.2734
   59SAPC  H18X 4562   2.193   6.022   8.522  1.8830  0.5492 -0.1603
   59SAPC  H18Y 4563   2.122   5.880   8.612 -1.0505  1.1956 -2.1309
   59SAPC  H18Z 4564   2.291   5.900   8.603 -0.0038  0.1281 -0.9834
   60SAPC     N 4565   2.756   3.982  10.906  0.3543  0.5334  0.7900
   60SAPC   C12 4566   2.899   4.011  10.852 -0.3732 -0.1449  0.3443
   60SAPC  H12A 4567   2.939   3.925  10.799 -0.4451  1.1225 -1.8973
   60SAPC  H12B 4568   2.966   4.017  10.936  1.0468 -0.3554 -0.7235
   60SAPC   C13 4569   2.666   3.944  10.793 -0.5908  0.4924  0.5068
   60SAPC  H13A 4570   2.699   3.849  10.753  0.2003  0.7797  0.4577
   60SAPC  H13B 4571   2.564   3.929  10.826 -1.2009  0.9374 -1.0694
   60SAPC  H13C 4572   2.667   4.014  10.711 -1.4664 -2.0229 -1.8011
   60SAPC   C14 4573   2.770   3.869  11.003  0.0472 -0.5056  0.0123
   60SAPC  H14A 4574   2.677   3.839  11.047 -0.6186 -1.0931 -1.7107
   60SAPC  H14B 4575   2.812   3.785  10.949 -1.3248 -0.4860 -1.1234
   60SAPC  H14C 4576   2.836   3.886  11.087  0.1421 -1.8927  0.2353
   60SAPC   C15 4577   2.713   4.097  10.984  0.4622  0.1627 -0.6469
   60SAPC  H15A 4578   2.769   4.097  11.077 -2.1056  1.2275  1.0234
   60SAPC  H15B 4579   2.747   4.187  10.935  1.8315 -0.8573 -1.6256
   60SAPC  H15C 4580   2.608   4.094  11.006  0.7113 -0.0535  0.6033
   60SAPC   C11 4581   2.911   4.137  10.768 -1.0936  0.5001  0.3248
   60SAPC  H11A 4582   2.824   4.143  10.700 -0.9372 -1.7805 -0.1390
   60SAPC  H11B 4583   2.993   4.128  10.694 -1.0436 -0.1673  0.4598
   60SAPC     P 4584   3.028   4.320  10.918 -0.2321 -0.1404  0.3316
   60SAPC   O13 4585   3.046   4.466  10.898  0.0273  0.6139 -0.0707
   60SAPC   O14 4586   3.018   4.276  11.056  0.1726  0.2777  0.1292
   60SAPC   O12 4587   2.903   4.262  10.840  0.5944  0.3929 -0.3698
   60SAPC   O11 4588   3.153   4.243  10.858 -0.5562  0.1014  0.6468
   60SAPC    C1 4589   3.279   4.296  10.832 -0.3236 -0.2423  0.1189
   60SAPC    HA 4590   3.294   4.399  10.870 -2.0131 -0.7268  2.3114
   60SAPC    HB 4591   3.357   4.230  10.876  0.9524  0.2357 -1.3440
   60SAPC    C2 4592   3.309   4.280  10.680  1.0609 -1.0370  0.8425
   60SAPC    HS 4593   3.406   4.325  10.650  0.5594 -1.8495 -2.3850
   60SAPC   O21 4594   3.209   4.349  10.604 -0.0206  0.7279  0.1975
   60SAPC   C21 4595   3.204   4.484  10.607 -0.5037 -0.1853 -0.8486
   60SAPC   O22 4596   3.286   4.555  10.656 -0.2955 -0.0790 -0.3716
   60SAPC   C22 4597   3.077   4.525  10.535 -0.0351  0.0440 -0.2274
   60SAPC   H2R 4598   3.005   4.529  10.619  0.4458 -3.0353  0.4685
   60SAPC   H2S 4599   3.092   4.632  10.511 -2.0834  0.6413  1.0203
   60SAPC    C3 4600   3.311   4.130  10.644  0.2136  0.2893 -0.3163
   60SAPC    HX 4601   3.212   4.086  10.668  0.1499  0.3617 -0.4434
   60SAPC    HY 4602   3.383   4.077  10.711 -1.5052 -0.8159  0.7229
   60SAPC   O31 4603   3.346   4.117  10.502  0.0502  0.0393 -0.2268
   60SAPC   C31 4604   3.461   4.068  10.472  0.5150  0.6067  0.1048
   60SAPC   O32 4605   3.551   4.049  10.552  0.5433 -0.3158  0.5694
   60SAPC   C32 4606   3.445   4.018  10.331 -0.0706  0.4430 -0.1551
   60SAPC   H2X 4607   3.355   3.954  10.323  1.0137 -0.9171 -2.3487
   60SAPC   H2Y 4608   3.534   3.957  10.306 -1.3410 -1.5927  0.0841
   60SAPC   C23 4609   3.027   4.433  10.419 -0.9287 -0.6387 -0.5954
   60SAPC   H3R 4610   2.925   4.400  10.450 -1.6431  2.8235  1.1901
   60SAPC   H3S 4611   3.090   4.343  10.402  0.4216  0.7070 -3.3108
   60SAPC   C24 4612   3.018   4.510  10.284 -0.1468  0.6914 -0.4873
   60SAPC   H4R 4613   2.961   4.603  10.307 -1.6432 -0.5225  0.9723
   60SAPC   H4S 4614   2.974   4.447  10.204  0.9441 -0.8093  0.0439
   60SAPC   C25 4615   3.166   4.532  10.245 -0.3565 -0.5335  0.3362
   60SAPC   H5R 4616   3.236   4.544  10.329 -2.3494  1.3219  1.8815
   60SAPC   C26 4617   3.209   4.540  10.119  0.5596 -0.6053  0.0811
   60SAPC   H6R 4618   3.315   4.547  10.091  0.3313  4.2566 -0.4020
   60SAPC   C27 4619   3.121   4.529   9.989 -0.1091  0.2418 -0.6682
   60SAPC   H7R 4620   3.010   4.530  10.000 -0.0122 -1.7650  1.3157
   60SAPC   H7S 4621   3.139   4.423   9.959 -1.0800 -0.6162  1.5027
   60SAPC   C28 4622   3.157   4.644   9.901  0.1775 -0.8423  0.1919
   60SAPC   H8R 4623   3.232   4.709   9.948  1.3883 -1.7494 -0.4213
   60SAPC   C29 4624   3.114   4.668   9.776 -0.4802 -0.0542  0.1441
   60SAPC   H9R 4625   3.149   4.754   9.717 -1.0095  0.0776  0.0182
   60SAPC  C210 4626   3.041   4.562   9.705  0.2857 -0.7650  0.3169
   60SAPC  H10R 4627   2.961   4.618   9.652  0.3948 -1.5192 -0.6728
   60SAPC  H10S 4628   2.989   4.491   9.774 -1.6091 -1.0826 -1.3216
   60SAPC  C211 4629   3.113   4.468   9.605 -0.3317 -0.8689  0.1839
   60SAPC  H11R 4630   3.218   4.442   9.624 -0.4537 -2.3389 -0.9320
   60SAPC  C212 4631   3.063   4.421   9.495  0.1557  0.2245 -0.4090
   60SAPC  H12R 4632   3.124   4.354   9.434  1.0448  0.2379  0.4318
   60SAPC  C213 4633   2.923   4.454   9.440  0.0130  0.5313 -0.7395
   60SAPC  H13R 4634   2.918   4.562   9.414 -0.4087  0.6334 -0.2508
   60SAPC  H13S 4635   2.854   4.429   9.524  0.1515  1.2229 -0.4183
   60SAPC  C214 4636   2.878   4.363   9.324  0.1430  0.4663 -0.1818
   60SAPC  H14R 4637   2.787   4.304   9.342 -1.0865  3.0990  3.1799
   60SAPC  C215 4638   2.935   4.363   9.204  0.2627 -0.0928 -0.0477
   60SAPC  H15R 4639   2.889   4.295   9.130 -3.2268  1.1393  0.7970
   60SAPC  C216 4640   3.053   4.447   9.159  0.1131 -0.2211  0.1110
   60SAPC  H16R 4641   3.142   4.381   9.166  1.5204  1.7459  2.8698
   60SAPC  H16S 4642   3.071   4.535   9.225  0.3375 -0.1628 -0.0261
   60SAPC  C217 4643   3.031   4.498   9.016  0.1113 -0.5463  0.2579
   60SAPC  H17R 4644   3.023   4.405   8.956  2.0705  1.8786 -4.2525
   60SAPC  H17S 4645   3.122   4.556   8.987  0.5250 -1.6129 -0.6595
   60SAPC  C218 4646   2.911   4.595   8.995 -0.4082 -0.7349  0.3423
   60SAPC  H18R 4647   2.921   4.681   9.064  2.5965  0.1715 -1.0670
   60SAPC  H18S 4648   2.811   4.555   9.022 -1.7471  1.1278 -1.5396
   60SAPC  C219 4649   2.907   4.639   8.849  0.7137 -0.3276  0.1541
   60SAPC  H19R 4650   2.809   4.680   8.818  1.3774 -0.4365 -2.2788
   60SAPC  H19S 4651   2.915   4.546   8.789 -1.1548  0.3999 -1.3239
   60SAPC  C220 4652   3.011   4.740   8.804 -0.3968  0.2581 -0.3915
   60SAPC  H20R 4653   3.007   4.832   8.865 -3.5678 -0.5513  0.8346
   60SAPC  H20S 4654   2.994   4.768   8.698  1.3674 -1.0230 -1.0619
   60SAPC  H20T 4655   3.112   4.696   8.817 -1.1759 -1.4039  0.3778
   60SAPC   C33 4656   3.439   4.140  10.238 -0.0610  0.0019 -0.6832
   60SAPC   H3X 4657   3.521   4.209  10.266  0.1855 -0.9220  0.9545
   60SAPC   H3Y 4658   3.342   4.195  10.240 -0.2560 -0.3051  2.6347
   60SAPC   C34 4659   3.451   4.102  10.088 -0.0596 -0.1557  0.5635
   60SAPC   H4X 4660   3.356   4.049  10.068  1.2837 -1.8765 -1.5904
   60SAPC   H4Y 4661   3.531   4.025  10.085 -0.3057 -0.4129  0.5858
   60SAPC   C35 4662   3.488   4.227  10.006 -0.3275  0.4064  0.2028
   60SAPC   H5X 4663   3.593   4.253  10.033 -0.5450  1.4110  0.1112
   60SAPC   H5Y 4664   3.421   4.309  10.039 -0.6156  0.4664 -0.5225
   60SAPC   C36 4665   3.470   4.207   9.857  0.9960 -0.3145  0.0762
   60SAPC   H6X 4666   3.367   4.171   9.835 -0.3840  3.5615 -0.5315
   60SAPC   H6Y 4667   3.532   4.123   9.818  0.4257  0.3724 -2.4678
   60SAPC   C37 4668   3.493   4.334   9.774 -0.0182  0.2726  0.1523
   60SAPC   H7X 4669   3.584   4.383   9.813 -0.3187  0.3282  0.7941
   60SAPC   H7Y 4670   3.402   4.396   9.789 -0.7671 -0.8490  0.3838
   60SAPC   C38 4671   3.510   4.295   9.629  0.8343 -0.1241 -0.4724
   60SAPC   H8X 4672   3.427   4.226   9.606 -0.4103  1.7961 -2.1800
   60SAPC   H8Y 4673   3.593   4.222   9.620  0.7507 -0.4685  1.2516
   60SAPC   C39 4674   3.522   4.412   9.533 -0.2392 -0.1783 -0.7718
   60SAPC   H9X 4675   3.630   4.436   9.527 -0.3039 -0.1953 -2.8277
   60SAPC   H9Y 4676   3.474   4.498   9.584 -2.0030 -2.0544  0.9507
   60SAPC  C310 4677   3.464   4.387   9.397 -0.2117  0.7181 -0.4043
   60SAPC  H10X 4678   3.485   4.477   9.335  3.0248 -1.0859 -2.2186
   60SAPC  H10Y 4679   3.356   4.362   9.408  0.2521 -1.5897 -0.4444
   60SAPC  C311 4680   3.502   4.258   9.327 -0.4437 -0.2648  0.3658
   60SAPC  H11X 4681   3.470   4.177   9.395  0.0251 -0.1954  0.6722
   60SAPC  H11Y 4682   3.612   4.253   9.314 -0.3637  1.3517  0.2208
   60SAPC  C312 4683   3.438   4.225   9.195  0.5039 -0.2988  0.1903
   60SAPC  H12X 4684   3.331   4.204   9.216  0.8936  0.1233  2.8123
   60SAPC  H12Y 4685   3.488   4.131   9.160  0.4522 -0.3427  0.2330
   60SAPC  C313 4686   3.452   4.335   9.086  0.2390 -0.8950 -0.1091
   60SAPC  H13X 4687   3.556   4.375   9.090 -0.2073  0.2191  1.8721
   60SAPC  H13Y 4688   3.377   4.405   9.128 -0.0494 -1.8593  1.0233
   60SAPC  C314 4689   3.421   4.298   8.940 -0.3744 -0.4083 -0.8449
   60SAPC  H14X 4690   3.430   4.390   8.878 -1.1157 -0.7175 -1.4269
   60SAPC  H14Y 4691   3.319   4.254   8.935  0.5831 -2.8599 -0.2565
   60SAPC  C315 4692   3.518   4.189   8.889  0.3381  0.5381  0.6640
   60SAPC  H15X 4693   3.487   4.087   8.921 -2.5265  0.7739 -0.9789
   60SAPC  H15Y 4694   3.617   4.210   8.935  0.9741 -0.4795 -0.1931
   60SAPC  C316 4695   3.516   4.190   8.733 -0.5076  0.1179 -0.1300
   60SAPC  H16X 4696   3.526   4.292   8.689  0.3467 -0.5207 -1.4905
   60SAPC  H16Y 4697   3.415   4.161   8.698 -0.5743 -0.7196  0.7251
   60SAPC  C317 4698   3.610   4.089   8.676  0.3127 -0.7432 -0.1465
   60SAPC  H17X 4699   3.567   3.988   8.693  0.6330 -0.8142  0.2775
   60SAPC  H17Y 4700   3.699   4.097   8.743 -1.0612  1.3506  1.5557
   60SAPC  C318 4701   3.633   4.113   8.529  0.6358 -0.0217  0.8607
   60SAPC  H18X 4702   3.690   4.207   8.512  1.3222 -0.7061 -0.8681
   60SAPC  H18Y 4703   3.539   4.125   8.472 -0.2513  3.8851  2.7639
   60SAPC  H18Z 4704   3.699   4.033   8.490  0.5081  0.7622 -1.0911
   61SAPC     N 4705   3.755   3.163  11.212  0.9372 -0.6837  0.1054
   61SAPC   C12 4706   3.904   3.122  11.230 -0.1514  0.1679 -0.1814
   61SAPC  H12A 4707   3.927   3.074  11.136 -0.8644  0.8315 -0.7123
   61SAPC  H12B 4708   3.914   3.052  11.311  0.9247 -1.9065 -1.9991
   61SAPC   C13 4709   3.653   3.049  11.191  0.0434  0.0494 -1.2447
   61SAPC  H13A 4710   3.661   2.974  11.267  1.0659 -0.6041 -1.9636
   61SAPC  H13B 4711   3.552   3.087  11.185  0.6221  2.6811  2.2467
   61SAPC  H13C 4712   3.671   2.994  11.100 -1.2404 -2.4435 -0.0656
   61SAPC   C14 4713   3.708   3.235  11.332 -0.6109 -0.1105  0.0403
   61SAPC  H14A 4714   3.753   3.332  11.346  0.3727 -0.6015  0.4299
   61SAPC  H14B 4715   3.601   3.243  11.326 -0.7948 -1.5169  0.9378
   61SAPC  H14C 4716   3.730   3.176  11.420 -0.3559  0.1035  0.1197
   61SAPC   C15 4717   3.751   3.258  11.093  0.1136  0.7733 -0.0979
   61SAPC  H15A 4718   3.653   3.297  11.067  0.5617  3.1711  1.5243
   61SAPC  H15B 4719   3.811   3.344  11.119 -1.3926  1.7440  0.2787
   61SAPC  H15C 4720   3.787   3.209  11.004 -2.2856  1.0409 -1.3010
   61SAPC   C11 4721   4.013   3.229  11.255  0.1623  0.3269 -0.7647
   61SAPC  H11A 4722   4.110   3.176  11.256  0.5059  0.2607 -6.0374
   61SAPC  H11B 4723   3.994   3.272  11.355  2.1573 -0.5809  0.0392
   61SAPC     P 4724   4.101   3.329  11.021 -0.0724  0.3588 -0.0946
   61SAPC   O13 4725   4.057   3.443  10.937  0.0761 -0.3357 -0.1512
   61SAPC   O14 4726   4.246   3.327  11.061 -0.1187 -0.3110  0.7869
   61SAPC   O12 4727   4.012   3.335  11.156  0.3042  0.2048 -0.1698
   61SAPC   O11 4728   4.055   3.199  10.945  0.3401 -0.0025 -0.0887
   61SAPC    C1 4729   4.150   3.118  10.883 -0.4356  0.2739  0.5248
   61SAPC    HA 4730   4.226   3.081  10.955  1.0286  0.3806 -0.9102
   61SAPC    HB 4731   4.099   3.024  10.853  0.2500 -0.2546  0.9772
   61SAPC    C2 4732   4.217   3.178  10.756  0.4909 -0.1103  0.5112
   61SAPC    HS 4733   4.275   3.268  10.786  0.4724 -0.0429  0.3439
   61SAPC   O21 4734   4.108   3.209  10.665  0.5888  0.3037  1.0647
   61SAPC   C21 4735   4.114   3.325  10.605 -0.5142  0.4940 -0.1212
   61SAPC   O22 4736   4.198   3.405  10.625  0.1802 -0.7481 -0.1026
   61SAPC   C22 4737   4.010   3.341  10.501  0.4543 -0.8187 -0.4586
   61SAPC   H2R 4738   3.963   3.243  10.478 -0.3134 -1.1090  2.0150
   61SAPC   H2S 4739   3.928   3.412  10.525  0.3710 -0.3653 -2.0146
   61SAPC    C3 4740   4.323   3.084  10.692 -0.4001  0.7302  0.5434
   61SAPC    HX 4741   4.272   2.991  10.660 -0.7444  0.7295  1.0924
   61SAPC    HY 4742   4.401   3.058  10.766 -1.3095  1.1687  1.6770
   61SAPC   O31 4743   4.382   3.145  10.577  0.1966 -0.1956 -0.4316
   61SAPC   C31 4744   4.477   3.227  10.594  0.1534  0.3425 -0.0144
   61SAPC   O32 4745   4.520   3.268  10.701  0.3479 -0.6521 -0.3534
   61SAPC   C32 4746   4.527   3.278  10.454  0.0481 -0.6386  0.3658
   61SAPC   H2X 4747   4.600   3.198  10.429 -0.3920 -0.1109 -3.0798
   61SAPC   H2Y 4748   4.565   3.381  10.470 -0.1815 -0.6214  0.8421
   61SAPC   C23 4749   4.080   3.390  10.369 -0.6294 -0.1541 -0.3495
   61SAPC   H3R 4750   4.150   3.316  10.324  2.0110  0.2994  2.5974
   61SAPC   H3S 4751   4.141   3.480  10.391  0.2349  0.0448 -3.0951
   61SAPC   C24 4752   3.975   3.419  10.264  0.1548  0.4321 -1.1099
   61SAPC   H4R 4753   4.026   3.474  10.182 -0.8333  0.8790 -1.4493
   61SAPC   H4S 4754   3.893   3.480  10.309  1.7905  1.0584  1.1736
   61SAPC   C25 4755   3.912   3.287  10.210  0.1022 -1.4131 -0.0687
   61SAPC   H5R 4756   3.857   3.219  10.276 -2.2105 -0.8198 -1.2912
   61SAPC   C26 4757   3.922   3.250  10.080  0.4547  0.6643 -0.6350
   61SAPC   H6R 4758   3.871   3.158  10.047 -0.8592  0.9429  0.5274
   61SAPC   C27 4759   3.984   3.324   9.966  1.0190  0.1359 -0.2727
   61SAPC   H7R 4760   4.019   3.251   9.890  4.4066  1.5777 -0.2611
   61SAPC   H7S 4761   4.078   3.371  10.001  0.5728  0.5692  0.3827
   61SAPC   C28 4762   3.893   3.435   9.908  0.1884 -0.0410 -0.6962
   61SAPC   H8R 4763   3.829   3.476   9.987  2.2263 -2.8573  2.7206
   61SAPC   C29 4764   3.904   3.473   9.779  0.3863  0.3083  0.1048
   61SAPC   H9R 4765   3.856   3.562   9.737 -0.4047 -0.2990 -0.3140
   61SAPC  C210 4766   3.998   3.421   9.673 -0.0326  0.0313  0.4255
   61SAPC  H10R 4767   3.957   3.328   9.629  0.5833  0.3617 -0.9135
   61SAPC  H10S 4768   4.089   3.390   9.728 -0.0305 -0.8761 -0.0594
   61SAPC  C211 4769   4.025   3.522   9.558 -0.9853 -0.2013  0.1276
   61SAPC  H11R 4770   4.090   3.604   9.591 -0.7397 -0.7021  0.9185
   61SAPC  C212 4771   3.973   3.528   9.431  0.3619 -0.0141 -0.1817
   61SAPC  H12R 4772   3.999   3.611   9.364 -0.7638 -1.3154 -2.3124
   61SAPC  C213 4773   3.875   3.424   9.386 -0.4193 -0.1323  0.2826
   61SAPC  H13R 4774   3.807   3.469   9.310  0.1681  1.4656  0.6589
   61SAPC  H13S 4775   3.813   3.385   9.470 -0.1886  0.5433  0.7845
   61SAPC  C214 4776   3.955   3.304   9.330  0.6434 -0.1245 -0.2846
   61SAPC  H14R 4777   4.037   3.271   9.395 -0.3816 -0.3498  0.9464
   61SAPC  C215 4778   3.940   3.267   9.201 -0.5070  0.7043 -0.3922
   61SAPC  H15R 4779   3.977   3.167   9.177  0.2948  0.8633  0.1533
   61SAPC  C216 4780   3.849   3.337   9.096  0.4241 -0.0689  0.2278
   61SAPC  H16R 4781   3.889   3.438   9.075 -0.3132 -0.3182 -2.7584
   61SAPC  H16S 4782   3.745   3.350   9.130 -0.0860 -2.9466  0.0560
   61SAPC  C217 4783   3.823   3.253   8.964 -0.2033 -0.3372  0.2143
   61SAPC  H17R 4784   3.754   3.314   8.901  2.3242  1.8309 -0.6484
   61SAPC  H17S 4785   3.773   3.156   8.986  1.1623 -1.0279  0.3624
   61SAPC  C218 4786   3.949   3.224   8.892 -0.2453 -0.1333 -0.1691
   61SAPC  H18R 4787   4.037   3.198   8.956  0.4527  0.4851 -0.8467
   61SAPC  H18S 4788   3.985   3.313   8.835  0.7098  0.3732  1.1734
   61SAPC  C219 4789   3.949   3.115   8.785 -0.3073 -0.1367  0.5263
   61SAPC  H19R 4790   3.894   3.026   8.822  0.4825 -1.5291 -1.4813
   61SAPC  H19S 4791   4.045   3.077   8.745 -1.5083 -0.2757 -2.5440
   61SAPC  C220 4792   3.876   3.150   8.654 -0.2649  0.3441  0.4078
   61SAPC  H20R 4793   3.771   3.184   8.659 -1.3697 -2.8001  1.0168
   61SAPC  H20S 4794   3.885   3.068   8.580 -0.9983  0.5905  0.0391
   61SAPC  H20T 4795   3.926   3.236   8.604  0.2189 -0.2614 -0.1562
   61SAPC   C33 4796   4.415   3.292  10.345  0.7673  0.1272  0.5624
   61SAPC   H3X 4797   4.338   3.366  10.375 -1.4138 -1.2183 -1.3632
   61SAPC   H3Y 4798   4.358   3.198  10.328  1.6274 -0.6695  1.8430
   61SAPC   C34 4799   4.474   3.342  10.214 -0.1612 -0.2427  0.9501
   61SAPC   H4X 4800   4.563   3.289  10.176 -1.4738 -0.6590 -1.7718
   61SAPC   H4Y 4801   4.508   3.447  10.220  0.4985 -0.4068  0.1715
   61SAPC   C35 4802   4.374   3.323  10.091 -0.4696 -0.5278 -0.5134
   61SAPC   H5X 4803   4.283   3.384  10.110  0.5965  1.1145 -0.5456
   61SAPC   H5Y 4804   4.342   3.219  10.114  2.8284 -1.8770 -1.4566
   61SAPC   C36 4805   4.446   3.349   9.964  0.1069 -0.5596  0.6822
   61SAPC   H6X 4806   4.532   3.279   9.961 -1.0454 -1.9994 -1.0479
   61SAPC   H6Y 4807   4.476   3.455   9.974  0.0078 -0.3285 -1.1510
   61SAPC   C37 4808   4.347   3.326   9.839 -0.3385 -0.2880 -0.2184
   61SAPC   H7X 4809   4.262   3.396   9.856 -1.7349 -2.0184  0.2361
   61SAPC   H7Y 4810   4.313   3.221   9.842 -1.4166  0.0177 -0.7386
   61SAPC   C38 4811   4.428   3.341   9.705 -0.1720 -0.5696 -0.0567
   61SAPC   H8X 4812   4.519   3.278   9.710  0.2193  0.0092  0.2325
   61SAPC   H8Y 4813   4.457   3.448   9.692 -1.6716  0.1321  1.7723
   61SAPC   C39 4814   4.346   3.304   9.583  0.0496 -0.2594  0.3082
   61SAPC   H9X 4815   4.240   3.339   9.583 -0.1686 -0.8868  0.9373
   61SAPC   H9Y 4816   4.341   3.194   9.594  1.3609 -0.1202  3.0974
   61SAPC  C310 4817   4.409   3.349   9.447 -0.3460 -0.6687 -0.7822
   61SAPC  H10X 4818   4.506   3.296   9.438 -0.1256 -0.3845 -0.0957
   61SAPC  H10Y 4819   4.416   3.459   9.447  0.2919 -0.7107 -0.4730
   61SAPC  C311 4820   4.326   3.312   9.327 -0.1353 -0.4643  0.3627
   61SAPC  H11X 4821   4.228   3.363   9.316  0.1974  0.2519  0.6437
   61SAPC  H11Y 4822   4.293   3.207   9.341 -0.9520 -0.4150 -1.0054
   61SAPC  C312 4823   4.408   3.304   9.194  0.4548 -0.5549 -0.2425
   61SAPC  H12X 4824   4.514   3.276   9.211  0.6886 -0.5970 -1.6231
   61SAPC  H12Y 4825   4.419   3.397   9.133  2.9902 -1.2008 -0.8827
   61SAPC  C313 4826   4.341   3.195   9.115  1.0911  0.4165 -0.1780
   61SAPC  H13X 4827   4.231   3.201   9.104  0.7209 -3.0737  0.5927
   61SAPC  H13Y 4828   4.339   3.100   9.173  1.2634  2.6055  3.7755
   61SAPC  C314 4829   4.412   3.179   8.979  0.7602 -0.5244  0.2182
   61SAPC  H14X 4830   4.354   3.094   8.937  2.9841 -1.2074 -1.6359
   61SAPC  H14Y 4831   4.517   3.143   8.986 -0.0451 -3.0577  0.4581
   61SAPC  C315 4832   4.393   3.292   8.873 -0.5754 -0.4221 -0.1095
   61SAPC  H15X 4833   4.449   3.383   8.901 -0.4284 -0.3521 -0.6146
   61SAPC  H15Y 4834   4.286   3.322   8.883 -1.0900 -0.0200 -4.6831
   61SAPC  C316 4835   4.426   3.257   8.730 -1.0473  0.6845  0.1076
   61SAPC  H16X 4836   4.535   3.238   8.735 -0.3823  3.7385 -0.9037
   61SAPC  H16Y 4837   4.412   3.353   8.675  2.6772  0.9025 -0.6605
   61SAPC  C317 4838   4.346   3.148   8.661  0.6631  0.1126 -0.2772
   61SAPC  H17X 4839   4.243   3.190   8.664  0.9231  0.8774 -1.3768
   61SAPC  H17Y 4840   4.349   3.055   8.722 -2.3906  0.3845  0.4878
   61SAPC  C318 4841   4.392   3.111   8.521  0.1734 -0.2806 -0.1960
   61SAPC  H18X 4842   4.324   3.030   8.489  0.9945 -0.5504 -1.3397
   61SAPC  H18Y 4843   4.497   3.074   8.518  0.2573 -0.1722  1.0320
   61SAPC  H18Z 4844   4.380   3.192   8.446 -0.6405  0.6007  0.8671
   62SAPC     N 4845   3.949   2.522  10.894 -0.3089  0.0313  0.2128
   62SAPC   C12 4846   4.054   2.410  10.907 -0.1870 -0.2998 -0.4236
   62SAPC  H12A 4847   4.020   2.347  10.988 -0.1433  0.2031 -0.0080
   62SAPC  H12B 4848   4.147   2.455  10.937  0.8346 -2.6252  0.1453
   62SAPC   C13 4849   3.920   2.581  11.032  0.4311  0.6671  0.3273
   62SAPC  H13A 4850   4.015   2.601  11.079  0.3417 -2.2756  1.9521
   62SAPC  H13B 4851   3.857   2.667  11.013  0.4958  0.6639  0.0987
   62SAPC  H13C 4852   3.873   2.517  11.105  2.8094  0.6404  1.9516
   62SAPC   C14 4853   3.988   2.638  10.795 -0.6479  0.7726 -1.2061
   62SAPC  H14A 4854   4.040   2.602  10.708 -0.1437 -0.7929 -0.2859
   62SAPC  H14B 4855   3.901   2.694  10.764 -0.6754  0.8028 -1.0751
   62SAPC  H14C 4856   4.054   2.708  10.844 -0.6503  0.5177 -0.8356
   62SAPC   C15 4857   3.821   2.465  10.842  0.0936 -0.7529  0.3170
   62SAPC  H15A 4858   3.813   2.360  10.866  0.6835 -0.9807 -0.4519
   62SAPC  H15B 4859   3.732   2.522  10.867 -1.0132 -1.8919 -0.8172
   62SAPC  H15C 4860   3.831   2.475  10.735 -2.1741  4.0696  0.2483
   62SAPC   C11 4861   4.083   2.328  10.782  0.0288  0.2451  0.4198
   62SAPC  H11A 4862   3.988   2.276  10.756 -1.1049  1.3918  2.0324
   62SAPC  H11B 4863   4.163   2.253  10.798 -1.0681 -0.6436  2.0481
   62SAPC     P 4864   4.268   2.468  10.645 -0.2130  0.4035 -0.6547
   62SAPC   O13 4865   4.253   2.614  10.624  0.0276 -0.1654  0.1990
   62SAPC   O14 4866   4.366   2.418  10.747 -0.1636 -0.1339  0.6340
   62SAPC   O12 4867   4.115   2.418  10.674 -0.0051  0.0989  0.0944
   62SAPC   O11 4868   4.293   2.383  10.511 -0.2862  0.0308  0.7339
   62SAPC    C1 4869   4.328   2.239  10.528 -0.3768 -0.7725 -0.1133
   62SAPC    HA 4870   4.295   2.201  10.627  1.3330 -0.3769  0.6365
   62SAPC    HB 4871   4.261   2.188  10.455 -1.2436  0.0577  0.0771
   62SAPC    C2 4872   4.475   2.207  10.502  0.2211  0.2444  0.2910
   62SAPC    HS 4873   4.545   2.261  10.569  3.9422 -2.1308 -1.3652
   62SAPC   O21 4874   4.496   2.240  10.362  0.2017 -0.1549  0.2652
   62SAPC   C21 4875   4.533   2.364  10.331 -0.4759 -0.8754 -0.5222
   62SAPC   O22 4876   4.589   2.440  10.410 -0.5358 -0.1036  0.3184
   62SAPC   C22 4877   4.493   2.400  10.186 -0.1656  0.6110 -0.2845
   62SAPC   H2R 4878   4.552   2.331  10.121 -1.1850  0.1678 -0.7551
   62SAPC   H2S 4879   4.386   2.374  10.171 -0.5415  1.8110  0.2385
   62SAPC    C3 4880   4.514   2.058  10.524  0.2086 -0.1935 -0.1260
   62SAPC    HX 4881   4.475   2.000  10.438 -1.1499 -0.4222  0.6015
   62SAPC    HY 4882   4.465   2.024  10.618  1.1181  3.0013  1.6625
   62SAPC   O31 4883   4.656   2.055  10.542 -0.5689  0.0939  0.5374
   62SAPC   C31 4884   4.708   1.934  10.511  0.3643 -0.0786  0.3252
   62SAPC   O32 4885   4.640   1.835  10.485 -0.4421 -0.6092  0.0311
   62SAPC   C32 4886   4.865   1.941  10.522 -0.7292  0.8393  0.0171
   62SAPC   H2X 4887   4.893   1.838  10.493  1.4288  1.3947  0.0092
   62SAPC   H2Y 4888   4.883   1.970  10.627  0.6091 -1.2293  0.4092
   62SAPC   C23 4889   4.524   2.548  10.142 -0.0154 -1.0435  0.2816
   62SAPC   H3R 4890   4.628   2.566  10.176 -0.2979 -0.6852  0.9684
   62SAPC   H3S 4891   4.462   2.617  10.204  0.2619  1.4795 -2.0594
   62SAPC   C24 4892   4.500   2.572   9.993 -0.0580 -0.2006 -0.4579
   62SAPC   H4R 4893   4.473   2.680   9.982 -1.7318 -0.0441  3.5553
   62SAPC   H4S 4894   4.403   2.523   9.970 -0.4228  0.3570 -0.1449
   62SAPC   C25 4895   4.616   2.520   9.914  0.2710  0.3554 -0.7818
   62SAPC   H5R 4896   4.713   2.563   9.944 -1.2903  4.0165 -0.5035
   62SAPC   C26 4897   4.615   2.429   9.815  0.3626  0.6650  0.1366
   62SAPC   H6R 4898   4.706   2.395   9.765 -0.4249  0.2768 -1.0620
   62SAPC   C27 4899   4.489   2.365   9.768  0.1951  0.2880 -0.2287
   62SAPC   H7R 4900   4.412   2.443   9.748 -0.4835 -0.8580 -2.2909
   62SAPC   H7S 4901   4.441   2.304   9.848 -0.2934 -0.9676 -1.4580
   62SAPC   C28 4902   4.511   2.279   9.646  0.3304 -0.2580 -0.4526
   62SAPC   H8R 4903   4.585   2.198   9.655 -0.0284 -0.3188  3.9690
   62SAPC   C29 4904   4.436   2.277   9.529 -0.3242 -0.3080  0.0466
   62SAPC   H9R 4905   4.456   2.202   9.451  0.6435  0.9628 -0.9783
   62SAPC  C210 4906   4.319   2.362   9.489 -0.0621 -0.5001  0.1565
   62SAPC  H10R 4907   4.264   2.405   9.575 -0.2708  2.8518 -1.4805
   62SAPC  H10S 4908   4.240   2.301   9.441 -1.2633 -0.0104  1.4391
   62SAPC  C211 4909   4.332   2.489   9.400 -1.8498  0.4103 -0.0455
   62SAPC  H11R 4910   4.309   2.580   9.458  0.9337  0.0852  1.7471
   62SAPC  C212 4911   4.356   2.495   9.267  0.5246  0.3351 -0.4670
   62SAPC  H12R 4912   4.348   2.597   9.228 -0.7538  0.2911 -0.3621
   62SAPC  C213 4913   4.371   2.380   9.168  0.5738 -0.1303  1.0500
   62SAPC  H13R 4914   4.368   2.430   9.068 -1.7839 -0.7798  0.7233
   62SAPC  H13S 4915   4.283   2.312   9.168 -1.0109  1.6420 -2.6673
   62SAPC  C214 4916   4.492   2.299   9.198  0.8004 -0.3114  0.1326
   62SAPC  H14R 4917   4.530   2.291   9.301 -1.8933  0.0837  1.2363
   62SAPC  C215 4918   4.572   2.223   9.115 -0.2483 -0.5099 -0.2571
   62SAPC  H15R 4919   4.661   2.165   9.144  0.4605  0.5728 -0.2038
   62SAPC  C216 4920   4.545   2.212   8.970 -0.7709  1.1554 -0.0759
   62SAPC  H16R 4921   4.436   2.230   8.954 -0.9551 -0.2177 -0.5050
   62SAPC  H16S 4922   4.555   2.104   8.944  0.5602  1.2174  0.1250
   62SAPC  C217 4923   4.601   2.316   8.872  0.1422  0.2688 -0.6764
   62SAPC  H17R 4924   4.581   2.419   8.908  2.0586  0.1172  0.9982
   62SAPC  H17S 4925   4.564   2.288   8.771 -0.3233  1.8422 -0.9649
   62SAPC  C218 4926   4.752   2.302   8.862 -0.1833  0.3706  0.1867
   62SAPC  H18R 4927   4.798   2.275   8.959  0.8382 -0.9791 -0.6320
   62SAPC  H18S 4928   4.805   2.394   8.831 -1.0814  1.0552  0.6334
   62SAPC  C219 4929   4.788   2.194   8.758  0.4559  0.7666  0.0386
   62SAPC  H19R 4930   4.720   2.109   8.781  2.3299 -0.6501  0.6688
   62SAPC  H19S 4931   4.884   2.152   8.795 -0.4751  0.1993  1.9473
   62SAPC  C220 4932   4.781   2.228   8.607  0.6266 -0.1174  0.2476
   62SAPC  H20R 4933   4.692   2.287   8.576  1.7103  0.5310 -1.7930
   62SAPC  H20S 4934   4.780   2.126   8.563  3.1360 -0.4381  0.7459
   62SAPC  H20T 4935   4.880   2.275   8.590  0.7095 -0.3222  0.1636
   62SAPC   C33 4936   4.917   2.042  10.421 -0.3599 -0.2800  0.2141
   62SAPC   H3X 4937   5.028   2.045  10.416 -0.3408 -0.6760  0.3955
   62SAPC   H3Y 4938   4.886   2.144  10.455  2.3408 -0.1028  2.4866
   62SAPC   C34 4939   4.873   2.029  10.272 -0.7220  0.5343  0.3441
   62SAPC   H4X 4940   4.763   2.018  10.261 -0.6417  0.1122 -0.0763
   62SAPC   H4Y 4941   4.919   1.934  10.237  0.4754  1.4564 -0.6879
   62SAPC   C35 4942   4.914   2.139  10.174 -1.0800 -0.8500 -0.1462
   62SAPC   H5X 4943   5.025   2.145  10.182 -1.0907 -1.2755  0.3301
   62SAPC   H5Y 4944   4.884   2.239  10.212  1.5323 -0.7014  1.8654
   62SAPC   C36 4945   4.873   2.105  10.024 -0.0539 -0.3272 -0.9274
   62SAPC   H6X 4946   4.762   2.098  10.035 -0.0505 -0.8503 -1.2151
   62SAPC   H6Y 4947   4.896   2.000   9.998  0.3783 -0.4586 -0.0639
   62SAPC   C37 4948   4.929   2.205   9.913  0.1819 -0.5558  0.2072
   62SAPC   H7X 4949   5.035   2.221   9.940 -0.4769  0.2408  2.5696
   62SAPC   H7Y 4950   4.879   2.302   9.933 -0.1264 -0.9552  1.4887
   62SAPC   C38 4951   4.898   2.161   9.778  0.2182  0.0703  0.0148
   62SAPC   H8X 4952   4.789   2.146   9.787 -0.1770  1.7585 -1.2785
   62SAPC   H8Y 4953   4.934   2.061   9.747  1.6377  1.2053 -2.3553
   62SAPC   C39 4954   4.937   2.271   9.672  0.4510 -0.2035  0.1764
   62SAPC   H9X 4955   5.048   2.274   9.664  0.4055  0.7191 -0.1687
   62SAPC   H9Y 4956   4.915   2.374   9.706  1.5033  0.3380 -0.6963
   62SAPC  C310 4957   4.890   2.236   9.532 -0.2677  0.2251  0.1573
   62SAPC  H10X 4958   4.785   2.200   9.525 -0.1314  0.0230 -0.9360
   62SAPC  H10Y 4959   4.944   2.142   9.505 -1.3746  0.4726 -3.4174
   62SAPC  C311 4960   4.914   2.347   9.422 -0.3036  0.4101  0.5485
   62SAPC  H11X 4961   4.906   2.318   9.315  3.5705 -1.0972  0.5171
   62SAPC  H11Y 4962   5.022   2.369   9.437 -0.1381 -0.5683  0.8193
   62SAPC  C312 4963   4.822   2.469   9.460  0.6482  0.0880  0.4782
   62SAPC  H12X 4964   4.860   2.510   9.556 -0.5436  0.0668  0.9794
   62SAPC  H12Y 4965   4.715   2.438   9.470  0.6113 -0.1760 -0.5956
   62SAPC  C313 4966   4.834   2.581   9.351 -0.1371 -0.0610  0.1341
   62SAPC  H13X 4967   4.920   2.569   9.281 -1.5859  0.1431 -1.7614
   62SAPC  H13Y 4968   4.853   2.676   9.404 -0.1117 -0.9729  1.8082
   62SAPC  C314 4969   4.713   2.595   9.263 -0.0354  0.3174 -0.2676
   62SAPC  H14X 4970   4.619   2.610   9.320 -0.5930  1.1031 -1.3620
   62SAPC  H14Y 4971   4.700   2.495   9.216  0.0892  0.4451 -0.5744
   62SAPC  C315 4972   4.720   2.704   9.164 -0.5198  0.4482 -0.3307
   62SAPC  H15X 4973   4.816   2.712   9.109 -0.4362 -4.4072 -1.3632
   62SAPC  H15Y 4974   4.717   2.805   9.211 -2.5352  1.0671 -1.6521
   62SAPC  C316 4975   4.593   2.712   9.078  0.5821  0.5427 -0.2164
   62SAPC  H16X 4976   4.502   2.726   9.141 -0.7505 -1.3539 -1.5888
   62SAPC  H16Y 4977   4.573   2.616   9.025  2.2935 -0.0862  0.2281
   62SAPC  C317 4978   4.590   2.828   8.976 -0.0589 -0.3070  0.0312
   62SAPC  H17X 4979   4.648   2.910   9.024 -2.2466 -0.6810  3.6664
   62SAPC  H17Y 4980   4.484   2.862   8.970  0.0022  0.0223  0.7877
   62SAPC  C318 4981   4.638   2.783   8.837 -0.0525 -0.0175  0.2902
   62SAPC  H18X 4982   4.735   2.731   8.848 -0.5680 -0.7485  1.4606
   62SAPC  H18Y 4983   4.636   2.866   8.762 -1.2012 -0.6526 -0.4177
   62SAPC  H18Z 4984   4.553   2.724   8.797 -0.0154  0.9278 -1.2872
   63SAPC     N 4985   1.180   0.940   6.401  0.0216  0.0129  0.7046
   63SAPC   C12 4986   1.255   1.077   6.422  0.0064  0.4388 -0.6183
   63SAPC  H12A 4987   1.330   1.058   6.498 -0.8802  1.0441  0.4230
   63SAPC  H12B 4988   1.192   1.155   6.461  1.7693  0.9387  1.4646
   63SAPC   C13 4989   1.080   0.957   6.286 -0.6376 -0.6099 -0.2637
   63SAPC  H13A 4990   1.114   1.009   6.198  0.1888 -0.5232  0.0980
   63SAPC  H13B 4991   1.042   0.861   6.254  0.3542 -1.5085  1.1042
   63SAPC  H13C 4992   0.996   1.014   6.322  1.6545  1.4980  2.2628
   63SAPC   C14 4993   1.266   0.823   6.348  0.4434 -0.8531  0.3506
   63SAPC  H14A 4994   1.210   0.731   6.349  0.0707 -0.6175  1.3153
   63SAPC  H14B 4995   1.313   0.839   6.251  0.4909 -0.1341  0.4879
   63SAPC  H14C 4996   1.341   0.809   6.424 -0.9273  0.8044  2.0804
   63SAPC   C15 4997   1.105   0.898   6.524 -0.0474  0.4536  0.3753
   63SAPC  H15A 4998   1.173   0.875   6.605 -2.1015 -0.5262  1.9177
   63SAPC  H15B 4999   1.025   0.960   6.561  0.0522  0.0364  1.3274
   63SAPC  H15C 5000   1.065   0.801   6.498 -0.7812  0.8579 -0.0432
   63SAPC   C11 5001   1.336   1.153   6.309  0.3305 -0.5654  0.1112
   63SAPC  H11A 5002   1.348   1.258   6.346 -3.1158  0.3961 -1.0812
   63SAPC  H11B 5003   1.265   1.164   6.224  0.2107 -1.2279  0.1254
   63SAPC     P 5004   1.580   1.116   6.335 -0.4049 -0.1491 -0.2547
   63SAPC   O13 5005   1.654   0.992   6.367  0.4251  0.4735 -0.5864
   63SAPC   O14 5006   1.661   1.217   6.265 -0.3145  0.2036  1.0787
   63SAPC   O12 5007   1.454   1.082   6.263  0.7902 -0.2596 -0.0629
   63SAPC   O11 5008   1.530   1.185   6.468  0.0882 -0.2687  0.2549
   63SAPC    C1 5009   1.574   1.314   6.503  0.3482 -0.0437  0.0361
   63SAPC    HA 5010   1.684   1.323   6.499  0.3126  0.6675  0.3947
   63SAPC    HB 5011   1.536   1.391   6.432  0.6382 -0.2368 -0.3290
   63SAPC    C2 5012   1.528   1.351   6.646  0.5564  0.2503  0.0769
   63SAPC    HS 5013   1.594   1.437   6.670 -2.4543  2.9491 -0.5464
   63SAPC   O21 5014   1.549   1.243   6.743 -0.2533 -0.6017  0.4582
   63SAPC   C21 5015   1.673   1.216   6.760  0.7285 -0.1711 -0.2037
   63SAPC   O22 5016   1.769   1.289   6.732 -0.1646  0.6742  0.4259
   63SAPC   C22 5017   1.680   1.082   6.828 -0.1280  0.0499 -0.3732
   63SAPC   H2R 5018   1.623   1.096   6.922  1.2107 -2.3052  0.8794
   63SAPC   H2S 5019   1.626   1.004   6.770 -1.3327 -0.8447  1.8215
   63SAPC    C3 5020   1.382   1.395   6.646  0.4300 -0.1150  0.2983
   63SAPC    HX 5021   1.313   1.320   6.601  0.2657  0.4920 -0.4658
   63SAPC    HY 5022   1.366   1.485   6.584 -1.3954  0.6540  1.7792
   63SAPC   O31 5023   1.340   1.421   6.779  0.2233  0.6660 -0.1061
   63SAPC   C31 5024   1.279   1.327   6.850  0.7794 -0.1378 -0.6796
   63SAPC   O32 5025   1.228   1.225   6.806 -0.0363 -0.2051  0.4392
   63SAPC   C32 5026   1.268   1.368   7.001  0.0585 -0.3861  0.1654
   63SAPC   H2X 5027   1.187   1.443   7.010  1.1601  0.8279  0.1931
   63SAPC   H2Y 5028   1.371   1.405   7.021 -0.5874  0.8924  1.2288
   63SAPC   C23 5029   1.828   1.033   6.857 -0.0918  0.8455  0.8638
   63SAPC   H3R 5030   1.903   1.061   6.780 -0.5600 -1.0480 -0.3422
   63SAPC   H3S 5031   1.826   0.922   6.853  1.6764  0.8107  0.1069
   63SAPC   C24 5032   1.882   1.068   6.994 -0.0152 -0.0191  0.1871
   63SAPC   H4R 5033   1.965   0.998   7.015  1.3064  1.2651 -0.6172
   63SAPC   H4S 5034   1.798   1.041   7.063 -1.8124 -3.3767 -2.9408
   63SAPC   C25 5035   1.940   1.208   7.009  0.0549 -0.2846 -0.3469
   63SAPC   H5R 5036   1.931   1.271   6.918  0.3725  2.0081  1.1164
   63SAPC   C26 5037   2.010   1.249   7.122  0.6417  0.4385  0.7820
   63SAPC   H6R 5038   2.032   1.357   7.115 -0.2664  0.5423 -0.6947
   63SAPC   C27 5039   2.038   1.179   7.252 -0.5840 -0.0599 -0.6769
   63SAPC   H7R 5040   1.959   1.103   7.273 -1.6496  1.8333  3.0599
   63SAPC   H7S 5041   2.026   1.253   7.334  0.8099  0.7445 -1.1532
   63SAPC   C28 5042   2.184   1.129   7.259 -0.0646 -0.1328 -0.3363
   63SAPC   H8R 5043   2.222   1.081   7.167  1.3695 -0.1190  0.2281
   63SAPC   C29 5044   2.253   1.120   7.366  0.1686  0.5144 -0.3407
   63SAPC   H9R 5045   2.355   1.078   7.362 -0.4925 -1.3715  0.9349
   63SAPC  C210 5046   2.208   1.156   7.508 -0.4079 -0.3463  0.3931
   63SAPC  H10R 5047   2.133   1.238   7.506  0.1245  0.1215 -0.7217
   63SAPC  H10S 5048   2.294   1.210   7.552 -0.6504  0.6457 -0.3249
   63SAPC  C211 5049   2.168   1.042   7.594 -0.2529  0.4602 -0.1399
   63SAPC  H11R 5050   2.119   0.960   7.540 -0.6382 -0.5430  1.6339
   63SAPC  C212 5051   2.175   1.033   7.725  0.0156  0.4233  0.1244
   63SAPC  H12R 5052   2.133   0.941   7.770 -1.5235 -0.1444 -2.2677
   63SAPC  C213 5053   2.237   1.139   7.823 -0.1095  0.4528  0.5119
   63SAPC  H13R 5054   2.299   1.217   7.772 -1.3169  0.6880 -0.6444
   63SAPC  H13S 5055   2.314   1.093   7.888  0.3459  1.5445  0.7712
   63SAPC  C214 5056   2.134   1.209   7.902 -0.9009  0.1346  0.6527
   63SAPC  H14R 5057   2.058   1.269   7.849 -1.0451  0.6688  1.4480
   63SAPC  C215 5058   2.121   1.205   8.036 -0.1283  1.2419 -0.5274
   63SAPC  H15R 5059   2.049   1.278   8.074  2.0366  3.2807 -0.1001
   63SAPC  C216 5060   2.211   1.124   8.134  0.3958 -0.4599 -0.3968
   63SAPC  H16R 5061   2.184   1.158   8.236  0.1166  3.6042 -1.6145
   63SAPC  H16S 5062   2.318   1.154   8.132  0.2031  0.4646  1.1087
   63SAPC  C217 5063   2.205   0.973   8.130  0.4258 -0.8918  0.3672
   63SAPC  H17R 5064   2.251   0.945   8.032  2.0255 -2.6373  1.5367
   63SAPC  H17S 5065   2.101   0.935   8.140  0.2740 -1.0322 -1.3728
   63SAPC  C218 5066   2.294   0.910   8.241 -0.3832  0.3810  0.0981
   63SAPC  H18R 5067   2.270   0.936   8.347 -0.9191  0.2192  0.0196
   63SAPC  H18S 5068   2.395   0.952   8.221 -0.6191 -0.2815 -2.8400
   63SAPC  C219 5069   2.298   0.756   8.218  0.5417 -0.4794 -1.1984
   63SAPC  H19R 5070   2.330   0.733   8.115  0.0711  0.5842 -1.6011
   63SAPC  H19S 5071   2.195   0.719   8.237  1.3057 -0.8730  3.2412
   63SAPC  C220 5072   2.395   0.697   8.319 -0.1788  0.3709 -0.5171
   63SAPC  H20R 5073   2.390   0.749   8.417 -2.5586 -0.4161 -0.1490
   63SAPC  H20S 5074   2.501   0.704   8.286  0.2157  1.6081  0.8620
   63SAPC  H20T 5075   2.369   0.589   8.325  1.8929 -0.1808 -0.8374
   63SAPC   C33 5076   1.244   1.251   7.098  0.2301  0.9924  0.5050
   63SAPC   H3X 5077   1.341   1.197   7.107  1.2594  2.6310 -0.3540
   63SAPC   H3Y 5078   1.171   1.182   7.051  0.1124  0.4239  1.4910
   63SAPC   C34 5079   1.179   1.308   7.226 -0.0645  0.0942 -0.1626
   63SAPC   H4X 5080   1.145   1.212   7.269  1.6543 -0.9624 -1.0367
   63SAPC   H4Y 5081   1.085   1.364   7.209 -1.5423 -1.7764  1.3795
   63SAPC   C35 5082   1.282   1.372   7.318  0.7517 -0.8441  0.6077
   63SAPC   H5X 5083   1.298   1.481   7.300 -3.5083 -0.1845 -0.0774
   63SAPC   H5Y 5084   1.385   1.333   7.305  0.4574 -1.0174 -1.7076
   63SAPC   C36 5085   1.234   1.360   7.469 -0.4423  0.4815  0.2261
   63SAPC   H6X 5086   1.217   1.253   7.494 -1.5952 -0.2084 -2.9843
   63SAPC   H6Y 5087   1.136   1.413   7.470 -0.8327  0.0268 -2.8556
   63SAPC   C37 5088   1.335   1.428   7.561  0.9150 -0.4432  0.2265
   63SAPC   H7X 5089   1.345   1.538   7.545  1.4050 -0.0663  2.7166
   63SAPC   H7Y 5090   1.438   1.389   7.544  1.6024  0.1950  2.5180
   63SAPC   C38 5091   1.316   1.415   7.711  0.2076  0.4245 -0.2014
   63SAPC   H8X 5092   1.300   1.310   7.743 -1.8940  0.9875  0.8190
   63SAPC   H8Y 5093   1.221   1.467   7.737 -0.0256 -0.3270  0.4862
   63SAPC   C39 5094   1.421   1.492   7.796  0.7570  0.4653 -0.1697
   63SAPC   H9X 5095   1.433   1.596   7.759  3.9831  0.3138  0.1103
   63SAPC   H9Y 5096   1.514   1.431   7.791  0.1544 -0.3683 -3.0100
   63SAPC  C310 5097   1.380   1.497   7.949 -0.2360  0.6754 -0.1836
   63SAPC  H10X 5098   1.388   1.388   7.968  0.7786  0.6051 -0.9050
   63SAPC  H10Y 5099   1.276   1.534   7.959 -1.1898 -0.1288 -4.6476
   63SAPC  C311 5100   1.476   1.585   8.040  0.2012 -0.0029  0.1414
   63SAPC  H11X 5101   1.456   1.690   8.012 -0.2535 -0.5905 -1.9705
   63SAPC  H11Y 5102   1.583   1.560   8.019 -0.0185 -1.0780  0.2395
   63SAPC  C312 5103   1.435   1.568   8.187 -0.1349  0.9029 -0.5167
   63SAPC  H12X 5104   1.438   1.458   8.199  1.5621  0.9202 -0.4081
   63SAPC  H12Y 5105   1.330   1.602   8.195 -1.1061 -2.1703  1.6939
   63SAPC  C313 5106   1.524   1.638   8.287  0.0565 -0.1234 -0.0712
   63SAPC  H13X 5107   1.525   1.744   8.255  0.0876 -0.6674 -2.0197
   63SAPC  H13Y 5108   1.626   1.596   8.273  0.3716  0.8163 -0.6819
   63SAPC  C314 5109   1.489   1.630   8.434 -0.1267  0.0387 -0.6642
   63SAPC  H14X 5110   1.516   1.530   8.476 -1.2161  0.5995  1.5592
   63SAPC  H14Y 5111   1.381   1.646   8.457 -0.0318 -1.1533  0.7645
   63SAPC  C315 5112   1.569   1.729   8.523  0.1752  0.0007  0.1032
   63SAPC  H15X 5113   1.622   1.797   8.453 -0.6240  0.1241 -0.4005
   63SAPC  H15Y 5114   1.650   1.682   8.581 -0.5813 -1.2762  0.1662
   63SAPC  C316 5115   1.484   1.804   8.634 -0.2558  0.0642  0.1649
   63SAPC  H16X 5116   1.391   1.852   8.599  0.6844  1.6074 -0.3326
   63SAPC  H16Y 5117   1.550   1.884   8.675  0.2247  1.3732 -2.8814
   63SAPC  C317 5118   1.427   1.713   8.745 -0.1205  0.7240 -0.3737
   63SAPC  H17X 5119   1.360   1.640   8.695  0.0300  0.7504 -0.6105
   63SAPC  H17Y 5120   1.376   1.772   8.825  0.3302 -0.9045  1.1597
   63SAPC  C318 5121   1.541   1.635   8.815 -0.4284 -0.0260  0.4775
   63SAPC  H18X 5122   1.592   1.568   8.743 -0.4592  0.9023 -0.4333
   63SAPC  H18Y 5123   1.496   1.579   8.900 -0.7524  0.5642  0.7070
   63SAPC  H18Z 5124   1.625   1.702   8.840  0.9888 -0.6533 -2.2694
   64SAPC     N 5125   4.141   1.321   5.737  0.3553 -0.5528  0.1600
   64SAPC   C12 5126   4.160   1.224   5.858 -0.0732  0.7562 -0.1953
   64SAPC  H12A 5127   4.250   1.164   5.849 -1.4618 -1.2661 -1.5075
   64SAPC  H12B 5128   4.086   1.146   5.856  0.4889  0.2184 -1.3461
   64SAPC   C13 5129   4.223   1.444   5.754 -1.0459  0.3505 -0.3114
   64SAPC  H13A 5130   4.239   1.466   5.858  3.2196 -1.5535 -0.3856
   64SAPC  H13B 5131   4.321   1.437   5.710 -0.8579 -2.5599  0.4212
   64SAPC  H13C 5132   4.180   1.534   5.711 -1.0683 -0.0448 -1.1242
   64SAPC   C14 5133   4.159   1.262   5.596 -0.3343 -0.6539 -0.0925
   64SAPC  H14A 5134   4.259   1.225   5.580  0.2401  0.3067  1.1654
   64SAPC  H14B 5135   4.083   1.185   5.585 -1.7783  0.2936  2.3815
   64SAPC  H14C 5136   4.140   1.338   5.522 -3.0480  1.7659  2.7730
   64SAPC   C15 5137   4.002   1.361   5.745  0.2835 -0.4406  0.1780
   64SAPC  H15A 5138   3.935   1.276   5.735  0.7288 -0.6512 -1.2338
   64SAPC  H15B 5139   3.986   1.408   5.840  0.0211 -0.4563  0.1426
   64SAPC  H15C 5140   3.980   1.434   5.669 -0.4089  0.8824  1.6104
   64SAPC   C11 5141   4.125   1.289   6.004  0.1174  0.2086  0.8198
   64SAPC  H11A 5142   4.111   1.216   6.086 -1.2845  0.5678  0.9242
   64SAPC  H11B 5143   4.018   1.319   6.004 -0.2153 -0.7692 -1.5916
   64SAPC     P 5144   4.337   1.389   6.102 -0.5305 -0.0321 -0.4010
   64SAPC   O13 5145   4.370   1.245   6.112 -0.8112  0.3459 -0.0446
   64SAPC   O14 5146   4.418   1.480   6.020  0.2081  0.0806 -0.4515
   64SAPC   O12 5147   4.192   1.406   6.048 -0.1010 -0.1996 -0.0456
   64SAPC   O11 5148   4.330   1.442   6.248  0.2740 -0.7211 -0.2566
   64SAPC    C1 5149   4.212   1.501   6.310 -0.2592  0.1719 -0.0886
   64SAPC    HA 5150   4.184   1.601   6.270 -1.5306  0.8161  2.2540
   64SAPC    HB 5151   4.124   1.434   6.302 -0.7727  0.8013  0.2279
   64SAPC    C2 5152   4.227   1.518   6.463 -0.0907  0.1436 -0.2499
   64SAPC    HS 5153   4.314   1.584   6.481  0.6393 -0.5719 -1.0718
   64SAPC   O21 5154   4.250   1.388   6.524 -0.0843  0.2264 -0.1879
   64SAPC   C21 5155   4.374   1.351   6.530  0.3274  0.1081 -0.1607
   64SAPC   O22 5156   4.474   1.410   6.490  0.1881 -0.0819  0.3019
   64SAPC   C22 5157   4.380   1.222   6.614 -0.7718  0.1477  0.1546
   64SAPC   H2R 5158   4.314   1.219   6.703 -0.0994  0.4372  0.6717
   64SAPC   H2S 5159   4.358   1.140   6.543  2.4919 -2.3485  1.7362
   64SAPC    C3 5160   4.097   1.572   6.539 -0.3279  0.6263  0.5042
   64SAPC    HX 5161   4.027   1.492   6.572  0.5190 -0.5708 -0.4865
   64SAPC    HY 5162   4.048   1.646   6.474 -2.9736 -1.3518  0.0931
   64SAPC   O31 5163   4.149   1.638   6.658  1.1572  0.4864 -0.2735
   64SAPC   C31 5164   4.062   1.689   6.745 -0.2965 -0.8718 -0.0895
   64SAPC   O32 5165   3.944   1.681   6.745  0.4729  0.4485 -0.2642
   64SAPC   C32 5166   4.143   1.771   6.854  0.0429 -0.2931  0.0730
   64SAPC   H2X 5167   4.086   1.866   6.868 -0.8382 -0.4331 -2.1162
   64SAPC   H2Y 5168   4.239   1.805   6.809  0.1491  0.9458  1.1587
   64SAPC   C23 5169   4.514   1.193   6.680 -0.3997  0.1511  0.5562
   64SAPC   H3R 5170   4.586   1.188   6.596  3.0449 -1.8178  3.3298
   64SAPC   H3S 5171   4.501   1.093   6.726 -3.1094  0.3680  0.4530
   64SAPC   C24 5172   4.548   1.303   6.786 -0.8680  0.6358 -0.5706
   64SAPC   H4R 5173   4.476   1.305   6.870 -0.2565 -2.3678  0.1470
   64SAPC   H4S 5174   4.551   1.402   6.737 -1.7402 -0.2622 -2.5471
   64SAPC   C25 5175   4.687   1.274   6.845 -0.2448  0.2387  0.4184
   64SAPC   H5R 5176   4.769   1.338   6.810  0.4881 -1.5325 -1.3275
   64SAPC   C26 5177   4.702   1.191   6.950  0.5126 -0.2535 -0.9367
   64SAPC   H6R 5178   4.803   1.188   6.993  0.3545  3.6563  0.0968
   64SAPC   C27 5179   4.589   1.121   7.016 -0.1701 -0.1121 -0.2494
   64SAPC   H7R 5180   4.512   1.095   6.940  1.6039 -1.2313 -1.7719
   64SAPC   H7S 5181   4.540   1.183   7.094 -3.2409 -2.2982 -0.2411
   64SAPC   C28 5182   4.628   0.985   7.078 -0.3077  0.1929 -0.0859
   64SAPC   H8R 5183   4.620   0.901   7.008 -0.2721  0.0969  0.0261
   64SAPC   C29 5184   4.663   0.951   7.204 -0.2984  0.1012  0.5716
   64SAPC   H9R 5185   4.681   0.845   7.227  0.3578  0.1210  0.1572
   64SAPC  C210 5186   4.662   1.045   7.325 -0.5742 -0.5101  0.3059
   64SAPC  H10R 5187   4.671   1.152   7.298 -1.3456  0.0237  2.0496
   64SAPC  H10S 5188   4.748   1.019   7.390  1.5264 -0.3595 -2.2330
   64SAPC  C211 5189   4.534   1.046   7.404  0.7067  0.4305 -0.0747
   64SAPC  H11R 5190   4.441   1.057   7.347  0.6133 -0.3287 -0.0751
   64SAPC  C212 5191   4.520   1.055   7.540 -0.1993 -0.6485  0.1725
   64SAPC  H12R 5192   4.420   1.055   7.584 -0.4499 -0.5430 -0.3860
   64SAPC  C213 5193   4.630   1.068   7.639  0.0994 -0.0389  0.2153
   64SAPC  H13R 5194   4.712   1.126   7.592  0.2682 -1.3909 -1.2558
   64SAPC  H13S 5195   4.662   0.962   7.652 -3.6299 -1.8519 -3.2669
   64SAPC  C214 5196   4.606   1.130   7.773 -0.3990  0.4347 -0.0746
   64SAPC  H14R 5197   4.646   1.231   7.793  0.1253  0.5199 -1.4424
   64SAPC  C215 5198   4.564   1.060   7.880  0.0652  0.1779  0.0157
   64SAPC  H15R 5199   4.573   1.105   7.980 -1.2290  1.4649 -0.4097
   64SAPC  C216 5200   4.511   0.918   7.887  0.9188  0.6221  0.6941
   64SAPC  H16R 5201   4.501   0.876   7.784 -0.6160  2.7141 -0.0823
   64SAPC  H16S 5202   4.408   0.924   7.927 -0.4893  0.5475 -2.6292
   64SAPC  C217 5203   4.600   0.833   7.977  0.0894 -0.4325 -0.2850
   64SAPC  H17R 5204   4.599   0.875   8.080  1.4138 -0.8054 -0.0964
   64SAPC  H17S 5205   4.704   0.828   7.937  0.3562 -0.3269  0.3747
   64SAPC  C218 5206   4.540   0.696   7.993  0.3035  0.5105 -0.7534
   64SAPC  H18R 5207   4.564   0.638   7.901  1.5329  0.7274 -0.5875
   64SAPC  H18S 5208   4.429   0.704   7.992  0.0465 -2.1265 -1.5537
   64SAPC  C219 5209   4.592   0.630   8.119 -0.2014  0.6201  1.0179
   64SAPC  H19R 5210   4.572   0.521   8.129 -0.5546  0.5350 -0.4285
   64SAPC  H19S 5211   4.535   0.671   8.205 -1.0623 -0.2022  0.8562
   64SAPC  C220 5212   4.744   0.642   8.134 -0.2977  0.5254  0.3699
   64SAPC  H20R 5213   4.781   0.593   8.227 -1.5335 -0.5986  0.2832
   64SAPC  H20S 5214   4.781   0.747   8.138  1.4468  0.1604 -2.8210
   64SAPC  H20T 5215   4.805   0.591   8.057 -1.9599 -1.2147  0.1510
   64SAPC   C33 5216   4.162   1.688   6.983 -0.0382 -0.0625 -0.3558
   64SAPC   H3X 5217   4.061   1.652   7.012 -1.2627  4.1541  1.4478
   64SAPC   H3Y 5218   4.201   1.759   7.059 -0.5371  0.6017 -0.7092
   64SAPC   C34 5219   4.252   1.572   6.956 -0.1171  0.6074  0.4575
   64SAPC   H4X 5220   4.361   1.592   6.953  0.3024 -1.4732 -0.4610
   64SAPC   H4Y 5221   4.222   1.524   6.860  1.5039 -0.4080  0.4102
   64SAPC   C35 5222   4.231   1.455   7.058  0.0057 -0.1662 -0.7082
   64SAPC   H5X 5223   4.284   1.367   7.016 -1.3052 -2.1497  1.5629
   64SAPC   H5Y 5224   4.124   1.426   7.064  0.1927 -0.5645  1.7377
   64SAPC   C36 5225   4.259   1.494   7.205  0.4955 -0.0649  0.3075
   64SAPC   H6X 5226   4.244   1.604   7.212 -1.5196 -0.1310 -1.8475
   64SAPC   H6Y 5227   4.367   1.479   7.225  1.1812  1.9853 -1.4265
   64SAPC   C37 5228   4.178   1.418   7.309 -0.3644  0.8058  0.5557
   64SAPC   H7X 5229   4.172   1.311   7.278  3.3170  0.4347  0.6744
   64SAPC   H7Y 5230   4.075   1.457   7.321 -0.3957  1.2030 -0.8205
   64SAPC   C38 5231   4.243   1.412   7.445  0.3636 -0.2651  0.1560
   64SAPC   H8X 5232   4.238   1.514   7.489  1.8228 -0.6812  1.3688
   64SAPC   H8Y 5233   4.349   1.382   7.435  0.8142  0.9170  1.0630
   64SAPC   C39 5234   4.180   1.300   7.534 -1.2098 -0.2807  0.2138
   64SAPC   H9X 5235   4.194   1.203   7.480  0.3313  0.2452 -0.3856
   64SAPC   H9Y 5236   4.070   1.313   7.533 -1.1854  0.2939 -2.0818
   64SAPC  C310 5237   4.222   1.304   7.683  0.3570 -0.8856 -0.3909
   64SAPC  H10X 5238   4.331   1.316   7.696 -0.0777  1.4379  2.1185
   64SAPC  H10Y 5239   4.180   1.219   7.740 -2.4939  1.3017  1.0728
   64SAPC  C311 5240   4.161   1.429   7.751 -0.8625  0.3859 -0.2708
   64SAPC  H11X 5241   4.050   1.418   7.754 -0.6686 -1.9420  0.7166
   64SAPC  H11Y 5242   4.185   1.523   7.697  0.4690  1.0196  1.3533
   64SAPC  C312 5243   4.203   1.457   7.899 -0.0058 -0.0934  0.7718
   64SAPC  H12X 5244   4.313   1.469   7.894  0.0807 -0.0243  2.4299
   64SAPC  H12Y 5245   4.182   1.369   7.963 -0.0074  0.3211  1.3425
   64SAPC  C313 5246   4.149   1.597   7.954 -0.3175 -1.0436  0.5954
   64SAPC  H13X 5247   4.038   1.595   7.964 -0.2640  1.9760  3.5805
   64SAPC  H13Y 5248   4.170   1.687   7.892  2.2327 -1.9684  0.0039
   64SAPC  C314 5249   4.211   1.635   8.090 -0.0728  0.2240 -0.5772
   64SAPC  H14X 5250   4.314   1.599   8.110 -1.0624 -0.7647  3.7202
   64SAPC  H14Y 5251   4.146   1.583   8.164 -1.1547 -0.1510 -1.7413
   64SAPC  C315 5252   4.202   1.782   8.138  0.6425 -0.0965  0.1558
   64SAPC  H15X 5253   4.092   1.794   8.147  0.5050 -0.8221 -0.4842
   64SAPC  H15Y 5254   4.240   1.845   8.054  1.6626 -2.4708 -1.2828
   64SAPC  C316 5255   4.279   1.804   8.265 -0.4926 -0.0847 -0.3682
   64SAPC  H16X 5256   4.387   1.804   8.236 -0.5580 -1.3722 -0.6912
   64SAPC  H16Y 5257   4.264   1.718   8.335  0.4259  0.9449  1.1665
   64SAPC  C317 5258   4.234   1.922   8.342  0.1157  0.2806 -0.7577
   64SAPC  H17X 5259   4.210   2.005   8.273 -0.9193  1.3078  0.7798
   64SAPC  H17Y 5260   4.313   1.964   8.409 -1.1555 -0.0197  0.9958
   64SAPC  C318 5261   4.105   1.890   8.425 -0.2912 -0.2829  0.3181
   64SAPC  H18X 5262   4.081   1.978   8.488  1.5793  0.8500 -0.4859
   64SAPC  H18Y 5263   4.135   1.815   8.502 -1.0779  1.8725  2.8604
   64SAPC  H18Z 5264   4.035   1.845   8.351  1.6354  1.0034 -2.4799
   65SAPC     N 5265   4.545   3.620   6.317  0.2078 -1.1308 -0.4867
   65SAPC   C12 5266   4.696   3.594   6.324 -0.4566 -0.2747 -0.0041
   65SAPC  H12A 5267   4.731   3.533   6.241  2.0430  2.1608 -0.9163
   65SAPC  H12B 5268   4.721   3.539   6.413  4.3648  1.4447  0.0070
   65SAPC   C13 5269   4.506   3.702   6.434  0.4798  0.1987  0.5604
   65SAPC  H13A 5270   4.530   3.660   6.531  0.3739 -0.3306  0.3580
   65SAPC  H13B 5271   4.536   3.805   6.425 -1.3994  0.7171 -0.2208
   65SAPC  H13C 5272   4.398   3.700   6.435  0.4479  0.5451 -0.9996
   65SAPC   C14 5273   4.497   3.700   6.200  0.2289 -0.2968  1.2340
   65SAPC  H14A 5274   4.536   3.801   6.200  1.3201 -0.6829 -0.0073
   65SAPC  H14B 5275   4.527   3.661   6.104 -0.6195  1.8413  0.0357
   65SAPC  H14C 5276   4.389   3.694   6.197  0.3416 -3.1254  0.0713
   65SAPC   C15 5277   4.470   3.495   6.312  0.1073  0.2531  0.4601
   65SAPC  H15A 5278   4.512   3.435   6.392 -0.3830  0.4107  0.8395
   65SAPC  H15B 5279   4.366   3.516   6.327  0.3330  3.3411 -1.3941
   65SAPC  H15C 5280   4.483   3.443   6.218 -0.3284  1.6060 -0.3797
   65SAPC   C11 5281   4.794   3.715   6.340 -0.0435  0.5119  0.9071
   65SAPC  H11A 5282   4.869   3.681   6.415 -2.6162 -2.9065  2.2463
   65SAPC  H11B 5283   4.734   3.796   6.387 -1.1596  0.0977  0.2390
   65SAPC     P 5284   4.848   3.911   6.166  0.6757 -0.0566  0.0178
   65SAPC   O13 5285   4.959   3.924   6.070 -0.1681  0.2114  0.0266
   65SAPC   O14 5286   4.705   3.941   6.118  0.0715 -0.5122 -0.2742
   65SAPC   O12 5287   4.856   3.761   6.216  0.3487  1.6804 -0.2619
   65SAPC   O11 5288   4.885   3.999   6.290 -0.4443 -0.2572 -0.1960
   65SAPC    C1 5289   4.796   4.063   6.381 -0.5601 -0.5095  0.0821
   65SAPC    HA 5290   4.693   4.034   6.352 -0.6373 -1.2578  1.0745
   65SAPC    HB 5291   4.811   4.008   6.476 -1.7548 -0.3260  0.3970
   65SAPC    C2 5292   4.819   4.216   6.411 -0.5297  0.2009 -0.2657
   65SAPC    HS 5293   4.804   4.263   6.311 -1.9175 -0.0988 -0.2319
   65SAPC   O21 5294   4.949   4.237   6.466  0.1390  0.3659  0.5962
   65SAPC   C21 5295   4.986   4.368   6.460  0.0552 -0.1149  0.6813
   65SAPC   O22 5296   4.925   4.450   6.394 -0.0885  0.1406 -0.3601
   65SAPC   C22 5297   5.127   4.380   6.525 -0.0114  0.3406 -0.3075
   65SAPC   H2R 5298   5.146   4.301   6.601  0.7087 -0.3604 -1.1814
   65SAPC   H2S 5299   5.203   4.375   6.444  1.1252  2.6709  0.5325
   65SAPC    C3 5300   4.711   4.275   6.497  0.6344  0.4612 -0.3995
   65SAPC    HX 5301   4.618   4.250   6.441  0.5060  0.1071 -0.0296
   65SAPC    HY 5302   4.729   4.385   6.500  0.3952  0.5761 -2.1521
   65SAPC   O31 5303   4.719   4.212   6.624 -0.0539  0.4025 -0.2830
   65SAPC   C31 5304   4.614   4.231   6.708  0.2936  0.1346  0.1803
   65SAPC   O32 5305   4.531   4.321   6.695  0.2213  0.1669 -0.2055
   65SAPC   C32 5306   4.618   4.122   6.808  0.1532  0.7078 -0.4649
   65SAPC   H2X 5307   4.693   4.150   6.886 -0.4031 -1.1760  0.8146
   65SAPC   H2Y 5308   4.643   4.024   6.763 -0.9316 -0.7742  1.9531
   65SAPC   C23 5309   5.145   4.521   6.589 -0.0083  0.1252 -0.1731
   65SAPC   H3R 5310   5.103   4.595   6.517 -0.0971 -0.1070 -0.3581
   65SAPC   H3S 5311   5.253   4.547   6.582 -0.0791  0.5501  0.2199
   65SAPC   C24 5312   5.075   4.522   6.727 -0.2671 -0.3704  1.2179
   65SAPC   H4R 5313   4.965   4.503   6.725 -0.2737 -0.2889 -0.2219
   65SAPC   H4S 5314   5.085   4.630   6.748  1.5572 -0.0727 -0.8830
   65SAPC   C25 5315   5.156   4.437   6.826  0.1283  0.1997  0.3795
   65SAPC   H5R 5316   5.261   4.466   6.840  0.8547 -2.1228  0.1693
   65SAPC   C26 5317   5.108   4.330   6.891  0.5219 -0.4507  0.2186
   65SAPC   H6R 5318   5.178   4.277   6.958 -0.8031 -0.1026  1.9567
   65SAPC   C27 5319   4.974   4.274   6.889 -0.0102 -0.0205 -0.6596
   65SAPC   H7R 5320   4.903   4.350   6.850 -1.4357 -2.5384 -3.4374
   65SAPC   H7S 5321   4.931   4.233   6.983  1.0824  1.2356  0.4150
   65SAPC   C28 5322   4.969   4.154   6.793 -0.4024 -0.5095 -0.2984
   65SAPC   H8R 5323   4.937   4.177   6.690 -1.1390  2.3244  0.4533
   65SAPC   C29 5324   5.001   4.031   6.833 -0.1228  0.1234 -0.2539
   65SAPC   H9R 5325   5.011   3.943   6.768  1.3214  0.0347  0.0667
   65SAPC  C210 5326   5.058   3.986   6.968 -0.2056 -0.5281  0.0068
   65SAPC  H10R 5327   5.152   4.037   6.999  0.1463 -2.3350  2.1486
   65SAPC  H10S 5328   5.110   3.888   6.965 -2.6632 -1.8994 -0.3176
   65SAPC  C211 5329   4.946   3.966   7.070 -0.6529  0.7926 -0.5491
   65SAPC  H11R 5330   4.871   3.893   7.037 -0.2069  0.9583 -2.0121
   65SAPC  C212 5331   4.933   4.032   7.189 -0.9746 -0.6336  0.3601
   65SAPC  H12R 5332   4.840   4.022   7.247 -1.1389  0.4988  0.3215
   65SAPC  C213 5333   5.030   4.137   7.229 -0.3657  0.2278  0.4590
   65SAPC  H13R 5334   5.032   4.222   7.157 -1.7450  0.3329  0.5246
   65SAPC  H13S 5335   5.135   4.103   7.223 -0.4384 -0.0476  0.7017
   65SAPC  C214 5336   5.014   4.215   7.357  0.4508 -0.3457  0.1365
   65SAPC  H14R 5337   5.005   4.324   7.342  2.9901 -0.1661 -0.6695
   65SAPC  C215 5338   5.023   4.165   7.480 -0.1993  0.1886  0.3349
   65SAPC  H15R 5339   5.011   4.235   7.564 -0.9194 -1.3707  1.5880
   65SAPC  C216 5340   5.048   4.017   7.517  0.2043 -0.0039  0.0673
   65SAPC  H16R 5341   5.073   3.954   7.429 -0.5314  0.3871 -0.4270
   65SAPC  H16S 5342   4.951   3.981   7.556 -0.4737  1.1141 -0.5586
   65SAPC  C217 5343   5.168   3.999   7.620 -0.4700 -0.6399 -0.1362
   65SAPC  H17R 5344   5.249   4.065   7.583  0.2207 -2.3192 -1.8082
   65SAPC  H17S 5345   5.215   3.899   7.608 -0.4026 -0.4106 -2.0747
   65SAPC  C218 5346   5.127   4.050   7.758 -0.5668  0.9739 -0.1470
   65SAPC  H18R 5347   5.102   4.157   7.742  0.1639  1.3335  1.0626
   65SAPC  H18S 5348   5.208   4.054   7.833  0.4116 -1.5192 -0.9536
   65SAPC  C219 5349   5.014   3.965   7.827 -0.3266 -0.1399 -0.1723
   65SAPC  H19R 5350   4.938   3.942   7.750 -0.9567  1.2583  0.0035
   65SAPC  H19S 5351   4.969   4.033   7.903  1.2201  1.9143 -0.9842
   65SAPC  C220 5352   5.062   3.830   7.884  0.1267 -0.5043 -0.0387
   65SAPC  H20R 5353   5.102   3.785   7.791  0.4724  0.2336 -0.2569
   65SAPC  H20S 5354   4.983   3.769   7.932 -0.2937 -0.0540 -0.1487
   65SAPC  H20T 5355   5.148   3.852   7.951  0.5440 -0.5594 -0.5564
   65SAPC   C33 5356   4.483   4.117   6.883  0.4013 -0.3720  0.5969
   65SAPC   H3X 5357   4.409   4.070   6.816 -0.5330  1.3112  0.3914
   65SAPC   H3Y 5358   4.447   4.221   6.903  1.9042  0.1679  0.6547
   65SAPC   C34 5359   4.487   4.054   7.021 -0.2041  0.1081  0.5944
   65SAPC   H4X 5360   4.538   3.957   7.005  0.8137  0.8347 -0.7684
   65SAPC   H4Y 5361   4.388   4.025   7.063 -0.2660 -2.7848 -1.3000
   65SAPC   C35 5362   4.566   4.140   7.125  0.2136  0.2882 -0.7322
   65SAPC   H5X 5363   4.531   4.245   7.125 -0.4653  0.0725  0.1718
   65SAPC   H5Y 5364   4.674   4.128   7.099 -0.1092  0.9552 -2.5133
   65SAPC   C36 5365   4.552   4.093   7.273 -0.1562 -0.4525 -0.0699
   65SAPC   H6X 5366   4.597   3.993   7.290  0.2997 -0.1805  0.3488
   65SAPC   H6Y 5367   4.443   4.078   7.287  0.1440 -3.5125 -0.3396
   65SAPC   C37 5368   4.625   4.184   7.374 -0.1919  0.2095 -0.1098
   65SAPC   H7X 5369   4.604   4.290   7.351  1.5939  0.1697 -2.1790
   65SAPC   H7Y 5370   4.733   4.162   7.364 -0.3248 -1.2837  1.1839
   65SAPC   C38 5371   4.590   4.158   7.526 -0.2523  0.4155 -0.8904
   65SAPC   H8X 5372   4.593   4.050   7.548 -0.6731  0.4163 -0.8298
   65SAPC   H8Y 5373   4.489   4.202   7.543 -1.0997 -0.6878 -2.8061
   65SAPC   C39 5374   4.699   4.213   7.616  0.3598 -0.2552 -0.6191
   65SAPC   H9X 5375   4.744   4.294   7.555 -0.5782  0.6383 -0.1519
   65SAPC   H9Y 5376   4.774   4.139   7.650 -2.9947 -2.9210  1.6274
   65SAPC  C310 5377   4.646   4.259   7.756 -0.0111  0.8272  0.3732
   65SAPC  H10X 5378   4.559   4.325   7.735  0.9518  1.6476 -1.1873
   65SAPC  H10Y 5379   4.718   4.323   7.812 -2.3571  1.1793  3.2422
   65SAPC  C311 5380   4.613   4.138   7.849  0.6167 -0.5877  0.1566
   65SAPC  H11X 5381   4.688   4.056   7.849  1.6368  0.2612 -2.0041
   65SAPC  H11Y 5382   4.524   4.085   7.811 -0.7341  2.0506 -0.6048
   65SAPC  C312 5383   4.587   4.196   7.996  0.1496 -0.3034  0.6094
   65SAPC  H12X 5384   4.491   4.252   7.993  1.2444  1.6377  0.1049
   65SAPC  H12Y 5385   4.674   4.261   8.017  2.3069 -3.0915  0.8054
   65SAPC  C313 5386   4.574   4.090   8.100 -0.1493  0.4017  0.1855
   65SAPC  H13X 5387   4.655   4.014   8.098  0.7364  1.3348 -0.6233
   65SAPC  H13Y 5388   4.483   4.029   8.084  1.4247 -1.9547 -0.2603
   65SAPC  C314 5389   4.561   4.145   8.240  0.4844 -0.7328  0.4470
   65SAPC  H14X 5390   4.471   4.211   8.236  0.5982 -0.2568  3.2319
   65SAPC  H14Y 5391   4.649   4.208   8.267  0.7424 -0.8018 -0.2370
   65SAPC  C315 5392   4.531   4.034   8.337  0.9889  0.2136  0.0231
   65SAPC  H15X 5393   4.601   3.949   8.319 -0.7157 -1.1918 -0.1650
   65SAPC  H15Y 5394   4.427   4.011   8.308 -0.0992  1.2975  2.7490
   65SAPC  C316 5395   4.534   4.046   8.494 -0.1211 -0.2437  0.1411
   65SAPC  H16X 5396   4.448   3.999   8.546 -0.1185 -0.6908 -0.2498
   65SAPC  H16Y 5397   4.523   4.152   8.524  1.0160 -0.4419  1.3266
   65SAPC  C317 5398   4.657   3.978   8.556  0.2080 -0.2311 -0.1965
   65SAPC  H17X 5399   4.700   4.046   8.634 -1.1672 -1.2640  1.5546
   65SAPC  H17Y 5400   4.729   3.947   8.478  0.3219  3.0149 -1.5536
   65SAPC  C318 5401   4.632   3.848   8.636  0.6080  0.1477  0.3033
   65SAPC  H18X 5402   4.569   3.778   8.577  0.0930  1.0845 -0.2883
   65SAPC  H18Y 5403   4.582   3.851   8.735 -0.6857 -1.3176 -0.2639
   65SAPC  H18Z 5404   4.728   3.796   8.658  1.4489  1.1593 -0.8073
   66SAPC     N 5405   1.282   2.736   6.052 -0.7476  0.0241  0.7546
   66SAPC   C12 5406   1.244   2.735   6.202  0.0118 -0.0700  0.3419
   66SAPC  H12A 5407   1.275   2.642   6.246 -0.0799 -0.3624 -0.2094
   66SAPC  H12B 5408   1.137   2.745   6.201 -0.0645 -0.7395  1.0362
   66SAPC   C13 5409   1.245   2.867   5.981  0.4253  0.1770 -0.4673
   66SAPC  H13A 5410   1.279   2.881   5.879  1.1614  0.5356 -0.1879
   66SAPC  H13B 5411   1.139   2.887   5.984  0.7570  2.7076 -2.2595
   66SAPC  H13C 5412   1.282   2.946   6.045 -0.8248 -1.3748  2.3475
   66SAPC   C14 5413   1.428   2.716   6.039 -0.2303 -0.6724  0.2233
   66SAPC  H14A 5414   1.465   2.622   6.075 -2.1138 -0.9486  1.6074
   66SAPC  H14B 5415   1.464   2.724   5.938 -1.0422 -1.7173 -0.1677
   66SAPC  H14C 5416   1.470   2.790   6.106 -3.0587  0.4253  0.9496
   66SAPC   C15 5417   1.205   2.631   5.972  0.1528  0.4093 -0.2581
   66SAPC  H15A 5418   1.250   2.633   5.874  1.5519  1.0664  0.3584
   66SAPC  H15B 5419   1.211   2.531   6.013 -1.0335  0.0789 -0.8724
   66SAPC  H15C 5420   1.102   2.660   5.964  0.6573  1.7464 -2.7039
   66SAPC   C11 5421   1.304   2.851   6.284  0.3077  0.2678 -0.6241
   66SAPC  H11A 5422   1.414   2.835   6.280  0.1646 -0.8570 -0.3153
   66SAPC  H11B 5423   1.265   2.832   6.386 -0.5905 -0.1898 -1.0450
   66SAPC     P 5424   1.130   3.044   6.257 -0.1852 -0.6985  0.0257
   66SAPC   O13 5425   1.132   3.177   6.198 -0.0907 -0.2379 -0.1528
   66SAPC   O14 5426   1.030   2.955   6.201  0.7390  0.0773 -0.0461
   66SAPC   O12 5427   1.272   2.982   6.251 -0.5024  0.2904 -0.7572
   66SAPC   O11 5428   1.107   3.055   6.409 -0.2606 -0.7564  0.2497
   66SAPC    C1 5429   1.192   3.159   6.477  0.9017  0.4881 -0.7114
   66SAPC    HA 5430   1.279   3.196   6.418  0.5158 -0.0343 -1.6289
   66SAPC    HB 5431   1.136   3.252   6.498  0.7769  0.5864 -1.4612
   66SAPC    C2 5432   1.242   3.106   6.620  0.3997  0.3671 -0.1003
   66SAPC    HS 5433   1.229   3.191   6.691  3.1298  1.0875 -0.3732
   66SAPC   O21 5434   1.379   3.058   6.620 -1.1614  0.5487 -0.2672
   66SAPC   C21 5435   1.467   3.151   6.583  0.1078  0.7266  0.1541
   66SAPC   O22 5436   1.445   3.270   6.574 -0.5097  0.4794  0.6778
   66SAPC   C22 5437   1.604   3.083   6.561  0.2223 -0.4446  0.6614
   66SAPC   H2R 5438   1.595   2.986   6.508  0.6547 -0.0688 -0.1047
   66SAPC   H2S 5439   1.669   3.153   6.505 -2.4015  2.0692  0.4878
   66SAPC    C3 5440   1.143   2.998   6.671 -0.3590 -0.2780 -0.2950
   66SAPC    HX 5441   1.128   2.926   6.588  1.0838 -1.4681  0.4392
   66SAPC    HY 5442   1.048   3.051   6.695  0.8271  1.9983 -0.3218
   66SAPC   O31 5443   1.189   2.926   6.792 -0.6452  0.3042  0.0705
   66SAPC   C31 5444   1.272   2.822   6.775  0.1880  0.2398  0.5668
   66SAPC   O32 5445   1.290   2.769   6.666 -0.3611 -0.6507  0.2172
   66SAPC   C32 5446   1.329   2.773   6.910  0.3123 -0.6001  0.3859
   66SAPC   H2X 5447   1.431   2.739   6.882  0.7559  2.5808 -2.6090
   66SAPC   H2Y 5448   1.260   2.691   6.940 -2.2752  1.3696  0.1522
   66SAPC   C23 5449   1.679   3.051   6.690 -0.2640 -0.2711  0.3724
   66SAPC   H3R 5450   1.614   3.039   6.780  1.5991  2.7847  2.3188
   66SAPC   H3S 5451   1.732   3.145   6.716 -0.8305 -0.9322  4.7250
   66SAPC   C24 5452   1.765   2.929   6.670  0.3329  0.6708 -0.1694
   66SAPC   H4R 5453   1.811   2.927   6.569 -0.8829 -0.7664 -0.7393
   66SAPC   H4S 5454   1.705   2.836   6.672  1.5321 -0.1278  0.1278
   66SAPC   C25 5455   1.869   2.922   6.783  1.0740 -0.3634 -0.3377
   66SAPC   H5R 5456   1.969   2.960   6.756  0.1034  1.3609 -1.7104
   66SAPC   C26 5457   1.861   2.878   6.914 -0.7615 -0.5631  0.3073
   66SAPC   H6R 5458   1.958   2.866   6.965 -1.0088 -0.6383  0.7725
   66SAPC   C27 5459   1.744   2.837   6.992  0.2922  0.9169  0.9510
   66SAPC   H7R 5460   1.771   2.763   7.071 -2.4373  0.5373  1.6028
   66SAPC   H7S 5461   1.662   2.793   6.931  0.3047  0.6800  1.1015
   66SAPC   C28 5462   1.690   2.958   7.061 -0.3093 -1.3570  0.0238
   66SAPC   H8R 5463   1.660   3.035   6.989  2.5551 -1.0895 -0.9921
   66SAPC   C29 5464   1.696   2.990   7.191 -0.5784  0.2558 -0.0611
   66SAPC   H9R 5465   1.657   3.088   7.223  0.9673  0.2231  2.2225
   66SAPC  C210 5466   1.762   2.907   7.303 -0.4046 -0.2281  0.3814
   66SAPC  H10R 5467   1.819   2.978   7.367  1.6024 -0.9773 -0.4893
   66SAPC  H10S 5468   1.840   2.837   7.266 -0.3888 -0.0352  0.0419
   66SAPC  C211 5469   1.655   2.829   7.369 -0.1397 -0.3477 -0.1169
   66SAPC  H11R 5470   1.579   2.772   7.313 -2.0614  1.6332  0.3577
   66SAPC  C212 5471   1.642   2.820   7.503  0.0110  0.3860  0.5911
   66SAPC  H12R 5472   1.557   2.766   7.546 -0.7174 -1.4888 -2.8464
   66SAPC  C213 5473   1.734   2.891   7.597 -0.3305  0.1553 -0.1303
   66SAPC  H13R 5474   1.733   2.999   7.570 -1.0650  0.5232  1.2600
   66SAPC  H13S 5475   1.839   2.862   7.576 -0.5223  0.7481 -2.0908
   66SAPC  C214 5476   1.692   2.873   7.741  0.3885 -0.3518  0.3003
   66SAPC  H14R 5477   1.623   2.950   7.778  0.9009  1.3477 -2.0747
   66SAPC  C215 5478   1.723   2.763   7.829 -0.2935 -0.7367  0.0193
   66SAPC  H15R 5479   1.688   2.766   7.933 -1.8934  0.3673 -0.5163
   66SAPC  C216 5480   1.809   2.647   7.787  0.3662  0.5197  0.7079
   66SAPC  H16R 5481   1.888   2.669   7.712  1.3567 -2.3595  0.7793
   66SAPC  H16S 5482   1.735   2.584   7.732 -1.1802  1.7566  1.2759
   66SAPC  C217 5483   1.873   2.584   7.912  0.0663  0.4781 -0.2017
   66SAPC  H17R 5484   1.935   2.499   7.877 -1.3934 -0.6090 -0.2472
   66SAPC  H17S 5485   1.791   2.535   7.969  0.1461 -0.3984 -0.8216
   66SAPC  C218 5486   1.958   2.669   8.007 -0.8316  0.0416  0.8163
   66SAPC  H18R 5487   1.939   2.622   8.106  0.4760  0.3225  1.2291
   66SAPC  H18S 5488   1.917   2.772   8.020 -1.0968  0.0592 -0.1492
   66SAPC  C219 5489   2.108   2.678   7.974  0.6175  0.5884 -0.0386
   66SAPC  H19R 5490   2.120   2.747   7.888 -1.7077  0.9167 -0.1569
   66SAPC  H19S 5491   2.135   2.573   7.952 -1.0164  0.4392 -1.5306
   66SAPC  C220 5492   2.196   2.724   8.087  0.5821 -0.0738  0.8839
   66SAPC  H20R 5493   2.164   2.825   8.121  1.5348  0.4129  0.3653
   66SAPC  H20S 5494   2.301   2.741   8.058  0.5485 -0.2885  0.6345
   66SAPC  H20T 5495   2.197   2.648   8.167  2.7897  0.0356  1.0038
   66SAPC   C33 5496   1.339   2.873   7.034 -0.0598 -0.3955  0.5192
   66SAPC   H3X 5497   1.355   2.977   7.000 -1.9492  0.2619  1.5008
   66SAPC   H3Y 5498   1.432   2.841   7.086  1.2234 -0.7877 -1.8449
   66SAPC   C34 5499   1.214   2.883   7.120  0.6852 -0.5018  0.0713
   66SAPC   H4X 5500   1.200   2.779   7.159  0.4098  0.4436  2.7177
   66SAPC   H4Y 5501   1.138   2.911   7.044  0.6529 -1.7588 -0.3873
   66SAPC   C35 5502   1.237   2.978   7.244 -0.2700 -0.3468 -0.1884
   66SAPC   H5X 5503   1.272   3.072   7.197  0.4879 -0.4712  0.1096
   66SAPC   H5Y 5504   1.322   2.934   7.301 -0.0746  0.4802  0.1763
   66SAPC   C36 5505   1.120   2.999   7.335 -0.0251 -0.9339 -0.7899
   66SAPC   H6X 5506   1.062   2.905   7.326 -1.3632 -0.1599 -0.5181
   66SAPC   H6Y 5507   1.060   3.091   7.320  0.9395 -0.2452 -0.5039
   66SAPC   C37 5508   1.153   3.010   7.487 -0.2683  0.3818  0.3407
   66SAPC   H7X 5509   1.211   3.103   7.508  1.2792 -0.3659 -0.4517
   66SAPC   H7Y 5510   1.211   2.924   7.526 -1.5768  0.2821  2.1912
   66SAPC   C38 5511   1.025   3.023   7.571 -0.4466 -0.1132 -0.3871
   66SAPC   H8X 5512   0.984   2.921   7.554  2.0813 -1.0254 -1.4625
   66SAPC   H8Y 5513   0.954   3.103   7.540 -0.1606  0.3515  0.1514
   66SAPC   C39 5514   1.049   3.030   7.724 -0.4168 -0.8490 -0.2384
   66SAPC   H9X 5515   0.961   2.988   7.777 -0.5601 -1.2111 -0.7612
   66SAPC   H9Y 5516   1.066   3.132   7.766  2.8041 -1.6230  0.6649
   66SAPC  C310 5517   1.167   2.948   7.773 -0.0780  0.2893  0.3024
   66SAPC  H10X 5518   1.253   2.998   7.724 -1.0857  2.2726  0.4632
   66SAPC  H10Y 5519   1.158   2.842   7.742 -2.1477  1.3346 -3.1373
   66SAPC  C311 5520   1.200   2.972   7.922 -0.2904 -0.2276  0.1852
   66SAPC  H11X 5521   1.114   2.947   7.988  0.3853  1.2269  1.7015
   66SAPC  H11Y 5522   1.217   3.081   7.940  0.6005 -0.0845 -1.3936
   66SAPC  C312 5523   1.324   2.886   7.962 -0.1706  0.1830 -0.3708
   66SAPC  H12X 5524   1.399   2.926   7.890  0.3916 -0.5036 -0.1806
   66SAPC  H12Y 5525   1.311   2.777   7.945  0.5021  0.2126 -1.1409
   66SAPC  C313 5526   1.367   2.909   8.109 -0.5157 -0.5741 -0.2518
   66SAPC  H13X 5527   1.276   2.882   8.167  0.1974  1.0417  1.7383
   66SAPC  H13Y 5528   1.387   3.016   8.128 -0.0518 -1.2199  3.8425
   66SAPC  C314 5529   1.493   2.836   8.155 -0.6232  0.0903 -0.3882
   66SAPC  H14X 5530   1.575   2.852   8.081  1.4220  1.6932  2.0467
   66SAPC  H14Y 5531   1.463   2.730   8.163  0.1724 -0.1081  0.0108
   66SAPC  C315 5532   1.524   2.877   8.293  0.4293  0.3437  0.3616
   66SAPC  H15X 5533   1.430   2.854   8.348  0.5761 -0.4544  0.2929
   66SAPC  H15Y 5534   1.551   2.985   8.284  0.4068  0.4040  0.9620
   66SAPC  C316 5535   1.649   2.807   8.352  0.5625  0.3841  0.9641
   66SAPC  H16X 5536   1.684   2.870   8.437  2.0480 -0.5176  1.0586
   66SAPC  H16Y 5537   1.727   2.798   8.273 -0.4778  1.3716 -0.2195
   66SAPC  C317 5538   1.613   2.666   8.395 -0.0941  0.0500 -1.0244
   66SAPC  H17X 5539   1.587   2.599   8.310  2.7540  0.2393 -2.1705
   66SAPC  H17Y 5540   1.517   2.665   8.451 -0.9906 -1.1968 -2.5043
   66SAPC  C318 5541   1.728   2.599   8.478  0.6854 -0.5624 -1.1850
   66SAPC  H18X 5542   1.758   2.669   8.559 -1.4356  0.4606 -1.2142
   66SAPC  H18Y 5543   1.816   2.586   8.411 -0.3473 -1.4449 -2.4222
   66SAPC  H18Z 5544   1.692   2.501   8.516  0.4019  0.1925  0.5949
   67SAPC     N 5545   3.214   4.093   6.229  0.2569 -0.5804 -0.9478
   67SAPC   C12 5546   3.342   4.169   6.245 -1.1341 -0.2424 -0.1674
   67SAPC  H12A 5547   3.364   4.229   6.158  0.9164  0.7338  0.9505
   67SAPC  H12B 5548   3.418   4.091   6.249 -0.8500  0.0072 -0.6156
   67SAPC   C13 5549   3.098   4.188   6.193 -0.2849 -0.6270 -0.2818
   67SAPC  H13A 5550   3.008   4.132   6.173 -1.2987  1.1240 -0.9179
   67SAPC  H13B 5551   3.096   4.260   6.274 -1.5255  0.2938 -1.0825
   67SAPC  H13C 5552   3.128   4.229   6.097  2.9884 -0.9580  0.4753
   67SAPC   C14 5553   3.223   3.992   6.120 -0.2446  0.1657  0.5806
   67SAPC  H14A 5554   3.235   4.041   6.024  1.7436 -2.3627 -0.5678
   67SAPC  H14B 5555   3.313   3.935   6.134  1.3970  2.0243 -1.7267
   67SAPC  H14C 5556   3.142   3.920   6.114 -0.2965  0.3242 -0.8593
   67SAPC   C15 5557   3.177   4.028   6.360  0.2697 -0.4871  0.3342
   67SAPC  H15A 5558   3.186   4.099   6.441 -0.5402  0.2517 -0.2015
   67SAPC  H15B 5559   3.073   3.999   6.363 -0.3594  1.4902 -0.3795
   67SAPC  H15C 5560   3.248   3.952   6.389  0.3563 -0.7918 -0.6398
   67SAPC   C11 5561   3.377   4.262   6.369 -0.3802 -0.5911  0.6194
   67SAPC  H11A 5562   3.480   4.299   6.350 -0.4968  0.0840  1.2591
   67SAPC  H11B 5563   3.374   4.200   6.461 -1.8141  0.2670  1.1787
   67SAPC     P 5564   3.187   4.386   6.504  0.1463  0.6475 -0.5921
   67SAPC   O13 5565   3.115   4.514   6.492  0.1526  0.1027  0.3495
   67SAPC   O14 5566   3.095   4.269   6.516 -0.2223 -0.0099 -0.5321
   67SAPC   O12 5567   3.281   4.369   6.375  0.0943 -0.2999 -0.1298
   67SAPC   O11 5568   3.282   4.401   6.631 -0.1842  0.3639 -0.1197
   67SAPC    C1 5569   3.399   4.484   6.623 -0.8273  0.2173  0.4733
   67SAPC    HA 5570   3.490   4.421   6.620 -1.0337 -0.0894  0.5961
   67SAPC    HB 5571   3.404   4.533   6.524  1.5450 -0.8279  0.0232
   67SAPC    C2 5572   3.415   4.581   6.745 -0.4342 -0.5951  0.2145
   67SAPC    HS 5573   3.512   4.634   6.730 -1.0361 -0.2741 -3.4154
   67SAPC   O21 5574   3.417   4.499   6.865 -0.3186 -0.4708  0.2167
   67SAPC   C21 5575   3.532   4.445   6.887  0.0152 -0.6260 -0.0507
   67SAPC   O22 5576   3.632   4.468   6.824  0.0099  0.5488 -0.7058
   67SAPC   C22 5577   3.511   4.361   7.012 -0.6860  0.3111  0.2444
   67SAPC   H2R 5578   3.446   4.274   6.989  1.2429 -1.0712 -0.2806
   67SAPC   H2S 5579   3.608   4.309   7.034 -0.8654  0.2237  0.8618
   67SAPC    C3 5580   3.302   4.693   6.748  0.1916 -0.3812  0.2912
   67SAPC    HX 5581   3.203   4.646   6.731 -1.1356  1.8595  1.3729
   67SAPC    HY 5582   3.328   4.761   6.664 -0.1797  0.4572  0.8403
   67SAPC   O31 5583   3.299   4.753   6.878  0.0723 -0.5522 -0.1961
   67SAPC   C31 5584   3.396   4.841   6.893 -0.7244  0.2128  0.0365
   67SAPC   O32 5585   3.470   4.884   6.806 -0.0287  0.1299  0.3251
   67SAPC   C32 5586   3.388   4.893   7.039  0.0292 -0.0936  0.4531
   67SAPC   H2X 5587   3.292   4.856   7.081  1.0606 -1.7491  1.4741
   67SAPC   H2Y 5588   3.384   5.003   7.027 -0.1341 -0.3209 -2.1539
   67SAPC   C23 5589   3.458   4.438   7.132 -0.0667  0.1388 -0.4482
   67SAPC   H3R 5590   3.373   4.499   7.096  1.3907  0.6692 -3.3001
   67SAPC   H3S 5591   3.535   4.516   7.147  1.0753 -0.7155 -1.6422
   67SAPC   C24 5592   3.447   4.345   7.259 -0.3634 -0.4597 -0.2651
   67SAPC   H4R 5593   3.419   4.416   7.339  2.2415  1.7611 -1.1722
   67SAPC   H4S 5594   3.548   4.316   7.294  0.2073  3.0328  1.4305
   67SAPC   C25 5595   3.358   4.222   7.244 -0.5544  0.0256  0.0188
   67SAPC   H5R 5596   3.252   4.249   7.232 -1.0508 -1.3055  1.1590
   67SAPC   C26 5597   3.395   4.091   7.234  0.2967 -0.8191  0.5111
   67SAPC   H6R 5598   3.316   4.014   7.220 -0.4015 -0.2024  0.9779
   67SAPC   C27 5599   3.542   4.037   7.250  0.7716  0.1004 -0.3776
   67SAPC   H7R 5600   3.546   3.983   7.347  1.8382 -2.6071 -1.8245
   67SAPC   H7S 5601   3.606   4.123   7.277 -1.4893  1.6942  0.2384
   67SAPC   C28 5602   3.580   3.962   7.131 -0.8085 -0.0758  0.0213
   67SAPC   H8R 5603   3.565   4.016   7.037  0.1664 -0.7973 -0.5690
   67SAPC   C29 5604   3.628   3.836   7.126 -0.0277 -0.0692  0.4597
   67SAPC   H9R 5605   3.653   3.799   7.025 -1.0107 -0.3705  0.3226
   67SAPC  C210 5606   3.644   3.740   7.243  0.4431  0.1703  0.0884
   67SAPC  H10R 5607   3.604   3.640   7.214  0.2988  0.7254 -1.7856
   67SAPC  H10S 5608   3.584   3.780   7.327 -0.1757  1.0804 -0.7645
   67SAPC  C211 5609   3.787   3.725   7.277  0.5353  0.5503 -0.1888
   67SAPC  H11R 5610   3.841   3.698   7.185 -0.1622  0.9948 -0.7454
   67SAPC  C212 5611   3.845   3.740   7.397 -0.3974 -0.2948 -0.3351
   67SAPC  H12R 5612   3.951   3.713   7.404 -0.7057 -1.6446 -0.6883
   67SAPC  C213 5613   3.779   3.786   7.519  0.2940 -0.0722 -0.2679
   67SAPC  H13R 5614   3.673   3.754   7.516  1.1837 -3.3407 -2.7895
   67SAPC  H13S 5615   3.784   3.896   7.534 -0.7786 -0.2443  1.7199
   67SAPC  C214 5616   3.847   3.721   7.632 -0.2001 -0.1238  0.5654
   67SAPC  H14R 5617   3.889   3.621   7.612  1.5638  0.4910  0.9410
   67SAPC  C215 5618   3.872   3.780   7.756 -0.3295 -0.6264 -0.3961
   67SAPC  H15R 5619   3.939   3.719   7.819 -0.7021  1.2765  1.9754
   67SAPC  C216 5620   3.839   3.915   7.812 -0.9406  0.5012 -0.4220
   67SAPC  H16R 5621   3.787   3.961   7.726  0.9863  0.8236 -1.4804
   67SAPC  H16S 5622   3.928   3.973   7.846 -1.9779  2.0449 -0.2313
   67SAPC  C217 5623   3.739   3.895   7.922 -0.2767  0.0839  0.2163
   67SAPC  H17R 5624   3.783   3.856   8.016  0.0939  1.8714  0.8299
   67SAPC  H17S 5625   3.656   3.832   7.884  0.3692 -1.4789  1.3336
   67SAPC  C218 5626   3.673   4.026   7.968 -0.4550 -0.1143  0.2572
   67SAPC  H18R 5627   3.612   4.067   7.884 -2.0079 -0.1086  1.3341
   67SAPC  H18S 5628   3.747   4.103   7.997 -1.8947  0.3957  2.9589
   67SAPC  C219 5629   3.579   3.991   8.089  0.0336  0.2395  0.0410
   67SAPC  H19R 5630   3.531   3.894   8.061  0.7217 -0.0019 -0.3292
   67SAPC  H19S 5631   3.499   4.068   8.096 -0.3834 -0.2508  0.8209
   67SAPC  C220 5632   3.646   3.951   8.218  0.5953  0.3744 -0.5590
   67SAPC  H20R 5633   3.702   4.029   8.276 -0.2902 -1.7952  3.6145
   67SAPC  H20S 5634   3.714   3.866   8.197  0.2383 -0.5895  1.8915
   67SAPC  H20T 5635   3.568   3.921   8.290 -0.2887 -0.0423 -1.6663
   67SAPC   C33 5636   3.498   4.840   7.139 -0.0288 -0.0586  0.2109
   67SAPC   H3X 5637   3.601   4.847   7.099 -0.2615  0.8873 -0.2437
   67SAPC   H3Y 5638   3.475   4.732   7.150  2.0296 -0.3885  2.0012
   67SAPC   C34 5639   3.490   4.903   7.284  0.6134 -0.2407 -0.0122
   67SAPC   H4X 5640   3.381   4.892   7.302  0.1509 -0.4416 -2.5895
   67SAPC   H4Y 5641   3.512   5.011   7.270 -2.5783  0.2914 -1.8409
   67SAPC   C35 5642   3.574   4.840   7.392  0.1725 -0.6432 -0.4386
   67SAPC   H5X 5643   3.681   4.863   7.370  0.2029 -0.0479  0.3130
   67SAPC   H5Y 5644   3.569   4.729   7.396  2.9429 -0.8490 -0.3964
   67SAPC   C36 5645   3.534   4.898   7.530  0.4223 -0.1472 -0.5195
   67SAPC   H6X 5646   3.428   4.867   7.545 -0.1599  2.3604  1.2400
   67SAPC   H6Y 5647   3.527   5.009   7.526 -0.5576 -0.1704  0.2279
   67SAPC   C37 5648   3.600   4.853   7.656  0.3853  0.2338  0.0025
   67SAPC   H7X 5649   3.706   4.885   7.664  0.0678  1.0041  1.5427
   67SAPC   H7Y 5650   3.580   4.749   7.689 -1.8870  0.6847  0.1961
   67SAPC   C38 5651   3.530   4.927   7.777 -0.2138  0.1521 -0.3232
   67SAPC   H8X 5652   3.421   4.924   7.756 -0.1046 -0.1711 -0.8737
   67SAPC   H8Y 5653   3.547   5.036   7.787  0.2783 -0.0973  2.6517
   67SAPC   C39 5654   3.579   4.886   7.919 -0.0927 -0.4744 -0.4513
   67SAPC   H9X 5655   3.675   4.831   7.909  1.2169  1.5431  0.4512
   67SAPC   H9Y 5656   3.520   4.808   7.972  0.5194 -0.4399  0.2927
   67SAPC  C310 5657   3.585   5.003   8.024  0.4928 -0.1641  0.2059
   67SAPC  H10X 5658   3.481   5.042   8.034  0.6464  0.3931 -0.3263
   67SAPC  H10Y 5659   3.645   5.085   7.980 -0.6760  0.0881 -0.9971
   67SAPC  C311 5660   3.635   4.963   8.167  0.1911 -0.1450  0.7485
   67SAPC  H11X 5661   3.722   4.895   8.154 -1.8770 -2.6597 -1.3402
   67SAPC  H11Y 5662   3.556   4.890   8.196 -1.7331  0.6105 -2.1589
   67SAPC  C312 5663   3.654   5.080   8.266 -0.1228 -0.0668  0.5594
   67SAPC  H12X 5664   3.572   5.155   8.264  0.9460  1.1804  1.6360
   67SAPC  H12Y 5665   3.750   5.130   8.244 -0.7352  1.5711  1.4711
   67SAPC  C313 5666   3.634   5.014   8.402 -0.0284  0.2508 -0.1284
   67SAPC  H13X 5667   3.711   4.936   8.420  1.5181  0.8991 -3.2136
   67SAPC  H13Y 5668   3.538   4.959   8.401 -0.3518  0.7482  1.2732
   67SAPC  C314 5669   3.619   5.109   8.521  0.5812 -0.0327  0.7195
   67SAPC  H14X 5670   3.521   5.160   8.515 -0.1842 -1.3519  1.6342
   67SAPC  H14Y 5671   3.697   5.187   8.510 -0.4713  1.0363  0.7169
   67SAPC  C315 5672   3.632   5.044   8.655  0.1747  0.2467 -0.8749
   67SAPC  H15X 5673   3.568   4.953   8.645 -0.5819  0.7106 -0.3655
   67SAPC  H15Y 5674   3.590   5.109   8.735  0.3862  0.0179 -0.5757
   67SAPC  C316 5675   3.781   4.998   8.694  0.0969 -0.6015  0.4116
   67SAPC  H16X 5676   3.847   5.083   8.667 -2.2471  1.4594  0.8740
   67SAPC  H16Y 5677   3.802   4.904   8.639 -1.8228 -1.8173  1.6304
   67SAPC  C317 5678   3.792   4.971   8.843  0.5562  0.1744 -0.4514
   67SAPC  H17X 5679   3.722   4.888   8.868 -0.9047  0.2430 -3.8061
   67SAPC  H17Y 5680   3.761   5.055   8.909 -1.3660  0.3625 -1.5272
   67SAPC  C318 5681   3.934   4.933   8.895 -0.8313  0.0629 -0.3809
   67SAPC  H18X 5682   3.930   4.893   8.999  0.9075  0.1800 -0.2331
   67SAPC  H18Y 5683   4.008   5.015   8.882  1.8582 -2.0467  0.4615
   67SAPC  H18Z 5684   3.962   4.851   8.825 -0.2488  0.9587 -1.2322
   68SAPC     N 5685   0.412   2.729   5.967 -0.4260 -0.4321 -0.9432
   68SAPC   C12 5686   0.408   2.736   6.115 -0.6202  0.3154 -0.7146
   68SAPC  H12A 5687   0.380   2.640   6.153 -1.7813  0.0417 -2.1724
   68SAPC  H12B 5688   0.321   2.797   6.135 -0.4894  0.2606  0.0184
   68SAPC   C13 5689   0.543   2.681   5.914  0.0113 -0.4397  0.5570
   68SAPC  H13A 5690   0.616   2.756   5.940 -1.2960  0.9290  0.4326
   68SAPC  H13B 5691   0.578   2.587   5.953  0.5109 -0.0196  1.1343
   68SAPC  H13C 5692   0.542   2.682   5.806  0.0149 -1.6289  0.5415
   68SAPC   C14 5693   0.301   2.649   5.912 -0.1730  0.6193  0.3317
   68SAPC  H14A 5694   0.294   2.548   5.950  1.4001 -0.3207 -1.6742
   68SAPC  H14B 5695   0.206   2.697   5.929 -1.0863 -0.1433 -2.1564
   68SAPC  H14C 5696   0.312   2.643   5.804 -1.8346 -0.2796  0.1698
   68SAPC   C15 5697   0.392   2.873   5.922  0.3244 -0.9017 -0.1020
   68SAPC  H15A 5698   0.298   2.912   5.958 -0.3490 -0.0720 -2.5427
   68SAPC  H15B 5699   0.476   2.933   5.953 -0.5711 -0.0883  0.8043
   68SAPC  H15C 5700   0.382   2.887   5.815  0.4433 -0.8212 -0.1016
   68SAPC   C11 5701   0.540   2.786   6.179  0.7244  0.4213  0.1809
   68SAPC  H11A 5702   0.608   2.700   6.161  0.5978 -0.2873  2.6143
   68SAPC  H11B 5703   0.523   2.797   6.289 -0.6927  1.3256 -0.1162
   68SAPC     P 5704   0.536   3.045   6.184 -0.2500  0.0533  0.0053
   68SAPC   O13 5705   0.608   3.148   6.111  0.2743  0.4617 -0.0950
   68SAPC   O14 5706   0.391   3.045   6.180  0.2477 -0.5230  0.6074
   68SAPC   O12 5707   0.587   2.910   6.121  0.3306  0.2252  0.0156
   68SAPC   O11 5708   0.594   3.049   6.327 -0.6532 -0.1463  0.0210
   68SAPC    C1 5709   0.738   3.038   6.358 -0.7966  0.3621  0.0341
   68SAPC    HA 5710   0.761   2.947   6.417 -0.3812  1.3066  1.3825
   68SAPC    HB 5711   0.790   3.035   6.260 -3.6849 -0.4695 -1.5813
   68SAPC    C2 5712   0.782   3.159   6.448 -0.5016  0.4661 -0.2195
   68SAPC    HS 5713   0.891   3.143   6.460  0.0485  1.2622 -3.4223
   68SAPC   O21 5714   0.705   3.169   6.572  0.3939 -0.1691 -0.6350
   68SAPC   C21 5715   0.734   3.081   6.665  0.5635 -0.5341 -0.2354
   68SAPC   O22 5716   0.807   2.988   6.656 -1.2316  0.5591  0.2631
   68SAPC   C22 5717   0.651   3.118   6.786 -0.6030 -0.7687  0.5178
   68SAPC   H2R 5718   0.645   3.229   6.793 -2.5097 -0.8837  1.6051
   68SAPC   H2S 5719   0.544   3.087   6.785 -0.5010 -1.1149  0.2509
   68SAPC    C3 5720   0.769   3.291   6.374  0.3087 -0.0343  0.1050
   68SAPC    HX 5721   0.660   3.309   6.359 -0.0586 -1.8816  0.3110
   68SAPC    HY 5722   0.826   3.295   6.279 -0.1387 -1.1436 -0.2242
   68SAPC   O31 5723   0.820   3.382   6.464 -0.2364  0.4479  0.3902
   68SAPC   C31 5724   0.769   3.504   6.464  0.3867 -0.2291  0.5356
   68SAPC   O32 5725   0.669   3.543   6.395 -1.2438 -0.2938  0.4228
   68SAPC   C32 5726   0.821   3.586   6.582 -0.4757  0.4351  0.0846
   68SAPC   H2X 5727   0.930   3.608   6.576 -0.3652 -0.2187 -0.4164
   68SAPC   H2Y 5728   0.803   3.533   6.678  1.1431  1.4822  1.0055
   68SAPC   C23 5729   0.712   3.075   6.919 -0.1080  0.2143  0.5373
   68SAPC   H3R 5730   0.725   2.965   6.904  2.5002  0.7383 -1.9284
   68SAPC   H3S 5731   0.635   3.096   6.996 -0.2792  1.1369  0.1206
   68SAPC   C24 5732   0.846   3.122   6.962 -0.0025 -0.5848 -0.2545
   68SAPC   H4R 5733   0.919   3.093   6.883  1.3155 -1.2404  1.1471
   68SAPC   H4S 5734   0.882   3.062   7.048  0.5895 -1.7009 -1.2498
   68SAPC   C25 5735   0.851   3.272   6.997  0.5352  0.4590  0.0587
   68SAPC   H5R 5736   0.800   3.305   7.089  1.6091 -1.9863  1.6433
   68SAPC   C26 5737   0.917   3.359   6.916  0.0893 -0.7615  0.5028
   68SAPC   H6R 5738   0.917   3.467   6.939  3.0404 -0.7617  0.8322
   68SAPC   C27 5739   0.997   3.331   6.789  0.4109  0.6726 -0.0564
   68SAPC   H7R 5740   0.921   3.337   6.707 -0.3839 -1.8908  0.4021
   68SAPC   H7S 5741   1.043   3.230   6.783  2.2335  1.4520  0.3478
   68SAPC   C28 5742   1.105   3.425   6.761  0.4480 -0.1869  0.2744
   68SAPC   H8R 5743   1.092   3.497   6.679 -0.5696 -0.0931  0.5060
   68SAPC   C29 5744   1.215   3.431   6.829  0.1824  0.2971 -0.0217
   68SAPC   H9R 5745   1.284   3.516   6.821  0.8453 -0.2646 -0.4379
   68SAPC  C210 5746   1.241   3.339   6.954  0.6121  0.1076  0.7127
   68SAPC  H10R 5747   1.188   3.242   6.946 -1.2190  1.0607  0.5975
   68SAPC  H10S 5748   1.198   3.389   7.044 -1.6675  0.8313 -0.6764
   68SAPC  C211 5749   1.385   3.304   6.970 -0.5057  0.3558  0.1804
   68SAPC  H11R 5750   1.438   3.287   6.874 -0.8553  1.6687 -0.2697
   68SAPC  C212 5751   1.462   3.307   7.080 -0.8691  0.3190  0.4442
   68SAPC  H12R 5752   1.565   3.267   7.079 -0.7641  0.5586 -1.4676
   68SAPC  C213 5753   1.413   3.325   7.222  0.3800  0.4187 -0.2681
   68SAPC  H13R 5754   1.410   3.223   7.265 -0.2387 -0.3469 -2.0736
   68SAPC  H13S 5755   1.310   3.368   7.227  0.0911 -0.1843 -0.9574
   68SAPC  C214 5756   1.502   3.407   7.309 -0.0609  0.4035 -0.2215
   68SAPC  H14R 5757   1.562   3.479   7.251 -1.2701  0.8686 -0.9396
   68SAPC  C215 5758   1.506   3.417   7.443 -0.2304  0.1622 -0.6513
   68SAPC  H15R 5759   1.571   3.483   7.502  1.3693 -0.3741 -1.7268
   68SAPC  C216 5760   1.419   3.323   7.532  0.6174 -0.3131  0.5132
   68SAPC  H16R 5761   1.324   3.289   7.484 -0.6280  0.8388  2.0574
   68SAPC  H16S 5762   1.373   3.371   7.620 -0.3902  1.1937 -0.7725
   68SAPC  C217 5763   1.507   3.203   7.584  0.2611 -0.1071  0.3511
   68SAPC  H17R 5764   1.556   3.150   7.499 -1.5450  0.0451 -0.8431
   68SAPC  H17S 5765   1.441   3.129   7.634 -1.0456 -0.1591 -1.3581
   68SAPC  C218 5766   1.616   3.256   7.683 -0.4861  0.0314  1.0975
   68SAPC  H18R 5767   1.691   3.319   7.632  1.4181 -2.6368  0.3948
   68SAPC  H18S 5768   1.670   3.161   7.704 -2.2517 -1.7523 -1.6995
   68SAPC  C219 5769   1.563   3.328   7.814 -0.5328  0.3550  0.1374
   68SAPC  H19R 5770   1.525   3.429   7.789 -0.7991  0.0357 -0.7593
   68SAPC  H19S 5771   1.658   3.331   7.872  2.2393 -0.6975 -3.9664
   68SAPC  C220 5772   1.471   3.245   7.892 -0.6330 -0.1141 -0.2230
   68SAPC  H20R 5773   1.514   3.145   7.913  3.0778  0.5836 -3.4461
   68SAPC  H20S 5774   1.376   3.252   7.835 -1.2293  1.6901  0.8995
   68SAPC  H20T 5775   1.452   3.288   7.993  1.7648 -1.1453  0.7341
   68SAPC   C33 5776   0.743   3.718   6.590 -0.9232 -0.0961 -1.0357
   68SAPC   H3X 5777   0.633   3.706   6.587 -1.4048  2.5774  1.1952
   68SAPC   H3Y 5778   0.783   3.783   6.510  0.7181  0.2699  0.0302
   68SAPC   C34 5779   0.785   3.800   6.717 -0.2639  0.9339 -0.1956
   68SAPC   H4X 5780   0.893   3.784   6.739 -0.7494  0.9864  2.5741
   68SAPC   H4Y 5781   0.730   3.753   6.801 -1.8122 -1.0204 -2.1937
   68SAPC   C35 5782   0.764   3.947   6.711 -0.1559  0.3709 -0.1653
   68SAPC   H5X 5783   0.657   3.969   6.695  0.0166  0.9528 -0.5863
   68SAPC   H5Y 5784   0.794   3.976   6.608 -3.0592  2.2912 -0.5780
   68SAPC   C36 5785   0.841   4.022   6.815 -0.8526  0.0775 -0.1928
   68SAPC   H6X 5786   0.865   4.127   6.787 -0.4304 -0.2645 -1.1589
   68SAPC   H6Y 5787   0.939   3.972   6.831 -0.6967  0.9513  1.9108
   68SAPC   C37 5788   0.774   4.016   6.961  0.4712 -0.8946  0.3457
   68SAPC   H7X 5789   0.772   3.908   6.985  0.9298 -0.8411  0.6262
   68SAPC   H7Y 5790   0.672   4.059   6.948  0.6675 -0.0915  1.3286
   68SAPC   C38 5791   0.854   4.082   7.068 -0.3776 -0.3500 -0.2423
   68SAPC   H8X 5792   0.847   4.193   7.073  0.4340 -0.3021 -0.0637
   68SAPC   H8Y 5793   0.956   4.041   7.055 -1.1091 -1.4868 -3.0237
   68SAPC   C39 5794   0.794   4.037   7.205  0.6110 -0.4055  0.4142
   68SAPC   H9X 5795   0.785   3.927   7.213  2.1017 -0.5107  0.7577
   68SAPC   H9Y 5796   0.695   4.084   7.226  0.2001  0.1919 -2.4193
   68SAPC  C310 5797   0.881   4.075   7.321  0.4051 -0.3413 -0.2102
   68SAPC  H10X 5798   0.877   4.185   7.335  0.1166 -0.4959  1.0039
   68SAPC  H10Y 5799   0.985   4.042   7.300 -0.3193 -1.6873 -1.8890
   68SAPC  C311 5800   0.842   4.013   7.461  0.4165  0.5121  0.7501
   68SAPC  H11X 5801   0.837   3.902   7.463  0.3915  0.4792 -0.4225
   68SAPC  H11Y 5802   0.743   4.050   7.494 -0.2894 -0.3279 -0.3535
   68SAPC  C312 5803   0.949   4.060   7.574 -0.0227  0.2779 -0.1650
   68SAPC  H12X 5804   0.962   4.169   7.556  0.9670  0.0060 -1.1477
   68SAPC  H12Y 5805   1.041   4.006   7.544 -1.1944  0.2707 -4.3888
   68SAPC  C313 5806   0.894   4.050   7.717  0.1117  0.3126  0.8783
   68SAPC  H13X 5807   0.819   3.968   7.708 -1.3222  1.8070 -2.3257
   68SAPC  H13Y 5808   0.824   4.135   7.734 -1.4438 -0.7100 -0.1622
   68SAPC  C314 5809   0.994   4.033   7.827  0.1650 -0.7289 -0.0364
   68SAPC  H14X 5810   1.067   4.117   7.824 -0.8124  0.1641  0.4166
   68SAPC  H14Y 5811   1.047   3.936   7.812  0.4428 -0.6419  0.3652
   68SAPC  C315 5812   0.911   4.034   7.961 -0.3036 -0.1178  0.2395
   68SAPC  H15X 5813   0.836   4.116   7.957 -2.6272 -2.0595  1.5874
   68SAPC  H15Y 5814   0.982   4.065   8.040  1.8995 -0.0762 -1.6400
   68SAPC  C316 5815   0.851   3.899   7.989  0.4230 -0.2406 -0.0188
   68SAPC  H16X 5816   0.941   3.835   8.004  2.2552  2.2098  0.0555
   68SAPC  H16Y 5817   0.797   3.851   7.904  2.7740 -1.4250 -0.9197
   68SAPC  C317 5818   0.763   3.897   8.109  0.1601 -0.1798 -0.3940
   68SAPC  H17X 5819   0.678   3.966   8.093  2.1506  1.7662 -3.6803
   68SAPC  H17Y 5820   0.831   3.933   8.189  1.5503  0.2356 -1.7220
   68SAPC  C318 5821   0.699   3.764   8.125  0.2245 -0.2089 -0.0125
   68SAPC  H18X 5822   0.771   3.682   8.146 -0.1172 -0.4405  0.2834
   68SAPC  H18Y 5823   0.627   3.747   8.042 -0.5807  2.5559  0.0242
   68SAPC  H18Z 5824   0.626   3.766   8.210  1.3431  2.1510  0.9911
   69SLPC     N 5825   0.101   0.425  10.903  0.1668 -0.0892  0.1662
   69SLPC   C13 5826   0.021   0.450  10.778  0.7504 -0.3353  0.0558
   69SLPC  H13A 5827   0.031   0.373  10.704 -0.6488 -0.5552  0.0735
   69SLPC  H13B 5828  -0.081   0.438  10.811  0.5119  0.8894 -0.1959
   69SLPC  H13C 5829   0.042   0.545  10.732  4.0046 -0.1876  1.5641
   69SLPC   C14 5830   0.246   0.413  10.863  0.7352  0.0299  0.3362
   69SLPC  H14A 5831   0.300   0.372  10.947  0.3285  1.1243  1.1537
   69SLPC  H14B 5832   0.253   0.357  10.771  0.9520  0.5659  0.0158
   69SLPC  H14C 5833   0.283   0.514  10.847  1.1966 -0.3032 -0.8288
   69SLPC   C15 5834   0.050   0.298  10.964 -0.3488  0.3410  0.3698
   69SLPC  H15A 5835  -0.036   0.318  11.027 -0.6560 -1.8431  0.7485
   69SLPC  H15B 5836   0.014   0.219  10.900 -0.8902  0.2460  0.7804
   69SLPC  H15C 5837   0.125   0.262  11.034 -0.5555  1.3922  1.1507
   69SLPC   C12 5838   0.089   0.540  10.992 -0.0626 -0.0499  0.0807
   69SLPC  H12A 5839  -0.018   0.551  10.998 -0.1369 -0.2433 -0.7382
   69SLPC  H12B 5840   0.113   0.634  10.945  0.8422 -1.5402 -2.6543
   69SLPC   C11 5841   0.137   0.539  11.139 -0.3810  0.3528 -1.5248
   69SLPC  H11A 5842   0.082   0.462  11.197  0.7411  0.0158 -0.8633
   69SLPC  H11B 5843   0.111   0.638  11.182  3.1218  0.6370  0.3327
   69SLPC     P 5844   0.370   0.651  11.144  0.1176  0.1560  0.0794
   69SLPC   O13 5845   0.329   0.728  11.262 -0.0819  0.3105 -0.1557
   69SLPC   O14 5846   0.515   0.613  11.143 -0.0346  0.1250  0.2370
   69SLPC   O12 5847   0.281   0.520  11.145 -0.0898  0.8812  0.0185
   69SLPC   O11 5848   0.337   0.732  11.007  0.0714  0.1125 -0.1168
   69SLPC    C1 5849   0.433   0.803  10.926  0.2864  0.2913  0.2256
   69SLPC    HA 5850   0.380   0.891  10.884 -1.2266 -0.5793  0.2632
   69SLPC    HB 5851   0.527   0.829  10.980  1.8800 -1.7507 -1.4002
   69SLPC    C2 5852   0.483   0.714  10.803  0.8560  0.1795 -0.1307
   69SLPC    HS 5853   0.553   0.783  10.751  1.4443  0.7890  1.3943
   69SLPC   O21 5854   0.380   0.653  10.728  0.5601 -0.0468 -0.3825
   69SLPC   C21 5855   0.317   0.744  10.651  0.3510  0.4836  0.2826
   69SLPC   O22 5856   0.330   0.866  10.655 -0.3044  0.3647 -0.3517
   69SLPC   C22 5857   0.227   0.665  10.553  0.1230 -0.6391  0.3298
   69SLPC   H2R 5858   0.301   0.597  10.505  0.7214  0.1974  0.0421
   69SLPC   H2S 5859   0.163   0.602  10.618  0.8555 -2.5849 -0.7328
   69SLPC    C3 5860   0.570   0.600  10.858  0.1763  0.2636 -0.3547
   69SLPC    HX 5861   0.506   0.530  10.917  0.9674  0.6130  0.9575
   69SLPC    HY 5862   0.639   0.647  10.931  0.9921 -0.1601 -0.8372
   69SLPC   O31 5863   0.650   0.542  10.760  0.0699  0.0097 -0.3061
   69SLPC   C31 5864   0.617   0.434  10.703 -0.2144  0.4103 -0.5293
   69SLPC   O32 5865   0.534   0.350  10.737 -0.3929 -0.2051 -0.0065
   69SLPC   C32 5866   0.722   0.414  10.588 -0.6497  0.1688 -0.7457
   69SLPC   H2X 5867   0.739   0.306  10.573  0.7853  0.2799 -0.0580
   69SLPC   H2Y 5868   0.819   0.464  10.608 -0.0554 -1.4150  0.5998
   69SLPC   C23 5869   0.139   0.761  10.474 -0.3599 -0.0995  0.0386
   69SLPC   H3R 5870   0.192   0.852  10.439  0.1250 -0.2081  0.4805
   69SLPC   H3S 5871   0.057   0.795  10.541 -1.6617 -0.0221 -1.5191
   69SLPC   C24 5872   0.066   0.695  10.354 -0.0763 -0.2603 -0.5435
   69SLPC   H4R 5873  -0.016   0.633  10.397 -0.5577 -0.3484 -1.5617
   69SLPC   H4S 5874   0.139   0.636  10.294  1.1489 -1.3370  1.8647
   69SLPC   C25 5875  -0.017   0.792  10.261 -0.7170  0.3700  0.1320
   69SLPC   H5R 5876  -0.074   0.865  10.322  0.7661 -0.0082  2.1167
   69SLPC   H5S 5877  -0.083   0.723  10.204  1.7884 -1.7129 -0.4655
   69SLPC   C26 5878   0.067   0.874  10.163 -0.7583  0.0037  0.6454
   69SLPC   H6R 5879   0.123   0.809  10.093 -0.3021  0.9726  0.1020
   69SLPC   H6S 5880   0.143   0.932  10.219  3.0170 -1.7273 -2.2412
   69SLPC   C27 5881  -0.014   0.963  10.067 -0.2169 -0.5764  0.2011
   69SLPC   H7R 5882  -0.064   1.047  10.120  0.4042  0.0169 -0.1245
   69SLPC   H7S 5883  -0.092   0.899  10.022  1.6921 -2.0403 -1.1865
   69SLPC   C28 5884   0.067   1.030   9.952 -0.2379  0.0093  0.6244
   69SLPC   H8R 5885   0.147   1.090   9.998  1.5208  0.4474 -2.7127
   69SLPC   H8S 5886  -0.017   1.074   9.894 -0.1473 -2.9045 -1.9628
   69SLPC   C29 5887   0.139   0.933   9.864 -0.3382  0.4080 -0.6896
   69SLPC   H9R 5888   0.189   0.853   9.921  1.6390  2.4784  0.6358
   69SLPC  C210 5889   0.162   0.933   9.732 -0.5998  0.1244 -0.1721
   69SLPC  H10R 5890   0.214   0.842   9.698  1.3475 -0.4808  3.8693
   69SLPC  C211 5891   0.118   1.043   9.637 -0.1508 -0.5109 -0.6233
   69SLPC  H11R 5892   0.202   1.047   9.565  0.1345 -1.2845 -0.3558
   69SLPC  H11S 5893   0.110   1.144   9.682 -0.4457  0.1801 -2.1747
   69SLPC  C212 5894  -0.006   1.005   9.567 -0.5446 -0.6255 -0.0949
   69SLPC  H12R 5895  -0.102   1.040   9.607 -0.9099 -0.7525 -0.8429
   69SLPC  C213 5896  -0.010   0.937   9.457 -0.2519 -0.0616  0.8307
   69SLPC  H13R 5897  -0.107   0.902   9.419 -1.1552  1.4994  1.5931
   69SLPC  C214 5898   0.104   0.885   9.362  0.6008 -0.1954  0.2700
   69SLPC  H14R 5899   0.120   0.777   9.380 -1.0886 -0.7916 -1.5203
   69SLPC  H14S 5900   0.202   0.937   9.371  0.7930 -0.1036 -1.8895
   69SLPC  C215 5901   0.053   0.889   9.218  0.1809 -0.9610  0.0721
   69SLPC  H15R 5902   0.014   0.992   9.201  0.5069 -1.1719 -2.1211
   69SLPC  H15S 5903  -0.039   0.827   9.210 -1.1723  1.0188 -0.4841
   69SLPC  C216 5904   0.156   0.848   9.117 -0.1035 -0.8325 -0.6025
   69SLPC  H16R 5905   0.102   0.859   9.021  0.0141  0.8219 -0.5104
   69SLPC  H16S 5906   0.176   0.740   9.131  1.5056 -0.5038 -0.1163
   69SLPC  C217 5907   0.286   0.933   9.126 -0.6715 -0.0790  0.5748
   69SLPC  H17R 5908   0.343   0.899   9.215 -1.3833 -0.1560  1.0133
   69SLPC  H17S 5909   0.254   1.039   9.142 -0.6068 -0.0321  0.3898
   69SLPC  C218 5910   0.378   0.915   9.002  0.9237  0.4447 -0.2132
   69SLPC  H18R 5911   0.397   0.807   8.991 -3.0089 -0.4987  0.7393
   69SLPC  H18S 5912   0.476   0.967   9.018  1.8890 -0.4896 -2.7059
   69SLPC  H18T 5913   0.339   0.950   8.904  2.6653  1.4049 -0.6084
   69SLPC   C33 5914   0.673   0.473  10.453  0.3310 -1.1106  0.0749
   69SLPC   H3X 5915   0.750   0.462  10.374  1.6061  1.9236  0.7366
   69SLPC   H3Y 5916   0.656   0.582  10.466  0.8879 -0.9896 -0.1681
   69SLPC   C34 5917   0.544   0.419  10.394  0.1226  0.0696 -0.1409
   69SLPC   H4X 5918   0.456   0.433  10.461  1.6750  1.8827  1.6475
   69SLPC   H4Y 5919   0.560   0.309  10.385  1.6982  0.3705 -1.4319
   69SLPC   C35 5920   0.507   0.468  10.255 -0.1073 -0.1393 -0.5733
   69SLPC   H5X 5921   0.414   0.420  10.219  0.2339 -0.2713 -1.3153
   69SLPC   H5Y 5922   0.590   0.442  10.186  2.7993  2.5013  1.6276
   69SLPC   C36 5923   0.482   0.620  10.236  0.4529  0.9023 -0.6022
   69SLPC   H6X 5924   0.581   0.665  10.260  1.8161 -1.4384 -1.4342
   69SLPC   H6Y 5925   0.401   0.663  10.299 -1.7920 -0.7745 -2.1929
   69SLPC   C37 5926   0.457   0.649  10.087  0.4713  0.1817  1.0848
   69SLPC   H7X 5927   0.351   0.621  10.068  1.0196 -1.1308 -0.2279
   69SLPC   H7Y 5928   0.500   0.570  10.022 -2.1180 -1.0326  0.7254
   69SLPC   C38 5929   0.489   0.784  10.034  0.3015 -0.3856  0.2764
   69SLPC   H8X 5930   0.568   0.832  10.095 -0.3641  1.2748 -0.1155
   69SLPC   H8Y 5931   0.407   0.858  10.047  0.9466  0.6102 -1.0721
   69SLPC   C39 5932   0.524   0.776   9.887  0.0234  0.0402  0.3689
   69SLPC   H9X 5933   0.438   0.726   9.838 -1.7633  1.6422  1.7155
   69SLPC   H9Y 5934   0.619   0.720   9.876  0.2799  0.7952 -1.6204
   69SLPC  C310 5935   0.527   0.915   9.816 -0.0232  0.4556 -0.7364
   69SLPC  H10X 5936   0.597   0.978   9.875 -0.3042 -0.7767  1.0019
   69SLPC  H10Y 5937   0.424   0.954   9.831 -1.1679 -1.7339 -2.2630
   69SLPC  C311 5938   0.555   0.890   9.669 -0.0073 -0.2313 -0.5165
   69SLPC  H11X 5939   0.496   0.806   9.627  0.0793 -1.4366  1.6420
   69SLPC  H11Y 5940   0.659   0.854   9.651 -0.0395 -0.8998  0.5262
   69SLPC  C312 5941   0.540   1.019   9.592  0.0733 -0.2445 -0.1847
   69SLPC  H12X 5942   0.615   1.086   9.640 -0.9530  0.7484  0.0703
   69SLPC  H12Y 5943   0.441   1.061   9.622 -0.1622 -1.3125  0.6206
   69SLPC  C313 5944   0.537   0.995   9.442 -0.3499 -0.2829 -0.5925
   69SLPC  H13X 5945   0.449   0.929   9.426 -1.6231  0.7619  1.6339
   69SLPC  H13Y 5946   0.629   0.939   9.416  1.0294  0.1245  2.9301
   69SLPC  C314 5947   0.533   1.117   9.351  0.1898  0.2643 -0.2067
   69SLPC  H14X 5948   0.542   1.079   9.246 -0.6355 -0.5636  0.0039
   69SLPC  H14Y 5949   0.610   1.192   9.378 -0.2981  1.1666 -1.2418
   69SLPC  C315 5950   0.404   1.198   9.353  0.3363 -0.1905 -0.3246
   69SLPC  H15X 5951   0.379   1.232   9.456 -0.9671 -1.2606 -0.2605
   69SLPC  H15Y 5952   0.326   1.124   9.326  1.5737 -2.1623  1.2467
   69SLPC  C316 5953   0.394   1.318   9.264  0.7584  0.5370  0.4146
   69SLPC  H16X 5954   0.383   1.290   9.157 -0.4661  2.1184  0.0873
   69SLPC  H16Y 5955   0.492   1.371   9.276  1.5031 -0.3565 -1.3343
   69SLPC  C317 5956   0.275   1.408   9.299 -0.3672 -0.0294 -0.2977
   69SLPC  H17X 5957   0.261   1.443   9.404 -1.6716  3.6595 -1.5229
   69SLPC  H17Y 5958   0.188   1.345   9.270  0.7224 -3.1661  2.5989
   69SLPC  C318 5959   0.268   1.534   9.217  0.3443  0.7066  0.0562
   69SLPC  H18X 5960   0.170   1.587   9.215  0.2763  0.5775 -0.1857
   69SLPC  H18Y 5961   0.296   1.516   9.111  3.4739 -0.8395  1.0253
   69SLPC  H18Z 5962   0.343   1.603   9.260  0.1394  1.3314 -0.5812
   70SLPC     N 5963   0.669   4.748  11.109 -0.3958 -0.3034 -0.7515
   70SLPC   C13 5964   0.588   4.856  11.176 -0.3153 -0.4388  0.3155
   70SLPC  H13A 5965   0.494   4.870  11.125 -1.2324 -2.4814  1.3521
   70SLPC  H13B 5966   0.555   4.815  11.270  0.3595 -2.8229 -0.4167
   70SLPC  H13C 5967   0.629   4.956  11.183  0.8486 -0.7958 -0.8938
   70SLPC   C14 5968   0.591   4.619  11.133 -0.1650  0.0115  1.1726
   70SLPC  H14A 5969   0.542   4.617  11.229 -1.5344 -1.8207  0.5057
   70SLPC  H14B 5970   0.525   4.598  11.050  3.3577  0.0644 -1.8822
   70SLPC  H14C 5971   0.654   4.532  11.124  0.7031  0.7359  0.0028
   70SLPC   C15 5972   0.805   4.742  11.173 -0.7086 -0.1577  1.0341
   70SLPC  H15A 5973   0.858   4.655  11.139  0.2414  1.6248 -2.5144
   70SLPC  H15B 5974   0.867   4.825  11.141 -0.2809 -0.2937  1.5028
   70SLPC  H15C 5975   0.802   4.746  11.280 -0.7540  1.6383  1.0039
   70SLPC   C12 5976   0.685   4.781  10.966 -1.1382 -0.7797 -0.2367
   70SLPC  H12A 5977   0.753   4.707  10.928  0.5654  1.2201 -1.2586
   70SLPC  H12B 5978   0.735   4.875  10.950 -0.6841 -1.1434 -0.9641
   70SLPC   C11 5979   0.560   4.792  10.872  0.8857  0.3938 -0.8170
   70SLPC  H11A 5980   0.591   4.853  10.785 -4.4062  2.1333 -1.8578
   70SLPC  H11B 5981   0.475   4.853  10.911  1.6507  0.3743  1.0218
   70SLPC     P 5982   0.585   4.567  10.741  0.5467 -0.2203  0.0029
   70SLPC   O13 5983   0.684   4.512  10.831 -0.5538  0.1163 -0.1417
   70SLPC   O14 5984   0.494   4.479  10.671  0.0361  0.6618 -0.1314
   70SLPC   O12 5985   0.503   4.674  10.825 -0.6238 -0.0836  0.7034
   70SLPC   O11 5986   0.664   4.650  10.631 -0.3496 -0.0572 -0.3670
   70SLPC    C1 5987   0.777   4.579  10.571 -0.1721  0.7273 -0.0830
   70SLPC    HA 5988   0.846   4.532  10.645  0.5132  1.4222 -0.2638
   70SLPC    HB 5989   0.746   4.499  10.501 -0.6805  1.9021 -1.2453
   70SLPC    C2 5990   0.854   4.677  10.475 -0.3924  0.1165  0.6314
   70SLPC    HS 5991   0.891   4.775  10.513  2.1539  0.1250 -1.5911
   70SLPC   O21 5992   0.760   4.714  10.366 -0.0458  0.7025  0.0020
   70SLPC   C21 5993   0.778   4.834  10.318  0.4851 -0.0716  0.2272
   70SLPC   O22 5994   0.861   4.920  10.351  0.6916  0.0932 -0.1208
   70SLPC   C22 5995   0.702   4.848  10.186 -1.0267 -0.1115  0.4616
   70SLPC   H2R 5996   0.629   4.765  10.192 -2.7178  1.2926 -0.0130
   70SLPC   H2S 5997   0.647   4.944  10.193  2.4434  1.9854  1.8475
   70SLPC    C3 5998   0.966   4.594  10.425 -0.3782 -0.2248  0.3758
   70SLPC    HX 5999   0.935   4.510  10.358  1.3153  0.3149 -1.1687
   70SLPC    HY 6000   1.031   4.536  10.494  2.0511  1.3435 -0.4555
   70SLPC   O31 6001   1.039   4.677  10.329  0.5110 -0.0225 -0.0402
   70SLPC   C31 6002   1.129   4.760  10.383  0.4094  0.2531  0.0916
   70SLPC   O32 6003   1.164   4.754  10.500 -0.2297 -0.6797  0.0532
   70SLPC   C32 6004   1.181   4.863  10.283  0.2934 -0.3451  0.1130
   70SLPC   H2X 6005   1.125   4.955  10.312 -0.4986 -1.2082  1.4559
   70SLPC   H2Y 6006   1.158   4.826  10.181  1.0124  1.5859 -0.8163
   70SLPC   C23 6007   0.799   4.843  10.057  0.1466 -0.2900 -0.6527
   70SLPC   H3R 6008   0.848   4.743  10.045  1.4801  0.6302 -3.9739
   70SLPC   H3S 6009   0.886   4.910  10.072 -0.6648  0.8319 -0.8828
   70SLPC   C24 6010   0.729   4.884   9.933  0.3481 -0.8930  0.4274
   70SLPC   H4R 6011   0.706   4.992   9.931 -1.1978 -1.2024 -1.6962
   70SLPC   H4S 6012   0.636   4.824   9.925 -0.1541 -0.0650 -0.0964
   70SLPC   C25 6013   0.808   4.855   9.814 -0.7169 -0.1451  1.3009
   70SLPC   H5R 6014   0.790   4.752   9.779 -1.8705  0.6426 -0.5336
   70SLPC   H5S 6015   0.910   4.868   9.859 -0.3034  2.2056 -0.1219
   70SLPC   C26 6016   0.816   4.968   9.707  0.5062  0.8245  0.1999
   70SLPC   H6R 6017   0.839   5.068   9.750 -0.2790  0.8001  0.6908
   70SLPC   H6S 6018   0.714   4.991   9.669  0.5476  1.0779  0.2371
   70SLPC   C27 6019   0.901   4.932   9.583  0.0225 -0.2436  0.3751
   70SLPC   H7R 6020   0.903   4.829   9.543  1.2329  0.1402 -0.6254
   70SLPC   H7S 6021   1.004   4.957   9.616  0.7680  0.2271 -2.0943
   70SLPC   C28 6022   0.865   5.032   9.470 -0.2749  0.1693 -0.0120
   70SLPC   H8R 6023   0.954   5.038   9.404  0.7173 -2.5045  0.9466
   70SLPC   H8S 6024   0.844   5.132   9.513 -0.0583  1.0226 -1.8195
   70SLPC   C29 6025   0.742   4.994   9.398 -0.6280  0.4195  0.4375
   70SLPC   H9R 6026   0.656   4.972   9.462 -1.2055 -0.2030 -0.5303
   70SLPC  C210 6027   0.724   4.967   9.261 -0.1942  0.3872  0.2628
   70SLPC  H10R 6028   0.620   4.965   9.226 -0.3323 -0.0409  0.6778
   70SLPC  C211 6029   0.831   4.971   9.154  0.4740  0.1835 -0.2687
   70SLPC  H11R 6030   0.932   4.995   9.192 -0.2600  0.1772  1.8129
   70SLPC  H11S 6031   0.802   5.048   9.080  0.1921  0.7641  0.4339
   70SLPC  C212 6032   0.837   4.841   9.078 -0.8314  0.2370  0.7181
   70SLPC  H12R 6033   0.781   4.761   9.127 -2.3024  1.4583  1.1189
   70SLPC  C213 6034   0.897   4.816   8.963 -0.3749  0.0509  0.0940
   70SLPC  H13R 6035   0.883   4.720   8.913  0.1470  0.4361 -0.8165
   70SLPC  C214 6036   0.974   4.916   8.878  0.1871  0.1351 -0.4229
   70SLPC  H14R 6037   0.967   5.015   8.928 -0.1851 -0.9108  1.7129
   70SLPC  H14S 6038   0.923   4.932   8.781 -1.6372  3.0923  0.8840
   70SLPC  C215 6039   1.120   4.884   8.855  0.4657  1.2308 -0.5055
   70SLPC  H15R 6040   1.133   4.774   8.849  1.5247  1.1322  2.2876
   70SLPC  H15S 6041   1.182   4.908   8.944 -0.1641 -1.5435  0.7930
   70SLPC  C216 6042   1.183   4.949   8.730 -0.2671 -0.3523  1.1145
   70SLPC  H16R 6043   1.294   4.942   8.735 -0.1975 -0.3789 -0.3152
   70SLPC  H16S 6044   1.159   5.056   8.715  0.3473 -0.2973  0.4777
   70SLPC  C217 6045   1.150   4.865   8.603  0.4442  0.3997 -0.7906
   70SLPC  H17R 6046   1.045   4.886   8.574 -0.3885 -2.1839  0.1038
   70SLPC  H17S 6047   1.155   4.756   8.626 -1.3810  0.2580 -0.9133
   70SLPC  C218 6048   1.240   4.902   8.486 -0.1680  0.2483 -0.7433
   70SLPC  H18R 6049   1.230   4.833   8.399 -1.4502 -2.2460  1.2479
   70SLPC  H18S 6050   1.345   4.907   8.520 -0.3948  1.5483 -0.1513
   70SLPC  H18T 6051   1.210   5.002   8.447  0.4233 -0.2369 -2.5339
   70SLPC   C33 6052   1.332   4.902  10.288  0.0031  0.3968  0.1911
   70SLPC   H3X 6053   1.391   4.829  10.230  3.3557  1.3490  2.1728
   70SLPC   H3Y 6054   1.381   4.911  10.387  0.1429 -1.0984  0.2725
   70SLPC   C34 6055   1.369   5.018  10.192  0.1280  0.0538 -0.3004
   70SLPC   H4X 6056   1.480   5.023  10.189  0.2422  0.1400  1.9039
   70SLPC   H4Y 6057   1.336   5.112  10.242  4.3294  1.1860  0.7402
   70SLPC   C35 6058   1.319   5.000  10.048 -0.0953  0.1801 -0.1030
   70SLPC   H5X 6059   1.209   4.990  10.058 -0.1490 -0.8522 -1.4003
   70SLPC   H5Y 6060   1.351   4.904  10.001 -0.9466  0.8212 -2.0738
   70SLPC   C36 6061   1.336   5.114   9.949  0.6971 -0.1991 -0.3725
   70SLPC   H6X 6062   1.445   5.136   9.945  1.3353 -3.1095 -2.9821
   70SLPC   H6Y 6063   1.282   5.208   9.973  0.3228 -0.6782  0.6802
   70SLPC   C37 6064   1.295   5.073   9.809 -0.3289 -0.5747  0.5931
   70SLPC   H7X 6065   1.184   5.076   9.799 -0.1192 -0.1012 -3.6021
   70SLPC   H7Y 6066   1.321   4.967   9.787 -3.3758 -1.7652  2.0447
   70SLPC   C38 6067   1.370   5.156   9.696  0.1365 -0.4943 -0.4607
   70SLPC   H8X 6068   1.468   5.106   9.681  0.7964  0.1662  1.2937
   70SLPC   H8Y 6069   1.388   5.264   9.719 -0.1550 -0.3680 -0.8130
   70SLPC   C39 6070   1.288   5.156   9.561 -0.0436 -0.0250 -0.0472
   70SLPC   H9X 6071   1.216   5.241   9.559 -0.7181 -0.5137  1.7566
   70SLPC   H9Y 6072   1.233   5.061   9.549  0.4217 -0.4015  0.7428
   70SLPC  C310 6073   1.388   5.181   9.441 -0.5341 -1.1871  0.0535
   70SLPC  H10X 6074   1.470   5.108   9.462  0.8074  0.4310  0.6967
   70SLPC  H10Y 6075   1.422   5.286   9.447 -2.4096 -0.5590  0.4255
   70SLPC  C311 6076   1.334   5.149   9.299  0.4158  0.4454 -0.6363
   70SLPC  H11X 6077   1.240   5.208   9.296  0.2249  0.1251 -1.0389
   70SLPC  H11Y 6078   1.302   5.042   9.294  2.7021 -0.3774  0.5082
   70SLPC  C312 6079   1.412   5.202   9.181 -0.4051  0.2029  0.2466
   70SLPC  H12X 6080   1.499   5.133   9.176  0.6180  1.3909  0.9147
   70SLPC  H12Y 6081   1.441   5.303   9.218  0.5151 -0.1094  0.4029
   70SLPC  C313 6082   1.328   5.208   9.059 -0.1165  0.1721 -0.1407
   70SLPC  H13X 6083   1.221   5.231   9.074 -0.2714 -0.4101 -0.3532
   70SLPC  H13Y 6084   1.331   5.110   9.007  1.8254 -0.1610  0.5054
   70SLPC  C314 6085   1.377   5.320   8.965 -0.0715 -0.5060  0.4015
   70SLPC  H14X 6086   1.484   5.330   8.991 -0.1618  2.1783  0.0202
   70SLPC  H14Y 6087   1.329   5.420   8.974 -0.1027 -0.5353  0.5516
   70SLPC  C315 6088   1.373   5.280   8.820  0.1677 -0.1456 -0.6630
   70SLPC  H15X 6089   1.271   5.249   8.791  0.0690 -0.3897 -0.0740
   70SLPC  H15Y 6090   1.428   5.184   8.810 -1.6446 -1.6193  2.1630
   70SLPC  C316 6091   1.422   5.385   8.718 -0.5280  0.2569 -0.0701
   70SLPC  H16X 6092   1.527   5.413   8.741 -0.9968  2.0959 -0.0105
   70SLPC  H16Y 6093   1.364   5.479   8.733 -1.5423 -0.2097 -0.9326
   70SLPC  C317 6094   1.408   5.333   8.568  0.0496  0.3748  1.1435
   70SLPC  H17X 6095   1.475   5.247   8.546  1.4119  1.5288  0.6319
   70SLPC  H17Y 6096   1.459   5.401   8.496 -1.4661 -2.5903 -3.1470
   70SLPC  C318 6097   1.265   5.290   8.527 -0.8837  0.0993 -0.5164
   70SLPC  H18X 6098   1.185   5.353   8.574 -0.0447  1.2871 -0.6310
   70SLPC  H18Y 6099   1.253   5.182   8.548  1.3210 -0.2816 -0.9890
   70SLPC  H18Z 6100   1.256   5.303   8.417  0.7001 -0.2161 -0.6936
   71SLPC     N 6101   5.935   4.095  10.849 -0.1955 -0.0446  0.1721
   71SLPC   C13 6102   6.024   4.132  10.736 -0.2079 -0.0274 -0.0786
   71SLPC  H13A 6103   5.974   4.177  10.652 -0.0189 -0.9169 -0.6945
   71SLPC  H13B 6104   6.110   4.189  10.768  0.8428 -2.4488  1.7619
   71SLPC  H13C 6105   6.075   4.043  10.701  1.2635  0.3583  0.9743
   71SLPC   C14 6106   5.852   4.207  10.884 -0.4543  0.5436  0.5722
   71SLPC  H14A 6107   5.911   4.285  10.930  0.3799 -1.0624  2.3525
   71SLPC  H14B 6108   5.796   4.237  10.797  0.0207  0.8859  0.3835
   71SLPC  H14C 6109   5.772   4.174  10.948 -1.7745 -0.6932 -1.6031
   71SLPC   C15 6110   6.017   4.039  10.965 -0.0056 -0.1797  0.8948
   71SLPC  H15A 6111   5.957   4.006  11.049 -1.0443  1.2417  0.7598
   71SLPC  H15B 6112   6.076   3.958  10.924  0.6739  1.4654 -1.6212
   71SLPC  H15C 6113   6.087   4.115  10.997  3.9249 -3.9418  2.2130
   71SLPC   C12 6114   5.854   3.984  10.788 -0.2001 -0.5276  0.4655
   71SLPC  H12A 6115   5.913   3.902  10.751  0.2729 -0.5285  1.2132
   71SLPC  H12B 6116   5.805   4.025  10.700 -0.3495 -0.6025  0.5138
   71SLPC   C11 6117   5.750   3.909  10.879 -1.2719 -0.3758 -0.2610
   71SLPC  H11A 6118   5.800   3.891  10.976  1.4293  0.5040 -1.3971
   71SLPC  H11B 6119   5.731   3.810  10.832  0.3570  0.3076 -2.5590
   71SLPC     P 6120   5.515   4.005  10.770  0.3191  0.2890 -0.7528
   71SLPC   O13 6121   5.394   3.930  10.799  0.0462 -0.1151  0.4010
   71SLPC   O14 6122   5.508   4.148  10.745  0.9605 -0.3587  0.1818
   71SLPC   O12 6123   5.625   3.981  10.891 -0.3570 -0.8381 -0.1555
   71SLPC   O11 6124   5.582   3.949  10.639 -0.4394 -0.4719  0.1679
   71SLPC    C1 6125   5.587   3.811  10.605 -0.5996  0.5482  0.8286
   71SLPC    HA 6126   5.689   3.779  10.575 -0.8601  1.0246 -0.6496
   71SLPC    HB 6127   5.557   3.743  10.687  0.9347 -0.6196  0.4702
   71SLPC    C2 6128   5.499   3.769  10.478  0.4547  0.2475  0.0256
   71SLPC    HS 6129   5.550   3.680  10.436  2.3913  1.3148  0.0027
   71SLPC   O21 6130   5.500   3.875  10.377  0.2144  0.0718 -0.1705
   71SLPC   C21 6131   5.611   3.889  10.308 -0.0420 -0.3457  0.1415
   71SLPC   O22 6132   5.702   3.814  10.311 -0.1907  0.0975  0.1558
   71SLPC   C22 6133   5.596   4.008  10.205  0.1373 -0.0236 -0.3879
   71SLPC   H2R 6134   5.486   4.018  10.189  0.1461 -1.0854 -1.1691
   71SLPC   H2S 6135   5.639   4.095  10.259 -0.8537  0.9823 -1.1756
   71SLPC    C3 6136   5.351   3.733  10.516 -1.0315  0.2341  0.0347
   71SLPC    HX 6137   5.309   3.821  10.569  1.7564  0.0933  2.7520
   71SLPC    HY 6138   5.365   3.647  10.586 -0.2087 -0.3961 -0.8844
   71SLPC   O31 6139   5.274   3.700  10.404 -0.1245 -0.2906  0.0184
   71SLPC   C31 6140   5.213   3.789  10.336  1.1453 -0.3342  0.4272
   71SLPC   O32 6141   5.193   3.908  10.359 -0.2430 -0.5348 -0.2958
   71SLPC   C32 6142   5.152   3.722  10.204 -0.0267 -0.0657 -0.3041
   71SLPC   H2X 6143   5.057   3.675  10.238 -0.8995 -0.0525 -2.5879
   71SLPC   H2Y 6144   5.216   3.637  10.173  0.2595  0.7938 -2.2022
   71SLPC   C23 6145   5.691   3.981  10.086  0.4626  0.0868  0.6616
   71SLPC   H3R 6146   5.669   3.874  10.063 -3.5777  1.0300 -0.6913
   71SLPC   H3S 6147   5.797   3.990  10.117  0.0874  1.0856  1.6901
   71SLPC   C24 6148   5.656   4.079   9.970 -0.4283 -0.6031  0.9122
   71SLPC   H4R 6149   5.686   4.184   9.992  1.5397 -0.8051 -0.5376
   71SLPC   H4S 6150   5.546   4.085   9.962 -0.3109  1.3510  0.1231
   71SLPC   C25 6151   5.713   4.033   9.839  0.2413 -1.0786  0.0646
   71SLPC   H5R 6152   5.686   3.927   9.819 -0.4874 -0.2226 -4.6784
   71SLPC   H5S 6153   5.823   4.051   9.839  0.2104 -0.6908 -2.0718
   71SLPC   C26 6154   5.669   4.111   9.711  0.1421 -0.3403  0.2175
   71SLPC   H6R 6155   5.674   4.221   9.727  1.3357 -0.4718  0.8691
   71SLPC   H6S 6156   5.565   4.074   9.702  0.2791 -0.3739 -1.5308
   71SLPC   C27 6157   5.761   4.080   9.587  0.2801 -0.3592  0.1151
   71SLPC   H7R 6158   5.756   3.973   9.558  0.7735  0.0683 -1.6506
   71SLPC   H7S 6159   5.870   4.097   9.601  0.5015 -0.0787 -1.7749
   71SLPC   C28 6160   5.735   4.163   9.450  0.4194 -0.0059 -0.6546
   71SLPC   H8R 6161   5.787   4.118   9.363 -2.0682  1.3809 -3.0305
   71SLPC   H8S 6162   5.774   4.265   9.467  1.6762 -0.8626  2.3163
   71SLPC   C29 6163   5.588   4.190   9.407  0.0423 -0.0321 -0.0657
   71SLPC   H9R 6164   5.524   4.205   9.495 -0.6546  2.3042 -0.9016
   71SLPC  C210 6165   5.545   4.184   9.275  0.1355 -0.0814 -0.7913
   71SLPC  H10R 6166   5.437   4.191   9.255  0.4829 -0.1510 -2.9157
   71SLPC  C211 6167   5.625   4.158   9.149  0.5367  0.2965  1.3438
   71SLPC  H11R 6168   5.733   4.131   9.151  0.5676 -0.4426 -2.6378
   71SLPC  H11S 6169   5.600   4.237   9.074  0.2628 -0.7685  0.2902
   71SLPC  C212 6170   5.562   4.033   9.094  0.1586 -0.1756  0.0843
   71SLPC  H12R 6171   5.597   3.952   9.160 -0.5170 -0.7208 -0.2203
   71SLPC  C213 6172   5.494   4.012   8.986 -0.3073 -0.2502  0.7114
   71SLPC  H13R 6173   5.455   3.910   8.974  0.3392 -0.6619  1.9262
   71SLPC  C214 6174   5.441   4.120   8.891 -0.1333 -0.7894  0.3137
   71SLPC  H14R 6175   5.467   4.224   8.920  1.7449 -0.7108 -1.4683
   71SLPC  H14S 6176   5.330   4.113   8.894 -0.4203  2.5204  2.7623
   71SLPC  C215 6177   5.496   4.098   8.750 -0.9720 -0.1742  0.3279
   71SLPC  H15R 6178   5.603   4.129   8.750 -0.3710 -2.1371  0.1502
   71SLPC  H15S 6179   5.437   4.166   8.685 -0.7665 -0.3793 -0.0740
   71SLPC  C216 6180   5.475   3.966   8.691  0.2974  1.1315  0.0920
   71SLPC  H16R 6181   5.374   3.925   8.711 -0.2050  1.8244 -0.9139
   71SLPC  H16S 6182   5.537   3.902   8.756 -0.8685  0.4866  0.5996
   71SLPC  C217 6183   5.509   3.951   8.545  0.4066 -0.5650 -0.4866
   71SLPC  H17R 6184   5.436   4.005   8.481 -0.5118 -0.3497  0.7048
   71SLPC  H17S 6185   5.499   3.841   8.526 -2.9197 -0.8597  2.0906
   71SLPC  C218 6186   5.654   4.002   8.513 -0.0199 -0.9135  0.1337
   71SLPC  H18R 6187   5.719   3.982   8.601 -0.4332  0.5103  0.7917
   71SLPC  H18S 6188   5.659   4.113   8.505  1.5103 -0.7920  2.1147
   71SLPC  H18T 6189   5.688   3.962   8.415  1.3454  0.2738  0.0905
   71SLPC   C33 6190   5.124   3.826  10.093  0.3564 -0.4361 -0.7385
   71SLPC   H3X 6191   5.057   3.908  10.126  1.4948  0.8347 -1.4593
   71SLPC   H3Y 6192   5.073   3.767  10.014 -3.5564 -0.4503  1.5371
   71SLPC   C34 6193   5.242   3.905  10.041  0.5738 -0.1865 -0.9325
   71SLPC   H4X 6194   5.325   3.832  10.038 -1.3775 -2.5381 -0.9057
   71SLPC   H4Y 6195   5.277   3.978  10.116  1.4831 -0.5627 -0.9784
   71SLPC   C35 6196   5.222   3.972   9.900 -0.1800  0.2694 -0.2024
   71SLPC   H5X 6197   5.311   4.037   9.885  1.3959 -1.5347  0.8049
   71SLPC   H5Y 6198   5.134   4.039   9.910 -0.0133  0.4224  0.3045
   71SLPC   C36 6199   5.213   3.886   9.779 -0.0191 -0.1025 -0.0566
   71SLPC   H6X 6200   5.116   3.831   9.771  0.8414 -1.3537 -3.6698
   71SLPC   H6Y 6201   5.287   3.805   9.798  0.8871  1.1846  2.3143
   71SLPC   C37 6202   5.252   3.947   9.650 -0.3929 -0.2176  0.1967
   71SLPC   H7X 6203   5.363   3.955   9.649 -0.2615 -0.6379  3.4164
   71SLPC   H7Y 6204   5.222   4.053   9.633  2.8646  0.8065  0.2207
   71SLPC   C38 6205   5.206   3.862   9.527  0.0792 -0.2508 -0.2130
   71SLPC   H8X 6206   5.097   3.879   9.521 -0.1474 -1.2953  0.5244
   71SLPC   H8Y 6207   5.230   3.757   9.557  3.6309 -0.0953 -1.9440
   71SLPC   C39 6208   5.275   3.882   9.390  0.0913  0.1671  0.3410
   71SLPC   H9X 6209   5.381   3.856   9.407 -0.8972 -2.4549  3.5089
   71SLPC   H9Y 6210   5.265   3.986   9.354  0.0793 -0.5780 -1.9387
   71SLPC  C310 6211   5.199   3.810   9.279 -0.3838  0.6213 -0.0940
   71SLPC  H10X 6212   5.103   3.862   9.257  0.3257  1.9965 -0.0318
   71SLPC  H10Y 6213   5.179   3.707   9.317  2.5328  0.3832  1.0446
   71SLPC  C311 6214   5.268   3.794   9.147 -0.1153  0.7598 -0.1485
   71SLPC  H11X 6215   5.364   3.742   9.168  0.1627  1.2925 -0.0866
   71SLPC  H11Y 6216   5.288   3.894   9.104  2.0030  0.5926  0.3338
   71SLPC  C312 6217   5.194   3.710   9.046  0.8917 -0.5685  0.2600
   71SLPC  H12X 6218   5.095   3.756   9.029  1.3858  0.6478  0.5448
   71SLPC  H12Y 6219   5.182   3.603   9.074  2.3587 -0.4446  1.5244
   71SLPC  C313 6220   5.257   3.707   8.907 -1.4821 -0.0220  0.6717
   71SLPC  H13X 6221   5.365   3.687   8.922 -1.1657  1.1105 -0.0082
   71SLPC  H13Y 6222   5.246   3.811   8.868 -1.2142  0.3450  1.5330
   71SLPC  C314 6223   5.189   3.597   8.821 -0.1913  0.1899 -0.1337
   71SLPC  H14X 6224   5.085   3.631   8.806 -0.4575 -0.1165  0.9595
   71SLPC  H14Y 6225   5.185   3.496   8.866 -3.4389 -0.9929 -2.6650
   71SLPC  C315 6226   5.259   3.574   8.688  0.8637 -0.6974  0.4316
   71SLPC  H15X 6227   5.357   3.533   8.720  1.4283  0.8816  0.8290
   71SLPC  H15Y 6228   5.262   3.672   8.636  0.0367 -0.2479  1.1970
   71SLPC  C316 6229   5.178   3.476   8.606  0.2947  0.8680  0.0600
   71SLPC  H16X 6230   5.085   3.528   8.574  0.1150 -0.0523 -0.9841
   71SLPC  H16Y 6231   5.143   3.390   8.668 -0.9245  2.4081  1.6465
   71SLPC  C317 6232   5.244   3.432   8.475 -0.4144 -0.1296 -0.0082
   71SLPC  H17X 6233   5.292   3.521   8.428 -0.2650 -0.5304 -0.6280
   71SLPC  H17Y 6234   5.167   3.395   8.404 -0.3479 -1.0874  0.4121
   71SLPC  C318 6235   5.339   3.315   8.494  0.1545  0.5502  0.1396
   71SLPC  H18X 6236   5.397   3.291   8.403  0.0307  0.3888  0.1006
   71SLPC  H18Y 6237   5.280   3.230   8.537 -0.6928  1.2632  0.4187
   71SLPC  H18Z 6238   5.410   3.339   8.575 -0.3709  0.9271  0.4959
   72SLPC     N 6239   0.057   2.782  10.647 -0.1849  0.3369  0.1971
   72SLPC   C13 6240   0.025   2.775  10.497 -0.8704  0.2565 -0.0482
   72SLPC  H13A 6241   0.074   2.692  10.448  0.9680  1.0599  0.3213
   72SLPC  H13B 6242  -0.080   2.777  10.475 -0.6922 -2.7251 -1.7408
   72SLPC  H13C 6243   0.057   2.867  10.450 -0.4291  0.0481 -0.1674
   72SLPC   C14 6244  -0.017   2.672  10.711  0.2364 -0.0009 -0.2525
   72SLPC  H14A 6245   0.047   2.635  10.790 -0.4272  0.8768  0.7252
   72SLPC  H14B 6246  -0.108   2.700  10.762  1.1000 -0.5390  1.7030
   72SLPC  H14C 6247  -0.044   2.590  10.647 -1.9521 -0.5870  1.3261
   72SLPC   C15 6248   0.022   2.914  10.695 -0.6413 -0.2709 -1.2409
   72SLPC  H15A 6249   0.097   2.982  10.655 -1.2092 -0.0443 -1.9367
   72SLPC  H15B 6250  -0.076   2.949  10.664 -0.3617  1.4162 -0.3521
   72SLPC  H15C 6251   0.025   2.912  10.803  1.1369  0.1210 -1.2542
   72SLPC   C12 6252   0.208   2.764  10.651  0.6632  0.1790  1.2288
   72SLPC  H12A 6253   0.247   2.841  10.586  1.5893 -0.1045  1.4337
   72SLPC  H12B 6254   0.233   2.676  10.594  0.4928  0.7011  0.3333
   72SLPC   C11 6255   0.275   2.765  10.794  0.4474 -0.4122 -0.1446
   72SLPC  H11A 6256   0.266   2.862  10.847 -0.0054 -0.9979  0.8955
   72SLPC  H11B 6257   0.386   2.755  10.783  0.6587 -0.1423  1.4570
   72SLPC     P 6258   0.265   2.511  10.860  0.2094  0.0148 -0.2455
   72SLPC   O13 6259   0.389   2.504  10.943 -0.2220 -0.2925 -0.0728
   72SLPC   O14 6260   0.148   2.424  10.899  0.4251  0.0055 -0.3660
   72SLPC   O12 6261   0.221   2.670  10.873  0.2601 -0.3767  0.1238
   72SLPC   O11 6262   0.300   2.492  10.705 -0.2625 -0.1929  0.4619
   72SLPC    C1 6263   0.319   2.371  10.644 -0.0440  0.0001  0.5436
   72SLPC    HA 6264   0.423   2.338  10.665  0.9138  2.2231 -0.4256
   72SLPC    HB 6265   0.252   2.294  10.687  1.4966 -2.1962 -0.7787
   72SLPC    C2 6266   0.318   2.380  10.486 -0.3085 -0.3061 -0.3692
   72SLPC    HS 6267   0.370   2.288  10.450  3.1692  0.9229  1.1175
   72SLPC   O21 6268   0.383   2.499  10.443  0.0138  0.1694  0.2346
   72SLPC   C21 6269   0.510   2.500  10.474 -0.0533  0.0188  0.6591
   72SLPC   O22 6270   0.582   2.405  10.490 -0.5776 -0.3038 -0.4411
   72SLPC   C22 6271   0.554   2.650  10.490 -0.3245  0.8405 -0.2483
   72SLPC   H2R 6272   0.532   2.676  10.596 -1.9245 -0.4359 -0.2291
   72SLPC   H2S 6273   0.665   2.651  10.495 -0.2370  1.7890 -1.7629
   72SLPC    C3 6274   0.173   2.383  10.429 -0.1550 -0.6078  0.4122
   72SLPC    HX 6275   0.117   2.469  10.471  0.8541  0.5814 -0.5901
   72SLPC    HY 6276   0.138   2.282  10.460  0.4835 -0.5302  1.4474
   72SLPC   O31 6277   0.178   2.374  10.283 -0.1815 -0.0812 -0.7390
   72SLPC   C31 6278   0.159   2.485  10.219  0.2983  0.7320 -0.3537
   72SLPC   O32 6279   0.129   2.591  10.265  0.4250  0.2384 -0.4483
   72SLPC   C32 6280   0.176   2.456  10.072  0.3926  0.4024  0.0163
   72SLPC   H2X 6281   0.133   2.355  10.053 -0.2657  0.7881 -0.5949
   72SLPC   H2Y 6282   0.287   2.450  10.065  0.5944  0.6473  2.2196
   72SLPC   C23 6283   0.499   2.751  10.389 -0.6074 -0.2025 -1.0274
   72SLPC   H3R 6284   0.529   2.851  10.426 -0.0105 -0.7776  0.0820
   72SLPC   H3S 6285   0.388   2.738  10.392 -0.5627 -0.5032  2.3349
   72SLPC   C24 6286   0.552   2.735  10.251 -0.2349 -0.7752  0.1246
   72SLPC   H4R 6287   0.541   2.627  10.224  0.5652 -0.9187  0.3354
   72SLPC   H4S 6288   0.663   2.738  10.251 -0.2354 -0.7242 -0.0012
   72SLPC   C25 6289   0.496   2.831  10.145 -0.5904 -0.6403  0.1114
   72SLPC   H5R 6290   0.510   2.941  10.147  2.5627 -0.9596  1.0702
   72SLPC   H5S 6291   0.388   2.824  10.171 -0.0319  0.4992  3.2176
   72SLPC   C26 6292   0.539   2.798   9.998 -0.4196 -0.2361 -0.4834
   72SLPC   H6R 6293   0.576   2.693  10.002  2.9879  0.8753  1.4636
   72SLPC   H6S 6294   0.633   2.851   9.973 -1.3088  2.1787  0.9743
   72SLPC   C27 6295   0.439   2.832   9.892  0.2988  0.0778  0.7001
   72SLPC   H7R 6296   0.342   2.781   9.912  0.2334  0.8615  2.6462
   72SLPC   H7S 6297   0.476   2.790   9.796 -0.4193  1.7289 -0.3555
   72SLPC   C28 6298   0.412   2.977   9.864  0.2444  0.4109  0.3343
   72SLPC   H8R 6299   0.509   3.022   9.835 -0.1000  0.1675 -1.2884
   72SLPC   H8S 6300   0.369   3.032   9.951 -2.5019  2.1394 -1.9041
   72SLPC   C29 6301   0.307   3.003   9.754  0.7140  0.3404 -0.2254
   72SLPC   H9R 6302   0.205   3.007   9.796  1.4697  0.9047  1.6427
   72SLPC  C210 6303   0.328   3.028   9.622  0.6172  0.1186 -0.4584
   72SLPC  H10R 6304   0.237   3.061   9.570  0.2818 -0.8962 -0.5364
   72SLPC  C211 6305   0.457   3.025   9.541  0.4598  0.3389 -1.0757
   72SLPC  H11R 6306   0.544   3.027   9.610 -0.5194  0.4211  0.2118
   72SLPC  H11S 6307   0.464   3.118   9.481  0.5729  0.4947 -0.8232
   72SLPC  C212 6308   0.469   2.899   9.464 -0.4325 -0.6289 -0.2856
   72SLPC  H12R 6309   0.488   2.807   9.521 -1.5997 -0.1347  0.9632
   72SLPC  C213 6310   0.428   2.891   9.333  0.0214  0.4559  0.6531
   72SLPC  H13R 6311   0.444   2.801   9.272 -1.5683 -0.3835  1.4037
   72SLPC  C214 6312   0.360   2.995   9.251  0.7434 -0.6849  0.2656
   72SLPC  H14R 6313   0.333   3.080   9.318  0.2897  0.1666 -0.9462
   72SLPC  H14S 6314   0.262   2.953   9.221 -0.9420  2.9395  0.1507
   72SLPC  C215 6315   0.433   3.048   9.128  0.6805  0.9841  0.2852
   72SLPC  H15R 6316   0.533   3.086   9.160  1.8119 -1.9079  0.4612
   72SLPC  H15S 6317   0.372   3.135   9.095 -0.9944 -0.0028  0.6685
   72SLPC  C216 6318   0.448   2.956   9.011 -0.5920 -0.0084 -0.8205
   72SLPC  H16R 6319   0.347   2.928   8.974 -0.7227  1.6227 -1.8364
   72SLPC  H16S 6320   0.506   2.869   9.049  1.2844  1.7629  0.5782
   72SLPC  C217 6321   0.524   3.031   8.894  0.3006  0.1277  0.0503
   72SLPC  H17R 6322   0.608   3.093   8.933  0.1847 -0.6332  1.5981
   72SLPC  H17S 6323   0.451   3.103   8.854  0.1466 -0.8590 -1.5266
   72SLPC  C218 6324   0.568   2.929   8.786  0.2054  1.0694 -0.2697
   72SLPC  H18R 6325   0.573   2.984   8.689  1.8645  0.1491 -0.7585
   72SLPC  H18S 6326   0.501   2.843   8.769  3.2166 -2.2885  2.9409
   72SLPC  H18T 6327   0.670   2.889   8.806 -0.5626 -1.1873 -0.6199
   72SLPC   C33 6328   0.120   2.575   9.985 -0.3304  0.1461  0.2378
   72SLPC   H3X 6329   0.142   2.677  10.023 -1.3987  0.6683 -0.4969
   72SLPC   H3Y 6330   0.009   2.573   9.980 -0.3001  0.7987 -1.2264
   72SLPC   C34 6331   0.166   2.562   9.843  0.2875 -0.4616  0.2161
   72SLPC   H4X 6332   0.141   2.466   9.794 -1.8781  0.4166 -0.4967
   72SLPC   H4Y 6333   0.277   2.568   9.830  0.0808  0.5773 -1.3385
   72SLPC   C35 6334   0.119   2.685   9.759  0.5472  0.0074 -0.1736
   72SLPC   H5X 6335   0.144   2.782   9.807  1.0378  1.5848 -3.3372
   72SLPC   H5Y 6336   0.011   2.664   9.741  0.9719 -1.6058 -1.0483
   72SLPC   C36 6337   0.183   2.698   9.625 -0.1422 -0.2108  0.4568
   72SLPC   H6X 6338   0.292   2.716   9.635 -0.1446  0.5889 -0.7869
   72SLPC   H6Y 6339   0.135   2.778   9.565 -1.7212 -2.2305 -1.1148
   72SLPC   C37 6340   0.172   2.574   9.528 -0.0875 -0.6335  1.1104
   72SLPC   H7X 6341   0.062   2.575   9.514 -0.2603 -2.5037  2.0788
   72SLPC   H7Y 6342   0.200   2.474   9.567  2.0982 -0.6416 -0.3010
   72SLPC   C38 6343   0.242   2.601   9.394  0.8359 -0.1479  0.3986
   72SLPC   H8X 6344   0.348   2.577   9.418  0.6962 -0.5536  0.6148
   72SLPC   H8Y 6345   0.230   2.708   9.367 -3.3953 -0.2195  1.2923
   72SLPC   C39 6346   0.188   2.515   9.277  0.6872 -0.4950 -0.1247
   72SLPC   H9X 6347   0.080   2.537   9.264  0.2782 -1.6204  1.1299
   72SLPC   H9Y 6348   0.196   2.408   9.306 -1.7495 -0.6267  0.2808
   72SLPC  C310 6349   0.267   2.521   9.142 -0.0310 -0.5748 -0.2855
   72SLPC  H10X 6350   0.276   2.424   9.090  1.6362  0.1596 -1.4726
   72SLPC  H10Y 6351   0.367   2.547   9.181 -0.6965 -0.3368  1.3753
   72SLPC  C311 6352   0.209   2.624   9.040 -0.4097  0.2720 -0.6278
   72SLPC  H11X 6353   0.273   2.711   9.063  1.1379 -1.2832  1.4412
   72SLPC  H11Y 6354   0.103   2.650   9.062 -0.6090 -1.1656  0.2827
   72SLPC  C312 6355   0.233   2.593   8.892  0.5676  0.5373  1.0516
   72SLPC  H12X 6356   0.188   2.495   8.870 -1.2557  1.5126  0.2508
   72SLPC  H12Y 6357   0.343   2.595   8.874  0.6047  0.2786  1.2422
   72SLPC  C313 6358   0.158   2.692   8.800  0.5875 -0.3826 -0.5766
   72SLPC  H13X 6359   0.176   2.792   8.846  1.0460 -1.3198  1.4128
   72SLPC  H13Y 6360   0.048   2.675   8.805 -0.4356  4.4442 -1.2635
   72SLPC  C314 6361   0.196   2.687   8.654  0.6224 -0.3660  0.5899
   72SLPC  H14X 6362   0.149   2.599   8.605  3.1444 -2.8719  2.3238
   72SLPC  H14Y 6363   0.306   2.672   8.665  1.0188  0.6792 -1.4557
   72SLPC  C315 6364   0.154   2.819   8.594 -0.0988  0.1792 -1.3414
   72SLPC  H15X 6365   0.205   2.895   8.658 -1.5242 -0.9922  1.3389
   72SLPC  H15Y 6366   0.046   2.845   8.595 -0.0887  0.3644 -2.8774
   72SLPC  C316 6367   0.179   2.827   8.444 -0.5467 -0.3740  0.1205
   72SLPC  H16X 6368   0.109   2.750   8.404 -0.4490 -0.6492  0.4843
   72SLPC  H16Y 6369   0.284   2.812   8.413 -0.9453  1.2470 -2.3602
   72SLPC  C317 6370   0.141   2.969   8.385  0.1976 -0.4105  0.0990
   72SLPC  H17X 6371   0.055   3.002   8.448  0.0325 -2.1149  0.8125
   72SLPC  H17Y 6372   0.123   2.964   8.276  0.3049 -1.0379  0.1084
   72SLPC  C318 6373   0.261   3.071   8.407  0.4679  0.9778  0.4781
   72SLPC  H18X 6374   0.264   3.093   8.516  2.6277 -1.0468  0.9200
   72SLPC  H18Y 6375   0.235   3.162   8.349 -0.6778  1.3683  1.5656
   72SLPC  H18Z 6376   0.359   3.029   8.377 -0.7259 -0.6769 -1.3752
   73SLPC     N 6377   1.436   2.794  11.195 -0.0272 -0.6786 -0.4373
   73SLPC   C13 6378   1.581   2.777  11.165  0.1457 -0.9303  0.4592
   73SLPC  H13A 6379   1.628   2.745  11.257 -0.3115 -0.7344  0.7613
   73SLPC  H13B 6380   1.599   2.709  11.083 -0.1649 -0.2983 -0.1449
   73SLPC  H13C 6381   1.614   2.878  11.148  1.4008 -1.2259  1.0357
   73SLPC   C14 6382   1.414   2.897  11.302  0.0675 -0.4081  0.5573
   73SLPC  H14A 6383   1.472   2.887  11.392  0.8487  4.2125  0.7972
   73SLPC  H14B 6384   1.442   2.997  11.272 -1.0909 -0.1707  0.1858
   73SLPC  H14C 6385   1.308   2.906  11.320 -0.1225 -1.1321 -0.1546
   73SLPC   C15 6386   1.374   2.665  11.247  0.7688  0.2967  0.5047
   73SLPC  H15A 6387   1.268   2.662  11.268  0.6631 -0.4885 -0.0640
   73SLPC  H15B 6388   1.379   2.606  11.157  0.3712  2.2740 -0.8702
   73SLPC  H15C 6389   1.434   2.615  11.321  1.6746 -3.3163 -2.3487
   73SLPC   C12 6390   1.372   2.848  11.074 -0.0350 -0.4156  0.2695
   73SLPC  H12A 6391   1.418   2.942  11.044 -0.8897 -0.6309 -1.8750
   73SLPC  H12B 6392   1.274   2.880  11.106  0.0860 -2.1630  2.6357
   73SLPC   C11 6393   1.371   2.758  10.941  0.1373 -0.1034 -0.0651
   73SLPC  H11A 6394   1.319   2.665  10.970 -0.1680 -0.4497 -1.6587
   73SLPC  H11B 6395   1.475   2.744  10.904  0.5216  1.2667  0.4170
   73SLPC     P 6396   1.341   2.940  10.754 -0.2307  0.3728 -0.3333
   73SLPC   O13 6397   1.237   3.044  10.744 -0.0679  0.3354  0.0940
   73SLPC   O14 6398   1.472   2.978  10.810 -0.6864 -0.0686 -0.6350
   73SLPC   O12 6399   1.286   2.823  10.847  0.4976 -0.4837 -0.0087
   73SLPC   O11 6400   1.366   2.873  10.614 -0.5639  0.3722  0.8702
   73SLPC    C1 6401   1.426   2.738  10.606 -0.7191 -0.4785 -0.4535
   73SLPC    HA 6402   1.529   2.759  10.569 -0.1044  0.4427  1.6577
   73SLPC    HB 6403   1.434   2.684  10.702 -1.4898 -1.7156 -1.0703
   73SLPC    C2 6404   1.343   2.642  10.525 -0.3749  0.3686  0.1527
   73SLPC    HS 6405   1.394   2.544  10.510 -0.4470 -0.2909  3.3786
   73SLPC   O21 6406   1.308   2.692  10.399  0.6529 -0.6390 -0.2632
   73SLPC   C21 6407   1.414   2.689  10.317 -0.1597  0.3055  0.6895
   73SLPC   O22 6408   1.529   2.662  10.344 -0.5108  0.5255  0.2854
   73SLPC   C22 6409   1.363   2.716  10.169 -0.8395 -0.3260  0.4325
   73SLPC   H2R 6410   1.286   2.638  10.153 -0.9885 -0.1880  0.4714
   73SLPC   H2S 6411   1.301   2.808  10.159 -2.0446 -1.1784 -0.1930
   73SLPC    C3 6412   1.215   2.603  10.602  0.1942  0.7450  0.5553
   73SLPC    HX 6413   1.164   2.698  10.627 -1.4489  0.0374  0.0627
   73SLPC    HY 6414   1.237   2.544  10.694 -2.4835  1.2279  1.6182
   73SLPC   O31 6415   1.134   2.523  10.513 -0.6379 -0.0973  0.1651
   73SLPC   C31 6416   1.009   2.546  10.514 -0.4072 -0.3189 -0.0319
   73SLPC   O32 6417   0.954   2.639  10.571 -0.6733 -0.4325 -0.2280
   73SLPC   C32 6418   0.938   2.427  10.437  0.3505  0.3423 -0.7150
   73SLPC   H2X 6419   0.863   2.386  10.507 -0.0341  2.4450  0.1706
   73SLPC   H2Y 6420   1.019   2.351  10.433  1.5964  1.3777  2.0885
   73SLPC   C23 6421   1.476   2.687  10.066  0.7485 -0.6580 -0.2626
   73SLPC   H3R 6422   1.518   2.586  10.088  1.4571  0.2720  3.3152
   73SLPC   H3S 6423   1.553   2.765  10.083 -0.6409  0.9881 -1.2454
   73SLPC   C24 6424   1.431   2.692   9.919 -0.2310  0.0437 -0.0187
   73SLPC   H4R 6425   1.385   2.791   9.902 -0.0772  0.2415  0.7045
   73SLPC   H4S 6426   1.350   2.616   9.917 -0.2070 -0.0244  1.0303
   73SLPC   C25 6427   1.531   2.662   9.810 -0.2004  0.7228  0.4199
   73SLPC   H5R 6428   1.607   2.589   9.847 -0.5168  0.3485  0.3405
   73SLPC   H5S 6429   1.583   2.759   9.799  0.2466  0.6034  1.3917
   73SLPC   C26 6430   1.480   2.634   9.669 -1.1829  0.4760  0.4240
   73SLPC   H6R 6431   1.398   2.706   9.646 -0.7168  1.9730  3.0124
   73SLPC   H6S 6432   1.450   2.527   9.662  1.8126 -0.5081  1.2661
   73SLPC   C27 6433   1.588   2.647   9.560 -0.3719 -0.1508 -0.4673
   73SLPC   H7R 6434   1.681   2.588   9.577  0.8331  1.3909 -1.4530
   73SLPC   H7S 6435   1.624   2.752   9.561 -0.4416 -0.0751  2.0389
   73SLPC   C28 6436   1.520   2.631   9.419  0.6974  0.2903 -0.0920
   73SLPC   H8R 6437   1.441   2.709   9.411  0.0300 -0.4780 -1.4220
   73SLPC   H8S 6438   1.452   2.543   9.422 -0.4984  1.1512 -0.9174
   73SLPC   C29 6439   1.593   2.639   9.294 -0.3965  0.9760  0.3804
   73SLPC   H9R 6440   1.634   2.740   9.284  4.2964 -0.5140  2.1270
   73SLPC  C210 6441   1.598   2.544   9.200 -0.4055  0.1172  0.0910
   73SLPC  H10R 6442   1.674   2.561   9.122  0.3135 -1.7179  0.3477
   73SLPC  C211 6443   1.544   2.401   9.209 -0.7033 -0.8803  0.7766
   73SLPC  H11R 6444   1.537   2.371   9.102  0.4880  0.0623  0.4116
   73SLPC  H11S 6445   1.442   2.402   9.252 -0.9990  0.0175  0.0732
   73SLPC  C212 6446   1.631   2.304   9.288  0.1495  0.3257  0.4046
   73SLPC  H12R 6447   1.672   2.344   9.382  0.8018 -2.7044  1.4953
   73SLPC  C213 6448   1.672   2.181   9.256  0.5938 -1.0637  0.4994
   73SLPC  H13R 6449   1.740   2.123   9.321  0.7300 -1.3198  0.1301
   73SLPC  C214 6450   1.645   2.112   9.132  0.4775 -0.0802 -0.3797
   73SLPC  H14R 6451   1.555   2.147   9.077 -0.4312 -1.4232  0.1815
   73SLPC  H14S 6452   1.619   2.008   9.162 -2.1910  0.8875  1.0743
   73SLPC  C215 6453   1.760   2.112   9.034 -0.0546  0.7338  0.5494
   73SLPC  H15R 6454   1.855   2.082   9.085  0.0576  1.6763  0.9085
   73SLPC  H15S 6455   1.772   2.218   9.002  1.5215  0.6118  0.6356
   73SLPC  C216 6456   1.722   2.035   8.902 -0.2694 -0.6454 -0.0783
   73SLPC  H16R 6457   1.635   2.087   8.857 -0.2811 -0.7721 -0.2007
   73SLPC  H16S 6458   1.692   1.929   8.912 -2.1326 -0.1436 -0.0086
   73SLPC  C217 6459   1.836   2.048   8.804  0.3462 -0.3172  0.3298
   73SLPC  H17R 6460   1.831   2.136   8.736 -2.1808  1.8062  3.0058
   73SLPC  H17S 6461   1.823   1.957   8.741  0.7668 -1.4828  1.8663
   73SLPC  C218 6462   1.979   2.041   8.859 -0.3370 -0.1367  0.0979
   73SLPC  H18R 6463   1.993   1.965   8.939  1.2644  0.1987  0.1640
   73SLPC  H18S 6464   2.010   2.142   8.894 -0.9565 -0.4017  1.4951
   73SLPC  H18T 6465   2.053   2.009   8.783  0.8083  0.1194  1.0769
   73SLPC   C33 6466   0.883   2.471  10.294  0.1749  0.9247 -0.4139
   73SLPC   H3X 6467   0.807   2.552  10.292 -2.2121 -1.1263  0.8495
   73SLPC   H3Y 6468   0.822   2.386  10.257  1.0936  0.6606 -1.3526
   73SLPC   C34 6469   1.000   2.515  10.203  0.0821 -0.5104 -0.4230
   73SLPC   H4X 6470   1.064   2.425  10.188  0.7061 -0.3196  0.8962
   73SLPC   H4Y 6471   1.049   2.604  10.248 -1.0310  1.6035 -3.1367
   73SLPC   C35 6472   0.937   2.563  10.071 -0.3371 -0.8309 -0.2158
   73SLPC   H5X 6473   0.888   2.663  10.072  2.1928  0.5055  1.2627
   73SLPC   H5Y 6474   0.866   2.487  10.031 -0.7007 -0.1195 -0.9620
   73SLPC   C36 6475   1.043   2.547   9.955  0.3046 -0.1185  0.5697
   73SLPC   H6X 6476   1.090   2.446   9.962  0.2128 -0.1696  0.4582
   73SLPC   H6Y 6477   1.116   2.629   9.966  0.8971 -0.6300  0.5293
   73SLPC   C37 6478   0.974   2.579   9.825  0.1815  0.0016  0.5389
   73SLPC   H7X 6479   0.891   2.652   9.818 -0.1593 -0.4399 -0.1420
   73SLPC   H7Y 6480   0.918   2.489   9.790 -0.9645 -0.1515  2.6310
   73SLPC   C38 6481   1.079   2.608   9.713 -0.0899 -0.1872 -0.6957
   73SLPC   H8X 6482   1.164   2.537   9.710 -0.8431 -1.1002 -2.6158
   73SLPC   H8Y 6483   1.107   2.715   9.725 -0.0923 -0.1995 -0.5797
   73SLPC   C39 6484   1.027   2.601   9.568  0.5510 -0.4556 -0.4401
   73SLPC   H9X 6485   0.931   2.658   9.570  1.0317  0.3717  0.2401
   73SLPC   H9Y 6486   0.992   2.499   9.542 -0.7251 -0.1047 -0.1880
   73SLPC  C310 6487   1.135   2.640   9.474  0.4377  0.3629 -0.4824
   73SLPC  H10X 6488   1.207   2.556   9.469 -1.1644 -1.2099  1.2031
   73SLPC  H10Y 6489   1.186   2.733   9.507 -0.0042  0.4018  0.1096
   73SLPC  C311 6490   1.081   2.668   9.332  0.3550 -0.1363 -0.3881
   73SLPC  H11X 6491   1.002   2.746   9.332  1.0045  0.5398  0.2682
   73SLPC  H11Y 6492   1.032   2.573   9.300 -0.4805 -0.0626  0.6057
   73SLPC  C312 6493   1.189   2.721   9.238  0.1971 -0.5376 -0.3102
   73SLPC  H12X 6494   1.279   2.656   9.237  1.7741  1.5324  0.0993
   73SLPC  H12Y 6495   1.231   2.817   9.274 -1.8562  0.1930  0.2839
   73SLPC  C313 6496   1.145   2.732   9.089  0.6371  0.4399  1.1237
   73SLPC  H13X 6497   1.045   2.780   9.086  0.0173 -0.8332 -0.2951
   73SLPC  H13Y 6498   1.134   2.627   9.053  2.0664 -0.6301  3.5367
   73SLPC  C314 6499   1.239   2.815   8.994  0.6276 -0.1860 -0.2196
   73SLPC  H14X 6500   1.265   2.911   9.044  0.6207 -1.3088  2.0635
   73SLPC  H14Y 6501   1.178   2.835   8.903  1.1207 -0.8022 -0.6893
   73SLPC  C315 6502   1.364   2.740   8.940  0.2093  0.0775  0.0870
   73SLPC  H15X 6503   1.338   2.649   8.881  0.2304  1.5120 -2.2797
   73SLPC  H15Y 6504   1.418   2.706   9.031 -1.5034 -0.4956  0.9259
   73SLPC  C316 6505   1.457   2.832   8.863 -0.8808  0.6320  0.3245
   73SLPC  H16X 6506   1.533   2.761   8.825  0.1280  1.2585  1.1226
   73SLPC  H16Y 6507   1.507   2.900   8.936  4.3553 -0.2861 -1.9211
   73SLPC  C317 6508   1.394   2.897   8.736 -0.1522 -0.2977 -0.3139
   73SLPC  H17X 6509   1.318   2.971   8.769 -0.6898 -0.8554 -0.2717
   73SLPC  H17Y 6510   1.355   2.818   8.668 -2.5922  1.9023 -1.6725
   73SLPC  C318 6511   1.495   2.978   8.656  0.2200  0.0061  0.2209
   73SLPC  H18X 6512   1.574   2.911   8.615  1.1597  0.3854  1.3573
   73SLPC  H18Y 6513   1.543   3.061   8.712 -1.0367 -1.4883  3.7475
   73SLPC  H18Z 6514   1.452   3.016   8.560  2.2615 -0.2579 -0.8648
   74SLPC     N 6515   1.862   3.137  10.616  0.7166 -0.4882  0.2620
   74SLPC   C13 6516   1.730   3.067  10.591  0.3958  0.0929 -0.1525
   74SLPC  H13A 6517   1.686   3.022  10.679 -2.3180  0.6490 -1.1017
   74SLPC  H13B 6518   1.651   3.139  10.570  1.4615  1.2653 -0.2495
   74SLPC  H13C 6519   1.736   2.989  10.516  1.5889 -0.5182  0.5622
   74SLPC   C14 6520   1.919   3.169  10.476  0.3001  0.3817 -0.4198
   74SLPC  H14A 6521   1.894   3.087  10.410 -0.1362  2.4100 -2.9144
   74SLPC  H14B 6522   1.871   3.251  10.426  1.2125  1.8440  1.0012
   74SLPC  H14C 6523   2.027   3.174  10.478  0.4256 -1.6871  0.9568
   74SLPC   C15 6524   1.950   3.053  10.693 -0.1287  0.2397 -0.0683
   74SLPC  H15A 6525   1.894   3.027  10.782 -0.6495 -0.3128 -0.5528
   74SLPC  H15B 6526   1.968   2.960  10.640  1.4734  0.1829  0.5124
   74SLPC  H15C 6527   2.044   3.102  10.713  1.1109 -2.0019 -0.0910
   74SLPC   C12 6528   1.843   3.262  10.693  0.3549 -0.1627  0.3881
   74SLPC  H12A 6529   1.939   3.311  10.704  0.3052 -0.3314  1.8433
   74SLPC  H12B 6530   1.803   3.240  10.791 -1.0976  0.0903 -0.1219
   74SLPC   C11 6531   1.743   3.366  10.630 -0.1515  0.0618  0.3610
   74SLPC  H11A 6532   1.768   3.372  10.522  0.3321 -1.7913  0.3369
   74SLPC  H11B 6533   1.757   3.468  10.672 -1.9190  0.8263 -0.8003
   74SLPC     P 6534   1.483   3.380  10.588  0.0209 -0.1176 -0.3000
   74SLPC   O13 6535   1.395   3.280  10.526 -0.0901  0.1112  0.6557
   74SLPC   O14 6536   1.417   3.463  10.692  0.3055  0.2439  0.3007
   74SLPC   O12 6537   1.611   3.317  10.650  0.4098  0.0030  0.1078
   74SLPC   O11 6538   1.542   3.476  10.483 -0.4875 -0.2759  0.2555
   74SLPC    C1 6539   1.493   3.488  10.355  0.1612 -0.6681  0.4375
   74SLPC    HA 6540   1.507   3.389  10.306 -1.2942 -1.3439  1.3289
   74SLPC    HB 6541   1.388   3.522  10.360  0.7417  1.1015  2.4716
   74SLPC    C2 6542   1.563   3.594  10.263 -0.5567 -0.0914  0.3105
   74SLPC    HS 6543   1.673   3.582  10.266 -0.2331  1.5319 -2.0341
   74SLPC   O21 6544   1.517   3.727  10.298 -0.1464 -0.4650  0.2378
   74SLPC   C21 6545   1.617   3.821  10.313 -1.0351 -0.2772  0.1298
   74SLPC   O22 6546   1.738   3.794  10.295 -0.0315 -0.2293 -0.0311
   74SLPC   C22 6547   1.558   3.963  10.304  0.0753  0.2610  0.5378
   74SLPC   H2R 6548   1.474   3.976  10.233  0.1955 -3.3427 -0.4701
   74SLPC   H2S 6549   1.518   3.989  10.404  2.3736  3.2288  0.8186
   74SLPC    C3 6550   1.530   3.573  10.116 -0.4895  0.1092  0.5947
   74SLPC    HX 6551   1.419   3.571  10.112 -0.4494 -0.9799 -0.3141
   74SLPC    HY 6552   1.566   3.473  10.085 -1.0301  0.6142 -1.9017
   74SLPC   O31 6553   1.578   3.670  10.021  0.0334 -0.0863  0.3202
   74SLPC   C31 6554   1.707   3.654   9.993  0.3375  0.4212  0.8251
   74SLPC   O32 6555   1.772   3.558  10.022  0.0998  0.4812 -0.2566
   74SLPC   C32 6556   1.744   3.758   9.884 -0.6888 -0.0738 -0.2837
   74SLPC   H2X 6557   1.833   3.810   9.926 -1.8845  0.6794  1.4402
   74SLPC   H2Y 6558   1.666   3.836   9.875 -1.0730 -0.0632  2.2776
   74SLPC   C23 6559   1.665   4.063  10.260 -0.2795 -0.7421 -1.3444
   74SLPC   H3R 6560   1.760   4.057  10.316 -0.2300 -1.0004 -1.4562
   74SLPC   H3S 6561   1.627   4.166  10.281 -2.8263 -1.4628 -2.0693
   74SLPC   C24 6562   1.705   4.069  10.114  0.2534  0.0574 -0.3212
   74SLPC   H4R 6563   1.735   3.965  10.090  1.6482 -0.1690  2.1243
   74SLPC   H4S 6564   1.803   4.121  10.106  1.9256 -2.9608 -1.1271
   74SLPC   C25 6565   1.608   4.139  10.022  0.4773  0.0117 -0.4643
   74SLPC   H5R 6566   1.588   4.242  10.060 -2.8542 -1.0671  1.1200
   74SLPC   H5S 6567   1.512   4.084  10.018 -0.0457  0.6935  1.4128
   74SLPC   C26 6568   1.655   4.142   9.885  0.4740 -0.9671  0.1866
   74SLPC   H6R 6569   1.683   4.043   9.844  1.4636 -0.4927 -0.3236
   74SLPC   H6S 6570   1.744   4.209   9.874  0.8054 -1.4413 -0.0279
   74SLPC   C27 6571   1.547   4.193   9.788  0.9599  0.4971  0.4028
   74SLPC   H7R 6572   1.499   4.285   9.828 -0.0801 -0.3143  1.0884
   74SLPC   H7S 6573   1.461   4.122   9.789  1.0476  0.3957  0.9598
   74SLPC   C28 6574   1.597   4.210   9.649  0.5720  0.4312  0.5522
   74SLPC   H8R 6575   1.662   4.132   9.605 -1.1054 -1.3722  1.1434
   74SLPC   H8S 6576   1.669   4.295   9.647 -0.4741  1.3813 -2.4904
   74SLPC   C29 6577   1.480   4.246   9.561 -0.2406 -0.4568  0.5639
   74SLPC   H9R 6578   1.389   4.266   9.620  1.2516  0.4036  2.7169
   74SLPC  C210 6579   1.485   4.243   9.428 -0.5490  0.0251  0.0853
   74SLPC  H10R 6580   1.401   4.288   9.375  0.6651  0.4865 -1.5138
   74SLPC  C211 6581   1.604   4.213   9.339 -0.2742  0.6081  0.1313
   74SLPC  H11R 6582   1.571   4.115   9.297 -1.6383  0.8010  0.6909
   74SLPC  H11S 6583   1.694   4.196   9.401 -0.1167 -1.8505 -0.6554
   74SLPC  C212 6584   1.639   4.300   9.223  0.2151  0.0393  0.6945
   74SLPC  H12R 6585   1.698   4.386   9.257  1.6373 -0.6066 -0.0494
   74SLPC  C213 6586   1.631   4.271   9.093  0.8850 -0.1776 -0.1708
   74SLPC  H13R 6587   1.670   4.348   9.025 -1.2200  0.5764 -0.6029
   74SLPC  C214 6588   1.589   4.150   9.017  0.1477  0.1746 -0.3012
   74SLPC  H14R 6589   1.511   4.177   8.943 -1.5943 -0.9973  1.0386
   74SLPC  H14S 6590   1.547   4.072   9.084  1.0828 -1.1621 -1.2139
   74SLPC  C215 6591   1.713   4.088   8.956 -0.6985 -0.4703  0.3208
   74SLPC  H15R 6592   1.777   4.052   9.040 -0.8387 -4.2298 -1.0150
   74SLPC  H15S 6593   1.779   4.155   8.896  1.2061 -2.6966 -0.2027
   74SLPC  C216 6594   1.699   3.957   8.870  0.0792 -0.3552 -0.1464
   74SLPC  H16R 6595   1.661   3.871   8.929  1.6522 -0.7564  0.3069
   74SLPC  H16S 6596   1.801   3.935   8.833 -0.0055  2.3275 -2.2884
   74SLPC  C217 6597   1.601   3.978   8.755 -0.2976 -0.9979  0.8795
   74SLPC  H17R 6598   1.495   3.978   8.789 -0.2858  0.6220  1.0141
   74SLPC  H17S 6599   1.600   3.890   8.688 -2.3583  0.1202 -0.7030
   74SLPC  C218 6600   1.606   4.105   8.666  0.1305 -0.3428  0.1060
   74SLPC  H18R 6601   1.711   4.134   8.646 -0.0011 -0.2426 -0.4582
   74SLPC  H18S 6602   1.581   4.188   8.735  1.2968 -0.0044  0.1379
   74SLPC  H18T 6603   1.547   4.089   8.573  0.3186  0.1837 -0.1052
   74SLPC   C33 6604   1.783   3.687   9.747 -0.2001  0.2020 -0.9825
   74SLPC   H3X 6605   1.696   3.630   9.707 -1.1885  1.2880 -0.4303
   74SLPC   H3Y 6606   1.874   3.625   9.765 -0.7287 -0.6954 -1.3505
   74SLPC   C34 6607   1.823   3.787   9.638 -0.4477 -0.5324 -0.9234
   74SLPC   H4X 6608   1.913   3.744   9.589 -0.3899 -1.2735 -0.1945
   74SLPC   H4Y 6609   1.851   3.875   9.699  0.3323 -2.2580  1.3408
   74SLPC   C35 6610   1.723   3.809   9.524 -0.3611 -0.0740  0.5418
   74SLPC   H5X 6611   1.737   3.910   9.478 -5.2098  0.7470  0.3873
   74SLPC   H5Y 6612   1.621   3.817   9.567 -0.6346 -1.5778  0.2053
   74SLPC   C36 6613   1.724   3.706   9.411  0.2374 -0.3100 -0.5359
   74SLPC   H6X 6614   1.617   3.680   9.396 -0.2510  1.2337  0.0070
   74SLPC   H6Y 6615   1.771   3.616   9.456 -1.6037 -0.1746  1.8577
   74SLPC   C37 6616   1.802   3.748   9.284  0.0998  0.4140 -0.8249
   74SLPC   H7X 6617   1.906   3.781   9.304  0.4176  0.5040 -2.4914
   74SLPC   H7Y 6618   1.747   3.825   9.228 -0.8133 -1.2078 -2.2583
   74SLPC   C38 6619   1.815   3.624   9.192  0.1642 -0.3857  0.3417
   74SLPC   H8X 6620   1.719   3.567   9.190 -1.1591  1.7414 -0.7444
   74SLPC   H8Y 6621   1.890   3.557   9.240  0.8671 -1.4762 -2.1461
   74SLPC   C39 6622   1.854   3.647   9.044 -0.1030  0.2934  0.1245
   74SLPC   H9X 6623   1.946   3.705   9.025  0.6645 -1.5984 -2.5342
   74SLPC   H9Y 6624   1.770   3.710   9.007 -2.4100 -3.4236 -1.6000
   74SLPC  C310 6625   1.847   3.519   8.953 -0.6784  0.5138 -0.6786
   74SLPC  H10X 6626   1.754   3.464   8.979  0.7021 -1.0209  1.3914
   74SLPC  H10Y 6627   1.934   3.462   8.994 -2.0406  1.7543  4.7528
   74SLPC  C311 6628   1.872   3.555   8.812 -0.1342 -0.1687  1.0627
   74SLPC  H11X 6629   1.980   3.581   8.812 -0.4930  1.4367  1.4987
   74SLPC  H11Y 6630   1.804   3.640   8.789 -1.1554 -1.5499 -1.4768
   74SLPC  C312 6631   1.852   3.431   8.721 -1.2400  0.3874  0.6387
   74SLPC  H12X 6632   1.749   3.391   8.729 -1.1953 -0.2621 -1.5244
   74SLPC  H12Y 6633   1.922   3.349   8.746 -0.7932  0.6761  0.3488
   74SLPC  C313 6634   1.895   3.457   8.575 -0.0716  0.4628  0.5432
   74SLPC  H13X 6635   1.995   3.504   8.574  0.6406 -0.9963 -0.6683
   74SLPC  H13Y 6636   1.818   3.514   8.518 -0.3152 -1.1274 -0.7953
   74SLPC  C314 6637   1.894   3.325   8.485  0.1547  0.7524 -0.0071
   74SLPC  H14X 6638   1.788   3.291   8.478  0.3052  0.5857 -1.9879
   74SLPC  H14Y 6639   1.955   3.243   8.528  1.2995  0.9167 -1.2708
   74SLPC  C315 6640   1.938   3.342   8.342 -0.2054 -0.4112 -0.0569
   74SLPC  H15X 6641   2.037   3.393   8.343 -0.4946  0.1549  0.7600
   74SLPC  H15Y 6642   1.868   3.411   8.292  3.0224  3.1736 -0.0701
   74SLPC  C316 6643   1.953   3.211   8.268 -0.1944  0.2705 -0.1363
   74SLPC  H16X 6644   2.012   3.137   8.326  1.9459  0.6084 -1.7888
   74SLPC  H16Y 6645   2.019   3.222   8.180 -0.6467 -3.3729 -1.1241
   74SLPC  C317 6646   1.825   3.139   8.236  0.0104  0.6214  0.4467
   74SLPC  H17X 6647   1.745   3.202   8.193 -0.9602 -1.0343 -0.2678
   74SLPC  H17Y 6648   1.789   3.092   8.330  1.0848  1.5745  1.3621
   74SLPC  C318 6649   1.856   3.028   8.138  0.7635 -0.5388  0.4718
   74SLPC  H18X 6650   1.887   3.073   8.041 -2.3657 -0.1306 -0.4742
   74SLPC  H18Y 6651   1.773   2.957   8.116  0.5321 -0.0156 -0.4050
   74SLPC  H18Z 6652   1.934   2.957   8.174  0.5245 -1.7570 -1.2335
   75SLPC     N 6653   6.655   6.183   6.380 -0.3558  0.0848 -0.1457
   75SLPC   C13 6654   6.723   6.304   6.430  0.6242 -0.2920  0.1280
   75SLPC  H13A 6655   6.755   6.363   6.346 -1.0913  0.4338 -0.0588
   75SLPC  H13B 6656   6.650   6.368   6.477  0.0324 -1.3330  0.6663
   75SLPC  H13C 6657   6.803   6.282   6.499  0.1249 -0.6633  0.5984
   75SLPC   C14 6658   6.734   6.115   6.272  0.5898  0.7505  0.2638
   75SLPC  H14A 6659   6.825   6.080   6.317 -0.2139 -0.1235  1.2611
   75SLPC  H14B 6660   6.670   6.031   6.249  1.0574  0.9287 -1.8669
   75SLPC  H14C 6661   6.747   6.188   6.193  1.0259  0.0610 -0.3116
   75SLPC   C15 6662   6.531   6.234   6.323 -0.3099 -0.0487  0.0215
   75SLPC  H15A 6663   6.459   6.158   6.296  0.8953 -1.7325  1.3216
   75SLPC  H15B 6664   6.471   6.298   6.385  0.1090  1.1556 -0.7801
   75SLPC  H15C 6665   6.556   6.306   6.246  0.6348  1.1219  1.3877
   75SLPC   C12 6666   6.626   6.074   6.490  0.3372  0.7123  0.1132
   75SLPC  H12A 6667   6.584   5.988   6.441  0.7104 -0.0348  1.0709
   75SLPC  H12B 6668   6.550   6.119   6.552  0.2480  1.4688 -0.5251
   75SLPC   C11 6669   6.745   6.015   6.576 -0.7031  0.0158  0.0591
   75SLPC  H11A 6670   6.714   5.940   6.652  1.3338 -0.2943  0.6450
   75SLPC  H11B 6671   6.786   6.101   6.633 -0.9843  0.5885 -0.5863
   75SLPC     P 6672   6.956   5.875   6.558  0.7239 -0.1331 -0.1608
   75SLPC   O13 6673   6.896   5.744   6.602 -0.3416 -0.6056  0.3921
   75SLPC   O14 6674   7.061   5.872   6.461  0.0515  0.1539  0.4454
   75SLPC   O12 6675   6.850   5.967   6.489 -0.4116  0.0698 -0.0237
   75SLPC   O11 6676   7.005   5.957   6.680 -0.2275 -0.4266 -0.8427
   75SLPC    C1 6677   7.070   5.885   6.791  0.6328  0.5098 -0.4691
   75SLPC    HA 6678   7.085   5.778   6.767 -2.5454  0.1527 -1.3462
   75SLPC    HB 6679   7.165   5.933   6.822  0.6536 -0.2437  0.6848
   75SLPC    C2 6680   6.993   5.902   6.923  0.1161 -0.4212 -0.6605
   75SLPC    HS 6681   7.031   5.836   7.004 -1.3254  1.9420  2.1358
   75SLPC   O21 6682   6.849   5.878   6.914 -0.0032  0.4647 -0.3724
   75SLPC   C21 6683   6.816   5.746   6.904 -0.8402  0.4240 -0.1112
   75SLPC   O22 6684   6.896   5.652   6.907 -0.2711 -0.0757  0.9963
   75SLPC   C22 6685   6.676   5.732   6.884 -0.5621 -0.4332 -0.6011
   75SLPC   H2R 6686   6.623   5.820   6.926 -0.9410 -1.5224  1.3064
   75SLPC   H2S 6687   6.669   5.733   6.773 -0.4787 -1.9191 -0.6468
   75SLPC    C3 6688   7.014   6.046   6.976  0.1507 -0.2745 -0.2342
   75SLPC    HX 6689   6.939   6.108   6.924 -1.9785 -0.9645  1.8828
   75SLPC    HY 6690   7.120   6.075   6.959  0.8756 -2.4785  0.1126
   75SLPC   O31 6691   7.004   6.044   7.122 -0.0197 -0.2762  0.2190
   75SLPC   C31 6692   6.880   6.061   7.179  0.8992 -0.6777 -0.5157
   75SLPC   O32 6693   6.786   6.101   7.116  0.2268 -0.0167  0.0214
   75SLPC   C32 6694   6.885   6.052   7.329  0.1632 -0.4846  0.4817
   75SLPC   H2X 6695   6.784   6.087   7.359  0.0874  0.6827 -1.0143
   75SLPC   H2Y 6696   6.944   6.135   7.372  1.0523  0.3277 -2.1206
   75SLPC   C23 6697   6.613   5.589   6.909 -1.3536 -0.3513 -0.3527
   75SLPC   H3R 6698   6.676   5.513   6.858  1.7846  2.2441 -0.7007
   75SLPC   H3S 6699   6.513   5.590   6.860 -2.9448 -0.5677  2.6732
   75SLPC   C24 6700   6.604   5.550   7.057 -0.1401 -0.5348  0.3759
   75SLPC   H4R 6701   6.705   5.537   7.103  0.1376  0.0985 -0.0339
   75SLPC   H4S 6702   6.568   5.446   7.070 -1.0984 -0.2320  0.2052
   75SLPC   C25 6703   6.503   5.615   7.151 -0.2523  0.7801  0.3719
   75SLPC   H5R 6704   6.400   5.611   7.109 -0.1470 -0.8999  0.2161
   75SLPC   H5S 6705   6.532   5.720   7.173  1.3481  0.6331 -0.9043
   75SLPC   C26 6706   6.501   5.540   7.290  0.3153 -0.1508 -0.6721
   75SLPC   H6R 6707   6.606   5.529   7.323  0.3118  0.9579 -0.2380
   75SLPC   H6S 6708   6.456   5.439   7.280  0.1698 -0.1421 -0.1039
   75SLPC   C27 6709   6.417   5.626   7.391 -0.4740  0.1881 -0.6462
   75SLPC   H7R 6710   6.336   5.673   7.330  0.1613 -1.7012 -3.1156
   75SLPC   H7S 6711   6.476   5.708   7.437  0.4776 -0.7510 -0.1613
   75SLPC   C28 6712   6.340   5.547   7.500 -0.0243 -0.5213 -0.1774
   75SLPC   H8R 6713   6.294   5.453   7.461 -2.0442  0.2412  0.2355
   75SLPC   H8S 6714   6.253   5.606   7.536 -0.9896 -1.0713 -1.4867
   75SLPC   C29 6715   6.438   5.509   7.606 -0.1282  0.7663 -0.5854
   75SLPC   H9R 6716   6.488   5.412   7.594  0.2469  0.8653  0.1051
   75SLPC  C210 6717   6.474   5.588   7.720 -0.3461 -0.2794 -0.7318
   75SLPC  H10R 6718   6.549   5.566   7.796 -0.2302  0.0829 -0.7396
   75SLPC  C211 6719   6.417   5.722   7.754  0.0725  0.7085 -0.1890
   75SLPC  H11R 6720   6.394   5.775   7.659 -0.9760 -1.5537 -1.2654
   75SLPC  H11S 6721   6.501   5.771   7.808 -2.4932  2.1739  2.8188
   75SLPC  C212 6722   6.302   5.713   7.846  0.3936 -0.0043 -0.0898
   75SLPC  H12R 6723   6.236   5.627   7.829  2.2358 -1.7689  1.1735
   75SLPC  C213 6724   6.288   5.782   7.964  0.3982  1.1249 -0.1776
   75SLPC  H13R 6725   6.190   5.766   8.012  1.1617 -1.7410  0.6608
   75SLPC  C214 6726   6.390   5.868   8.036 -0.2187 -0.6434 -0.5011
   75SLPC  H14R 6727   6.338   5.954   8.082 -0.4441 -1.8982  1.7034
   75SLPC  H14S 6728   6.456   5.916   7.960  0.9323  1.2268  1.5554
   75SLPC  C215 6729   6.478   5.799   8.143 -0.6255 -0.5048  0.6845
   75SLPC  H15R 6730   6.574   5.849   8.165 -0.3002 -1.1284  0.7113
   75SLPC  H15S 6731   6.517   5.700   8.112 -0.2220 -0.3701  0.7633
   75SLPC  C216 6732   6.413   5.794   8.281  0.4144  0.1753  0.7440
   75SLPC  H16R 6733   6.330   5.721   8.279  0.4777  0.0987 -1.3212
   75SLPC  H16S 6734   6.376   5.893   8.313 -0.6697 -0.0025  0.1014
   75SLPC  C217 6735   6.522   5.751   8.379  0.1402  0.3358 -0.4370
   75SLPC  H17R 6736   6.585   5.837   8.410 -1.3108  0.5695  2.1824
   75SLPC  H17S 6737   6.593   5.676   8.337 -1.6394 -0.9241 -1.3095
   75SLPC  C218 6738   6.467   5.699   8.509 -0.6207  0.1614  0.0134
   75SLPC  H18R 6739   6.406   5.607   8.510 -1.2322  0.5410  2.3300
   75SLPC  H18S 6740   6.400   5.774   8.556  1.7964  1.3286  1.8565
   75SLPC  H18T 6741   6.556   5.680   8.573 -1.7234 -0.3976  1.4251
   75SLPC   C33 6742   6.929   5.918   7.388 -0.0219 -0.0007  0.7129
   75SLPC   H3X 6743   7.021   5.882   7.336 -0.0358 -0.8035  1.2286
   75SLPC   H3Y 6744   6.960   5.937   7.492 -0.2446  1.3220  0.5464
   75SLPC   C34 6745   6.820   5.811   7.378  0.1846  0.4112  0.0793
   75SLPC   H4X 6746   6.771   5.807   7.278  0.2686  0.6197  0.0304
   75SLPC   H4Y 6747   6.736   5.837   7.446 -0.5292 -0.6101 -0.3895
   75SLPC   C35 6748   6.852   5.670   7.429 -0.5146  0.0451 -0.2292
   75SLPC   H5X 6749   6.913   5.624   7.349 -0.8164 -1.1263  0.1976
   75SLPC   H5Y 6750   6.759   5.609   7.435  0.6215 -1.8670 -1.2492
   75SLPC   C36 6751   6.916   5.660   7.571 -0.0202  0.6536 -0.3866
   75SLPC   H6X 6752   7.025   5.684   7.574  0.3001 -0.4449 -2.1081
   75SLPC   H6Y 6753   6.893   5.559   7.612  1.4659  0.7035  0.6649
   75SLPC   C37 6754   6.832   5.738   7.678  0.2131 -0.0509  0.0484
   75SLPC   H7X 6755   6.726   5.706   7.671  0.9771 -2.3980 -3.0636
   75SLPC   H7Y 6756   6.834   5.848   7.669  2.6701  0.3246  3.3070
   75SLPC   C38 6757   6.877   5.712   7.820  0.4570  0.9937 -0.6468
   75SLPC   H8X 6758   6.983   5.748   7.819  0.9824 -0.3520 -3.5449
   75SLPC   H8Y 6759   6.864   5.607   7.853  1.4518  0.3954 -2.0746
   75SLPC   C39 6760   6.788   5.795   7.919  0.7403 -0.1477 -0.5969
   75SLPC   H9X 6761   6.689   5.744   7.927  0.4970  0.1047 -1.8156
   75SLPC   H9Y 6762   6.764   5.887   7.860 -1.5418 -0.5621 -0.4266
   75SLPC  C310 6763   6.869   5.839   8.040 -0.4220 -0.1185  0.1639
   75SLPC  H10X 6764   6.824   5.931   8.081 -2.4720 -1.2651  0.5981
   75SLPC  H10Y 6765   6.960   5.880   7.989 -1.0029  0.5379 -0.3700
   75SLPC  C311 6766   6.888   5.717   8.138 -0.6222 -0.6395  0.0942
   75SLPC  H11X 6767   6.968   5.649   8.102  1.0213  0.9950  0.4658
   75SLPC  H11Y 6768   6.790   5.667   8.150 -1.6506  1.5718  1.6059
   75SLPC  C312 6769   6.936   5.772   8.277  0.2433 -0.2097 -0.0205
   75SLPC  H12X 6770   6.876   5.860   8.308 -0.1588 -0.9322  1.3237
   75SLPC  H12Y 6771   7.042   5.804   8.287  0.9981 -3.2133  3.6190
   75SLPC  C313 6772   6.924   5.661   8.380  0.2443  0.0963  0.2991
   75SLPC  H13X 6773   7.005   5.590   8.353 -0.3133 -0.0219 -1.1805
   75SLPC  H13Y 6774   6.825   5.611   8.379  1.9410 -3.5599 -0.7404
   75SLPC  C314 6775   6.952   5.714   8.526  0.3837 -0.3742  0.4332
   75SLPC  H14X 6776   7.018   5.803   8.521  1.6167 -1.3383 -1.2582
   75SLPC  H14Y 6777   7.028   5.650   8.576  2.0036  0.5009 -0.7998
   75SLPC  C315 6778   6.827   5.760   8.605 -0.2399 -0.1335  0.2864
   75SLPC  H15X 6779   6.762   5.672   8.625 -1.2975  1.0030  2.0611
   75SLPC  H15Y 6780   6.765   5.825   8.540 -1.0480  0.6794  1.8327
   75SLPC  C316 6781   6.861   5.823   8.734  0.0013  0.2776 -0.5456
   75SLPC  H16X 6782   6.937   5.902   8.719  0.4826  0.2683  1.4906
   75SLPC  H16Y 6783   6.910   5.749   8.802 -0.4532  0.4296 -0.0464
   75SLPC  C317 6784   6.735   5.887   8.802 -0.9525  0.1065  0.4602
   75SLPC  H17X 6785   6.663   5.916   8.723 -2.0861 -1.2687  0.9382
   75SLPC  H17Y 6786   6.762   5.983   8.851 -1.1258  0.5815 -0.3624
   75SLPC  C318 6787   6.658   5.788   8.898 -1.0204  0.9909 -0.1701
   75SLPC  H18X 6788   6.711   5.738   8.981 -1.3509  2.6595  1.1122
   75SLPC  H18Y 6789   6.618   5.720   8.820  1.3642  0.2343 -0.8045
   75SLPC  H18Z 6790   6.576   5.844   8.949  0.5073  1.8451  1.4267
   76SLPC     N 6791   1.239   3.683   5.912  0.5683 -0.3697 -0.3163
   76SLPC   C13 6792   1.277   3.560   5.843 -0.1354  0.1435  0.1052
   76SLPC  H13A 6793   1.378   3.579   5.808  0.0010  0.3346  0.5952
   76SLPC  H13B 6794   1.285   3.473   5.906  0.9715 -1.8691 -2.6307
   76SLPC  H13C 6795   1.209   3.534   5.763 -1.6265  0.9321  1.0669
   76SLPC   C14 6796   1.090   3.702   5.899 -0.1796 -0.5088  0.0963
   76SLPC  H14A 6797   1.068   3.802   5.934  1.8518  0.0750 -0.1617
   76SLPC  H14B 6798   1.051   3.720   5.800  0.0748  1.8996  0.3790
   76SLPC  H14C 6799   1.025   3.637   5.956 -2.1162  3.2562  2.6443
   76SLPC   C15 6800   1.309   3.798   5.846  0.4055 -0.2190 -0.1833
   76SLPC  H15A 6801   1.270   3.825   5.749  1.8273 -0.0305 -0.7280
   76SLPC  H15B 6802   1.303   3.880   5.916 -0.6709 -1.0537  0.7400
   76SLPC  H15C 6803   1.411   3.772   5.822  0.4689  0.8967 -1.2741
   76SLPC   C12 6804   1.266   3.678   6.063  0.0844 -0.0995  0.3368
   76SLPC  H12A 6805   1.372   3.653   6.060 -0.2280 -1.4328 -1.3548
   76SLPC  H12B 6806   1.214   3.591   6.101  0.5297 -0.5432 -0.0340
   76SLPC   C11 6807   1.241   3.805   6.144  0.4140  0.0506  0.3161
   76SLPC  H11A 6808   1.287   3.893   6.094  1.9993 -1.0189 -0.1844
   76SLPC  H11B 6809   1.292   3.788   6.241 -0.9470 -0.0091  1.0378
   76SLPC     P 6810   1.000   3.767   6.255 -0.3677 -0.3548 -0.1637
   76SLPC   O13 6811   0.872   3.834   6.246  0.3698 -0.4716 -0.0469
   76SLPC   O14 6812   1.003   3.624   6.226 -0.0097 -0.2239  0.4735
   76SLPC   O12 6813   1.106   3.836   6.168  0.4148 -0.9726  0.2715
   76SLPC   O11 6814   1.058   3.782   6.402 -0.0247 -0.3417 -0.1741
   76SLPC    C1 6815   1.047   3.901   6.476  0.9275  0.3311  1.0166
   76SLPC    HA 6816   0.970   3.968   6.432 -1.0933 -3.4033 -1.6916
   76SLPC    HB 6817   1.027   3.881   6.583 -0.5808  3.2310  1.3980
   76SLPC    C2 6818   1.182   3.985   6.468  0.0943  0.2389  0.5775
   76SLPC    HS 6819   1.201   3.994   6.359  3.0889 -0.2151  0.9728
   76SLPC   O21 6820   1.278   3.906   6.536 -0.4776 -0.6834  0.1218
   76SLPC   C21 6821   1.406   3.933   6.527  0.2412 -0.2525 -0.6151
   76SLPC   O22 6822   1.462   4.006   6.448 -0.9236  0.5751  0.4166
   76SLPC   C22 6823   1.476   3.850   6.635  0.0427  0.7725  0.5183
   76SLPC   H2R 6824   1.471   3.744   6.602  1.6845  0.6539  0.5344
   76SLPC   H2S 6825   1.584   3.875   6.624  0.0753  0.4110 -0.0444
   76SLPC    C3 6826   1.166   4.125   6.522  0.5226 -0.1601  0.0997
   76SLPC    HX 6827   1.071   4.164   6.482 -0.4548 -0.8843  1.5998
   76SLPC    HY 6828   1.254   4.187   6.495 -0.0169  0.6871  0.2721
   76SLPC   O31 6829   1.131   4.121   6.658  0.3957 -0.3493  0.3344
   76SLPC   C31 6830   1.227   4.159   6.746 -0.1994 -0.2432 -0.3631
   76SLPC   O32 6831   1.347   4.178   6.715 -0.2013 -0.3049  0.2883
   76SLPC   C32 6832   1.172   4.151   6.891 -0.1002  0.3221 -0.0435
   76SLPC   H2X 6833   1.147   4.046   6.918  3.6702 -0.5115  0.7592
   76SLPC   H2Y 6834   1.081   4.215   6.893 -1.8841 -2.0676  0.5311
   76SLPC   C23 6835   1.411   3.854   6.771  0.6183 -0.2346 -0.4615
   76SLPC   H3R 6836   1.305   3.819   6.775  0.2041  0.9991  0.0397
   76SLPC   H3S 6837   1.411   3.959   6.809  0.6725 -0.3514 -0.1311
   76SLPC   C24 6838   1.488   3.775   6.881 -0.1788  0.0012 -1.2596
   76SLPC   H4R 6839   1.585   3.742   6.837  0.4589 -0.2132  0.2477
   76SLPC   H4S 6840   1.430   3.681   6.887 -2.4091  1.3491 -0.4854
   76SLPC   C25 6841   1.509   3.850   7.019  0.1784 -0.5595 -0.1627
   76SLPC   H5R 6842   1.557   3.946   6.990 -0.6012 -0.3321 -0.7284
   76SLPC   H5S 6843   1.581   3.796   7.084 -0.7708 -2.6063 -0.7290
   76SLPC   C26 6844   1.372   3.875   7.096 -0.0316 -0.0572 -0.0536
   76SLPC   H6R 6845   1.301   3.915   7.020 -1.6291  1.6976  2.2296
   76SLPC   H6S 6846   1.393   3.948   7.177 -0.3290  0.9594 -0.8697
   76SLPC   C27 6847   1.304   3.750   7.152  0.8350  0.0676  0.2691
   76SLPC   H7R 6848   1.366   3.724   7.240  1.2883 -0.2962 -0.1543
   76SLPC   H7S 6849   1.302   3.668   7.077  2.6097  1.3206 -1.2160
   76SLPC   C28 6850   1.165   3.785   7.209 -0.2123 -0.3097  0.2598
   76SLPC   H8R 6851   1.147   3.719   7.297 -2.2528 -0.5815 -0.3114
   76SLPC   H8S 6852   1.175   3.886   7.254  0.5369 -0.1975 -0.1508
   76SLPC   C29 6853   1.048   3.777   7.113  1.1911  0.4610 -0.1076
   76SLPC   H9R 6854   1.052   3.839   7.022 -2.7084 -1.3015 -1.7327
   76SLPC  C210 6855   0.939   3.700   7.115  0.4831 -0.0573 -0.2665
   76SLPC  H10R 6856   0.862   3.710   7.037  1.8639 -0.0568 -1.6700
   76SLPC  C211 6857   0.886   3.605   7.217 -0.3563 -0.0199 -0.5001
   76SLPC  H11R 6858   0.784   3.570   7.192 -1.6494  1.0128  2.8837
   76SLPC  H11S 6859   0.879   3.661   7.313  0.6271  0.7938 -0.8859
   76SLPC  C212 6860   0.972   3.487   7.235  0.2302  0.4229 -0.5623
   76SLPC  H12R 6861   1.058   3.473   7.168  1.0654 -2.7388  0.9769
   76SLPC  C213 6862   0.969   3.412   7.353  0.3365 -0.7170  0.5971
   76SLPC  H13R 6863   1.022   3.316   7.362  0.3327 -0.6060  1.9880
   76SLPC  C214 6864   0.864   3.426   7.455  0.3792 -0.0248  0.3602
   76SLPC  H14R 6865   0.829   3.325   7.486 -1.6768  0.2019 -1.0758
   76SLPC  H14S 6866   0.776   3.476   7.410  1.7830  0.9489 -1.4008
   76SLPC  C215 6867   0.910   3.504   7.580 -0.0745  0.0370  0.1970
   76SLPC  H15R 6868   0.824   3.528   7.647 -1.2274 -2.3589 -0.3223
   76SLPC  H15S 6869   0.941   3.609   7.559 -0.9270  0.3101  0.2422
   76SLPC  C216 6870   1.022   3.431   7.659  0.0653  0.4509 -0.2886
   76SLPC  H16R 6871   1.110   3.425   7.592 -0.4500 -0.0482 -0.9340
   76SLPC  H16S 6872   0.993   3.324   7.673 -4.6551  1.5079 -0.3588
   76SLPC  C217 6873   1.045   3.502   7.786 -0.2592 -0.4526  0.2593
   76SLPC  H17R 6874   0.949   3.532   7.833 -0.2297 -1.2314  0.8488
   76SLPC  H17S 6875   1.109   3.591   7.772  0.4752 -0.9843  0.1560
   76SLPC  C218 6876   1.107   3.416   7.901  0.7969 -0.5654 -0.4064
   76SLPC  H18R 6877   1.113   3.476   7.994  1.1589 -1.3096  0.0611
   76SLPC  H18S 6878   1.200   3.374   7.856 -0.0573 -1.1379 -1.7196
   76SLPC  H18T 6879   1.034   3.334   7.917 -2.0406  1.2366 -3.0049
   76SLPC   C33 6880   1.276   4.197   6.993 -0.7555 -0.1036 -0.0587
   76SLPC   H3X 6881   1.294   4.303   6.964  0.3430 -0.5577 -1.1335
   76SLPC   H3Y 6882   1.371   4.140   7.005  0.9712  2.8094  1.2344
   76SLPC   C34 6883   1.212   4.222   7.126 -0.1865 -0.2127 -1.2559
   76SLPC   H4X 6884   1.192   4.121   7.168 -0.7219 -0.1980 -1.4666
   76SLPC   H4Y 6885   1.113   4.268   7.105 -0.4690 -0.1406  0.1390
   76SLPC   C35 6886   1.307   4.297   7.223  0.0977 -0.2006 -0.2015
   76SLPC   H5X 6887   1.286   4.405   7.206 -0.0853  0.1553  2.0509
   76SLPC   H5Y 6888   1.415   4.283   7.204  0.3482 -0.7479  1.4766
   76SLPC   C36 6889   1.268   4.261   7.364 -0.4497 -0.2567 -0.8784
   76SLPC   H6X 6890   1.277   4.151   7.373 -1.1111 -0.2408  0.0840
   76SLPC   H6Y 6891   1.159   4.267   7.388  0.0567  0.2297  1.5100
   76SLPC   C37 6892   1.348   4.315   7.477  0.2327  0.5862  0.4420
   76SLPC   H7X 6893   1.347   4.426   7.475 -0.4955  0.5842 -1.9685
   76SLPC   H7Y 6894   1.451   4.275   7.468 -0.6537 -2.3405  1.7765
   76SLPC   C38 6895   1.303   4.276   7.619 -0.3619  0.4219  0.6143
   76SLPC   H8X 6896   1.291   4.166   7.626 -2.3323  0.4763 -1.0691
   76SLPC   H8Y 6897   1.203   4.324   7.628 -0.2114  1.2524 -1.4891
   76SLPC   C39 6898   1.397   4.327   7.736  0.4639  0.2338 -0.1226
   76SLPC   H9X 6899   1.421   4.434   7.723  4.4644 -0.4395  0.4730
   76SLPC   H9Y 6900   1.494   4.273   7.734  1.2121  1.4827  0.8747
   76SLPC  C310 6901   1.341   4.298   7.877 -0.3076 -0.8019 -0.1635
   76SLPC  H10X 6902   1.242   4.340   7.903 -0.5335  0.1161 -2.2839
   76SLPC  H10Y 6903   1.394   4.356   7.956 -1.5148 -1.1938  0.9477
   76SLPC  C311 6904   1.352   4.149   7.918 -0.2574  0.0762  0.2342
   76SLPC  H11X 6905   1.461   4.130   7.910 -0.2950 -0.4917  0.9670
   76SLPC  H11Y 6906   1.300   4.082   7.846  1.2744  0.8918 -1.7172
   76SLPC  C312 6907   1.317   4.139   8.076 -0.2977  0.0295  0.0732
   76SLPC  H12X 6908   1.212   4.171   8.094 -0.5357 -0.4295 -0.4589
   76SLPC  H12Y 6909   1.371   4.201   8.151  0.5469 -2.1085  1.3296
   76SLPC  C313 6910   1.325   3.997   8.128 -0.3570 -0.2015 -0.1286
   76SLPC  H13X 6911   1.258   3.929   8.071 -1.1644  0.5202 -0.0436
   76SLPC  H13Y 6912   1.266   3.993   8.222 -0.7880  1.7358 -0.2909
   76SLPC  C314 6913   1.466   3.949   8.164  0.3428 -0.2636 -0.0010
   76SLPC  H14X 6914   1.470   3.915   8.270 -1.0170  0.6462  0.3713
   76SLPC  H14Y 6915   1.542   4.029   8.166  1.5960 -1.4092 -0.3562
   76SLPC  C315 6916   1.513   3.834   8.074 -0.6300 -0.8192  0.2871
   76SLPC  H15X 6917   1.558   3.867   7.978 -0.4175 -0.9396  0.3459
   76SLPC  H15Y 6918   1.430   3.764   8.052 -0.5156 -0.6164 -0.8144
   76SLPC  C316 6919   1.631   3.760   8.146  1.6303  0.4031  1.1229
   76SLPC  H16X 6920   1.603   3.726   8.248  1.0318 -2.5112  0.0944
   76SLPC  H16Y 6921   1.706   3.841   8.156  1.2654  0.8716  0.2401
   76SLPC  C317 6922   1.702   3.653   8.073 -0.0521 -0.0057 -1.0426
   76SLPC  H17X 6923   1.633   3.581   8.022  1.6810 -1.1911 -1.8122
   76SLPC  H17Y 6924   1.758   3.599   8.152 -1.8988  0.3415  0.5891
   76SLPC  C318 6925   1.801   3.702   7.964 -0.4935 -0.0108  0.0406
   76SLPC  H18X 6926   1.871   3.780   8.001 -0.4456  0.5475 -1.1823
   76SLPC  H18Y 6927   1.742   3.749   7.882 -1.3576 -1.9831 -0.5370
   76SLPC  H18Z 6928   1.871   3.622   7.933 -1.3121 -1.1566  1.0143
   77SLPC     N 6929   4.562   5.463   6.419  0.2260 -0.2070 -0.6958
   77SLPC   C13 6930   4.662   5.529   6.493  0.5083 -0.1627  0.0074
   77SLPC  H13A 6931   4.630   5.603   6.565 -0.6712  0.6872 -1.3423
   77SLPC  H13B 6932   4.720   5.456   6.548 -0.3566 -0.7622  0.1456
   77SLPC  H13C 6933   4.728   5.580   6.425  0.4533  2.2416  1.6037
   77SLPC   C14 6934   4.628   5.378   6.316 -0.1480 -0.1202  0.1848
   77SLPC  H14A 6935   4.700   5.309   6.356  0.5229  0.4500 -0.0187
   77SLPC  H14B 6936   4.557   5.319   6.259  2.2041 -1.4245 -1.5382
   77SLPC  H14C 6937   4.680   5.438   6.242  0.1945 -0.4986  0.1167
   77SLPC   C15 6938   4.470   5.561   6.343 -0.5589  0.3075  0.3720
   77SLPC  H15A 6939   4.421   5.624   6.416 -1.1876 -0.1157  0.3222
   77SLPC  H15B 6940   4.513   5.632   6.274 -2.4295  1.9597  0.8155
   77SLPC  H15C 6941   4.404   5.499   6.284 -0.9188  0.9230  0.1161
   77SLPC   C12 6942   4.485   5.368   6.509  0.3003 -0.5691 -0.2852
   77SLPC  H12A 6943   4.429   5.294   6.454 -0.4305  0.2040 -0.6138
   77SLPC  H12B 6944   4.417   5.435   6.561  0.8541  0.4206 -0.8096
   77SLPC   C11 6945   4.567   5.279   6.611 -0.4324 -0.8577 -0.3483
   77SLPC  H11A 6946   4.501   5.215   6.674 -1.0533 -0.7033 -0.8292
   77SLPC  H11B 6947   4.614   5.349   6.684 -2.3401  2.0460 -1.7096
   77SLPC     P 6948   4.816   5.196   6.610 -0.3418  0.3451  0.2429
   77SLPC   O13 6949   4.901   5.106   6.528 -0.3452 -0.2020 -0.6592
   77SLPC   O14 6950   4.862   5.338   6.616  0.4552  0.7687  0.5764
   77SLPC   O12 6951   4.665   5.192   6.549 -0.0634 -0.5695 -0.3060
   77SLPC   O11 6952   4.804   5.128   6.748  0.3194  0.2992  0.7880
   77SLPC    C1 6953   4.763   4.995   6.765 -0.8509 -0.2623 -0.1364
   77SLPC    HA 6954   4.668   4.972   6.713 -1.2519  0.9934  0.0183
   77SLPC    HB 6955   4.840   4.923   6.728 -1.7392 -1.4239  0.2155
   77SLPC    C2 6956   4.740   4.970   6.915 -0.5546 -0.4142  0.1541
   77SLPC    HS 6957   4.806   5.038   6.972  1.1425 -0.7929 -1.2595
   77SLPC   O21 6958   4.766   4.838   6.957  0.1129  0.5918 -0.4538
   77SLPC   C21 6959   4.893   4.791   6.954 -0.2450 -0.6260  0.2112
   77SLPC   O22 6960   4.992   4.851   6.911 -0.6907  0.0778 -0.7787
   77SLPC   C22 6961   4.900   4.644   7.008  0.0203  0.7201  0.6562
   77SLPC   H2R 6962   4.807   4.624   7.065 -0.4436 -1.2112 -0.6725
   77SLPC   H2S 6963   4.899   4.570   6.925 -2.5479 -0.2964  1.5162
   77SLPC    C3 6964   4.589   4.999   6.965  0.2959  0.3959  0.0687
   77SLPC    HX 6965   4.517   4.937   6.907 -2.0513  3.6013 -0.7104
   77SLPC    HY 6966   4.578   5.105   6.933 -0.4878 -0.1391 -1.5509
   77SLPC   O31 6967   4.573   4.999   7.113  0.4847 -0.2804  0.6150
   77SLPC   C31 6968   4.458   4.949   7.154  0.1332 -0.0689  0.2384
   77SLPC   O32 6969   4.360   4.917   7.078 -0.5471  0.2057 -0.4543
   77SLPC   C32 6970   4.459   4.956   7.305 -0.2309 -0.5581 -0.2092
   77SLPC   H2X 6971   4.354   4.930   7.332 -1.2037  2.3408 -0.7775
   77SLPC   H2Y 6972   4.475   5.061   7.338 -0.3587 -0.8631  0.8694
   77SLPC   C23 6973   5.021   4.608   7.090  0.4562 -0.0393 -0.1150
   77SLPC   H3R 6974   5.118   4.636   7.042  1.5831 -0.1379  1.9827
   77SLPC   H3S 6975   5.028   4.498   7.100  0.5049  0.0691  1.2298
   77SLPC   C24 6976   5.017   4.682   7.225  0.7066  0.1930  0.1674
   77SLPC   H4R 6977   4.971   4.782   7.211  0.0450 -0.3933 -2.1907
   77SLPC   H4S 6978   5.123   4.701   7.255  0.0578  1.0192  2.1166
   77SLPC   C25 6979   4.932   4.615   7.338  0.0559  0.9048  0.1774
   77SLPC   H5R 6980   4.984   4.520   7.362  0.4773  1.1469  0.2308
   77SLPC   H5S 6981   4.825   4.608   7.306 -0.5236  0.4096  2.1234
   77SLPC   C26 6982   4.925   4.672   7.482  0.0658 -0.6049  0.6140
   77SLPC   H6R 6983   4.888   4.777   7.475 -0.5462 -0.8415  0.2663
   77SLPC   H6S 6984   5.031   4.677   7.515  0.1730  0.9025  0.1269
   77SLPC   C27 6985   4.846   4.583   7.583 -0.7077 -0.2711  0.5762
   77SLPC   H7R 6986   4.885   4.479   7.571 -0.3318 -0.0509 -0.1828
   77SLPC   H7S 6987   4.740   4.580   7.552 -0.3859 -0.4210 -0.5972
   77SLPC   C28 6988   4.848   4.635   7.731  0.2276  0.7769 -0.3212
   77SLPC   H8R 6989   4.785   4.564   7.789  2.0021 -0.6961 -0.1010
   77SLPC   H8S 6990   4.791   4.730   7.725 -0.5383  0.3771  0.4098
   77SLPC   C29 6991   4.971   4.653   7.809  0.2362  0.3068 -0.1039
   77SLPC   H9R 6992   5.052   4.711   7.762 -1.4398  2.6686 -0.2803
   77SLPC  C210 6993   4.998   4.598   7.923 -0.0089  0.2987 -0.3003
   77SLPC  H10R 6994   5.080   4.639   7.984 -2.0956  3.0021  0.9386
   77SLPC  C211 6995   4.912   4.500   8.003 -0.4790 -0.0428  0.9230
   77SLPC  H11R 6996   4.806   4.507   7.971  0.2746 -0.0266 -1.8395
   77SLPC  H11S 6997   4.912   4.516   8.113 -0.1500 -0.2661  0.9565
   77SLPC  C212 6998   4.968   4.364   7.980  0.1220 -0.1240 -1.1347
   77SLPC  H12R 6999   4.995   4.341   7.876  2.4403  0.3848 -0.6926
   77SLPC  C213 7000   4.979   4.264   8.073 -0.5400 -0.2907 -0.0655
   77SLPC  H13R 7001   5.022   4.168   8.042 -1.3542 -0.5806 -0.3295
   77SLPC  C214 7002   4.952   4.286   8.222  0.8509  0.4621 -0.0744
   77SLPC  H14R 7003   4.856   4.340   8.236  1.0774  0.9698 -0.4532
   77SLPC  H14S 7004   5.035   4.328   8.281  0.9770 -1.4342  1.1895
   77SLPC  C215 7005   4.915   4.154   8.293  0.4526  0.8025 -0.1529
   77SLPC  H15R 7006   4.855   4.077   8.240  0.3210  0.9001 -0.1447
   77SLPC  H15S 7007   4.855   4.185   8.381  0.6424  0.4934  0.0872
   77SLPC  C216 7008   5.044   4.074   8.338  1.1699 -0.8932 -0.5405
   77SLPC  H16R 7009   5.122   4.132   8.393  0.2129  0.8535 -0.9672
   77SLPC  H16S 7010   5.093   4.043   8.244  1.1628 -0.8953 -0.5441
   77SLPC  C217 7011   5.019   3.939   8.416 -0.0604  0.4936  0.6048
   77SLPC  H17R 7012   4.948   3.873   8.363  1.3840  0.2548 -1.1183
   77SLPC  H17S 7013   4.989   3.961   8.521 -0.7776  1.6544  0.1757
   77SLPC  C218 7014   5.151   3.862   8.432  0.2497  1.1098 -0.4238
   77SLPC  H18R 7015   5.184   3.811   8.339 -0.2648  1.1477 -0.6276
   77SLPC  H18S 7016   5.147   3.791   8.517  1.3846 -0.1136 -1.3519
   77SLPC  H18T 7017   5.231   3.933   8.461  3.3192 -2.2303 -0.0447
   77SLPC   C33 7018   4.567   4.869   7.373  0.1716 -0.5528  0.4215
   77SLPC   H3X 7019   4.662   4.879   7.316  1.6789 -2.2108  2.4582
   77SLPC   H3Y 7020   4.551   4.760   7.357  1.4092 -0.6086 -0.5989
   77SLPC   C34 7021   4.610   4.923   7.510 -0.2454 -0.9126 -0.2382
   77SLPC   H4X 7022   4.653   5.025   7.506  3.0660 -2.1188  0.9830
   77SLPC   H4Y 7023   4.693   4.856   7.541 -1.2173 -2.0201  0.0692
   77SLPC   C35 7024   4.500   4.934   7.617 -0.0986 -0.4745 -0.2660
   77SLPC   H5X 7025   4.451   4.837   7.639  0.3292 -1.0981 -1.9641
   77SLPC   H5Y 7026   4.419   5.007   7.595  1.7801  2.9068  2.8882
   77SLPC   C36 7027   4.548   4.997   7.751  0.3479 -0.4595  0.6899
   77SLPC   H6X 7028   4.598   5.095   7.738 -0.2792  0.0005  1.6058
   77SLPC   H6Y 7029   4.626   4.926   7.784  2.1046  0.4869 -1.2315
   77SLPC   C37 7030   4.425   5.026   7.841  0.1909 -0.3501  0.1783
   77SLPC   H7X 7031   4.363   4.935   7.854 -1.9527  0.8680 -0.9250
   77SLPC   H7Y 7032   4.347   5.094   7.801 -0.2406 -0.8215  0.2035
   77SLPC   C38 7033   4.472   5.076   7.977 -0.4133 -0.0790 -0.3928
   77SLPC   H8X 7034   4.499   5.184   7.973 -0.3607 -0.0809 -0.1325
   77SLPC   H8Y 7035   4.557   5.021   8.023 -1.1746  1.4825  3.2515
   77SLPC   C39 7036   4.368   5.071   8.089 -0.3111 -0.1549 -0.1807
   77SLPC   H9X 7037   4.332   4.967   8.101 -1.5821  0.3620  0.7555
   77SLPC   H9Y 7038   4.272   5.119   8.061 -0.3224 -0.1859 -0.1949
   77SLPC  C310 7039   4.415   5.135   8.227  0.0121  0.1784  0.0219
   77SLPC  H10X 7040   4.435   5.243   8.217 -0.7904  0.1999 -1.6728
   77SLPC  H10Y 7041   4.512   5.087   8.255  0.2131  0.5218 -0.0778
   77SLPC  C311 7042   4.307   5.108   8.339  0.0028 -0.2021 -0.3708
   77SLPC  H11X 7043   4.300   4.998   8.351  0.4637 -0.2155 -0.1667
   77SLPC  H11Y 7044   4.208   5.151   8.314 -0.0922 -0.6734 -0.8103
   77SLPC  C312 7045   4.357   5.187   8.466  0.8395  0.2868  0.0930
   77SLPC  H12X 7046   4.384   5.291   8.438  2.3383  0.1123  0.8121
   77SLPC  H12Y 7047   4.445   5.135   8.508  0.9960  0.6970  0.2828
   77SLPC  C313 7048   4.239   5.176   8.573 -0.0135 -0.0776 -0.1447
   77SLPC  H13X 7049   4.245   5.068   8.600  1.6410 -0.3804 -1.5228
   77SLPC  H13Y 7050   4.138   5.184   8.528  0.7259 -0.9626 -2.1202
   77SLPC  C314 7051   4.256   5.268   8.697  0.5629  0.8317  0.0796
   77SLPC  H14X 7052   4.170   5.244   8.763 -0.1410  0.7461 -0.8451
   77SLPC  H14Y 7053   4.223   5.373   8.677 -1.4418  0.5934  1.8378
   77SLPC  C315 7054   4.393   5.262   8.764  0.1681 -0.7378  0.7453
   77SLPC  H15X 7055   4.463   5.303   8.689 -1.2118  0.7442  0.2168
   77SLPC  H15Y 7056   4.428   5.158   8.781 -0.1058 -1.0733 -0.6111
   77SLPC  C316 7057   4.397   5.329   8.901  0.2808 -0.0915  0.3717
   77SLPC  H16X 7058   4.345   5.427   8.903 -1.0332 -0.6951  4.2001
   77SLPC  H16Y 7059   4.502   5.358   8.922  0.5967  1.1820 -2.5152
   77SLPC  C317 7060   4.350   5.247   9.024  0.3681 -0.2173 -0.1560
   77SLPC  H17X 7061   4.407   5.154   9.043 -0.1604 -0.1909  1.7682
   77SLPC  H17Y 7062   4.245   5.219   8.998 -0.1371 -0.5316  2.0367
   77SLPC  C318 7063   4.346   5.344   9.149 -0.2526  0.0243  0.0347
   77SLPC  H18X 7064   4.338   5.449   9.113  0.6544  0.3215  0.6799
   77SLPC  H18Y 7065   4.436   5.329   9.212 -0.6668 -0.6884  0.4685
   77SLPC  H18Z 7066   4.257   5.321   9.211  0.3762 -1.1058  0.5416
   78SLPC     N 7067   5.917   6.355   6.265  0.6848  0.4966  0.4082
   78SLPC   C13 7068   5.864   6.388   6.127  0.3799  0.0810 -0.3808
   78SLPC  H13A 7069   5.877   6.304   6.061  2.8252 -1.1225  1.4800
   78SLPC  H13B 7070   5.759   6.410   6.134  0.1943 -1.1604  1.2575
   78SLPC  H13C 7071   5.899   6.479   6.080  0.5988  0.2129  0.0328
   78SLPC   C14 7072   5.871   6.452   6.369  0.0327  0.2593 -0.9270
   78SLPC  H14A 7073   5.910   6.549   6.341  0.5536  0.5141  0.5867
   78SLPC  H14B 7074   5.763   6.462   6.371  0.0051  1.1708 -3.3922
   78SLPC  H14C 7075   5.913   6.423   6.464 -0.6927 -0.0856 -0.7020
   78SLPC   C15 7076   6.070   6.361   6.254  0.6417  0.5872 -0.3347
   78SLPC  H15A 7077   6.102   6.458   6.219 -0.6997  1.4773  0.8125
   78SLPC  H15B 7078   6.125   6.345   6.346  1.4254  1.4878 -0.6255
   78SLPC  H15C 7079   6.111   6.288   6.185  0.7933  0.7051 -0.3692
   78SLPC   C12 7080   5.862   6.219   6.303 -0.8903 -0.2376  0.0855
   78SLPC  H12A 7081   5.881   6.154   6.218 -0.9089 -0.3377  0.1591
   78SLPC  H12B 7082   5.757   6.227   6.326 -0.4586 -1.4764  2.8719
   78SLPC   C11 7083   5.916   6.152   6.430  0.1616 -0.6549  0.2655
   78SLPC  H11A 7084   5.893   6.219   6.515 -0.4653  0.2401 -0.5828
   78SLPC  H11B 7085   6.027   6.152   6.434  0.1351  0.2543  1.5005
   78SLPC     P 7086   5.929   5.900   6.396  0.2199 -0.2580  0.0387
   78SLPC   O13 7087   5.851   5.776   6.419  0.1546  0.1879  0.1253
   78SLPC   O14 7088   5.980   5.922   6.259  0.3761 -0.1023  0.0933
   78SLPC   O12 7089   5.851   6.026   6.450 -0.3016 -0.5202 -0.2909
   78SLPC   O11 7090   6.053   5.900   6.492  0.1755  0.7161 -0.1778
   78SLPC    C1 7091   6.021   5.890   6.634 -0.6050 -0.1834 -0.6546
   78SLPC    HA 7092   6.100   5.949   6.684  0.1391 -1.0248 -0.8254
   78SLPC    HB 7093   5.916   5.909   6.666 -0.3760  1.4911 -0.8342
   78SLPC    C2 7094   6.062   5.744   6.687  0.8948  0.3680  0.4525
   78SLPC    HS 7095   5.978   5.678   6.656  1.2402 -1.5811  3.2882
   78SLPC   O21 7096   6.076   5.740   6.828 -0.0677 -0.5051  0.1317
   78SLPC   C21 7097   5.976   5.759   6.902  0.4610 -0.3925 -0.6043
   78SLPC   O22 7098   5.862   5.766   6.865  0.0028 -0.0643 -1.0639
   78SLPC   C22 7099   6.035   5.756   7.042 -0.5029 -0.2776  0.3173
   78SLPC   H2R 7100   6.128   5.695   7.038 -0.1654  0.3048 -1.4123
   78SLPC   H2S 7101   6.059   5.861   7.068 -0.5610 -0.5926  1.7590
   78SLPC    C3 7102   6.190   5.701   6.626 -0.0632 -0.2231  0.6986
   78SLPC    HX 7103   6.265   5.780   6.648  0.9941 -0.7109 -0.9262
   78SLPC    HY 7104   6.176   5.694   6.516 -0.9760  1.3862  0.6832
   78SLPC   O31 7105   6.250   5.579   6.681 -0.3142 -0.4254 -0.0857
   78SLPC   C31 7106   6.200   5.462   6.631 -0.2940 -0.4140  0.0225
   78SLPC   O32 7107   6.109   5.451   6.553  0.2832 -0.0766  0.3283
   78SLPC   C32 7108   6.271   5.341   6.684 -0.7162 -0.2234 -0.3594
   78SLPC   H2X 7109   6.352   5.320   6.611  0.0643  1.9932 -0.2332
   78SLPC   H2Y 7110   6.197   5.259   6.678 -1.7400  0.7591 -2.5473
   78SLPC   C23 7111   5.938   5.703   7.156 -0.1401  0.5258 -0.4666
   78SLPC   H3R 7112   5.891   5.608   7.122 -0.7737  0.7086 -0.1115
   78SLPC   H3S 7113   5.858   5.778   7.167 -1.3124 -0.7247 -0.2100
   78SLPC   C24 7114   6.009   5.683   7.293 -0.1735 -0.5126 -0.0505
   78SLPC   H4R 7115   6.045   5.785   7.315  1.3994 -1.1389  0.4766
   78SLPC   H4S 7116   6.099   5.619   7.279 -0.0071 -1.0037  2.6845
   78SLPC   C25 7117   5.913   5.632   7.395  0.3011 -0.5740  0.9508
   78SLPC   H5R 7118   5.863   5.547   7.343  0.1157  1.5135 -2.6442
   78SLPC   H5S 7119   5.835   5.707   7.418 -1.9619 -2.5592  0.1168
   78SLPC   C26 7120   5.987   5.596   7.523  0.4171  0.1396 -0.3251
   78SLPC   H6R 7121   6.045   5.682   7.561 -0.7704  1.3547 -1.1578
   78SLPC   H6S 7122   6.055   5.512   7.497 -0.8292 -0.9362 -0.2448
   78SLPC   C27 7123   5.900   5.532   7.630  0.8755 -0.1640 -0.4086
   78SLPC   H7R 7124   5.974   5.477   7.691  0.2672  0.6530  1.1166
   78SLPC   H7S 7125   5.834   5.456   7.582  2.8955 -2.6830  0.5674
   78SLPC   C28 7126   5.814   5.629   7.710  0.1698 -0.4160  0.3388
   78SLPC   H8R 7127   5.742   5.663   7.633 -0.1785  0.1598  0.9145
   78SLPC   H8S 7128   5.872   5.718   7.742 -1.8161  1.0079  0.1455
   78SLPC   C29 7129   5.755   5.559   7.829 -1.0241 -0.0377 -0.0529
   78SLPC   H9R 7130   5.693   5.476   7.792 -1.3587  0.0756  0.2467
   78SLPC  C210 7131   5.775   5.575   7.959  0.2548  0.4914 -0.0427
   78SLPC  H10R 7132   5.719   5.521   8.036  1.5670  1.8630  1.9761
   78SLPC  C211 7133   5.862   5.677   8.030 -0.5272  0.3739  0.0006
   78SLPC  H11R 7134   5.880   5.763   7.963 -1.0377  2.1888  2.1037
   78SLPC  H11S 7135   5.957   5.623   8.051 -0.4203  0.1521 -1.0079
   78SLPC  C212 7136   5.778   5.727   8.144 -0.1298  0.1081 -0.2928
   78SLPC  H12R 7137   5.695   5.795   8.120 -0.8187 -0.6382 -0.0403
   78SLPC  C213 7138   5.792   5.696   8.272 -0.2423  0.0772  0.2347
   78SLPC  H13R 7139   5.727   5.741   8.347  0.3319  0.7061  0.3624
   78SLPC  C214 7140   5.882   5.590   8.322 -0.6404 -0.1394 -0.0260
   78SLPC  H14R 7141   5.985   5.621   8.296 -0.6412 -1.1422 -1.3311
   78SLPC  H14S 7142   5.859   5.490   8.277  2.0440 -1.2305  0.8264
   78SLPC  C215 7143   5.876   5.581   8.477 -0.1207 -0.4336  0.9841
   78SLPC  H15R 7144   5.775   5.551   8.514  0.3852 -1.3467  1.6891
   78SLPC  H15S 7145   5.892   5.682   8.519 -1.8730 -0.1208  0.9746
   78SLPC  C216 7146   5.975   5.480   8.535 -0.3578 -0.1435  0.5417
   78SLPC  H16R 7147   6.078   5.509   8.508 -0.8288  0.4572 -0.6881
   78SLPC  H16S 7148   5.950   5.382   8.490 -4.4522  1.5866 -1.5153
   78SLPC  C217 7149   5.987   5.475   8.684  0.7328 -0.0309 -0.3677
   78SLPC  H17R 7150   6.031   5.565   8.732  0.7148 -1.2832  2.1307
   78SLPC  H17S 7151   6.060   5.394   8.704  0.1135 -0.7722 -1.0126
   78SLPC  C218 7152   5.860   5.444   8.767 -0.3043 -0.1613 -0.3312
   78SLPC  H18R 7153   5.892   5.429   8.873  0.6531  0.0962 -0.5744
   78SLPC  H18S 7154   5.795   5.361   8.731 -0.9538  0.3291 -0.3044
   78SLPC  H18T 7155   5.799   5.537   8.766  0.1546  0.1434 -0.1213
   78SLPC   C33 7156   6.319   5.347   6.830  0.7970  0.8941 -0.1701
   78SLPC   H3X 7157   6.338   5.452   6.860  0.7838  0.7992  0.1665
   78SLPC   H3Y 7158   6.412   5.287   6.837 -0.6036 -1.2388  1.0838
   78SLPC   C34 7159   6.219   5.277   6.922  0.2359  0.6409  0.0765
   78SLPC   H4X 7160   6.215   5.168   6.903  1.5897  0.1071  2.4913
   78SLPC   H4Y 7161   6.117   5.319   6.905  0.1690  0.0066 -1.2062
   78SLPC   C35 7162   6.254   5.296   7.074  0.3572 -1.0781  0.5123
   78SLPC   H5X 7163   6.232   5.397   7.114 -1.5547 -0.8626 -0.9664
   78SLPC   H5Y 7164   6.364   5.279   7.079  0.8114  1.3627  0.0534
   78SLPC   C36 7165   6.203   5.190   7.168 -0.1072 -0.1959 -0.2968
   78SLPC   H6X 7166   6.266   5.100   7.152  0.7120  0.1715  0.7744
   78SLPC   H6Y 7167   6.095   5.164   7.157 -0.7454  1.4361  1.4956
   78SLPC   C37 7168   6.207   5.223   7.314 -0.0346 -0.0079 -0.1539
   78SLPC   H7X 7169   6.146   5.316   7.317  1.1439  0.8708 -1.6291
   78SLPC   H7Y 7170   6.311   5.250   7.344 -0.2717 -0.0443  0.7357
   78SLPC   C38 7171   6.161   5.116   7.418  0.7692  1.0296 -0.1944
   78SLPC   H8X 7172   6.236   5.034   7.423 -0.7036 -0.2937  0.9905
   78SLPC   H8Y 7173   6.065   5.072   7.384 -0.1349  0.5373  2.7451
   78SLPC   C39 7174   6.138   5.175   7.562  0.5219 -0.6846 -0.1664
   78SLPC   H9X 7175   6.061   5.112   7.610  0.8457 -0.1778  1.0552
   78SLPC   H9Y 7176   6.105   5.279   7.540 -0.6268 -0.5989  1.7882
   78SLPC  C310 7177   6.266   5.170   7.646 -0.2104 -0.1035 -0.3644
   78SLPC  H10X 7178   6.337   5.250   7.616  0.3008 -0.7639 -0.9162
   78SLPC  H10Y 7179   6.328   5.079   7.634 -1.3372 -0.9119 -0.2165
   78SLPC  C311 7180   6.241   5.194   7.798 -0.6102  0.0260 -0.5796
   78SLPC  H11X 7181   6.341   5.203   7.846 -1.0547  1.3815  0.1352
   78SLPC  H11Y 7182   6.189   5.103   7.836  2.0751 -1.4769 -0.2519
   78SLPC  C312 7183   6.159   5.319   7.834 -0.8484  0.0257  0.3917
   78SLPC  H12X 7184   6.050   5.321   7.816 -1.1703  1.0713  2.2252
   78SLPC  H12Y 7185   6.189   5.409   7.775 -2.4969 -0.3541 -1.1208
   78SLPC  C313 7186   6.175   5.358   7.989 -0.3722 -1.0912  0.4882
   78SLPC  H13X 7187   6.113   5.448   8.005 -1.7475 -2.0013  0.4337
   78SLPC  H13Y 7188   6.278   5.398   7.999 -1.4853  2.6988 -1.4459
   78SLPC  C314 7189   6.140   5.239   8.083  0.1551 -0.9272  0.3486
   78SLPC  H14X 7190   6.234   5.182   8.094  2.4979  2.0702 -2.1696
   78SLPC  H14Y 7191   6.072   5.170   8.030  0.3227  0.5333 -1.8967
   78SLPC  C315 7192   6.084   5.280   8.220  0.4774 -0.3637 -0.3622
   78SLPC  H15X 7193   6.005   5.352   8.189 -0.8551 -0.6507  2.1047
   78SLPC  H15Y 7194   6.159   5.335   8.281  0.7420  1.0108 -1.8639
   78SLPC  C316 7195   6.024   5.158   8.293  0.6309  0.4714  0.1054
   78SLPC  H16X 7196   5.994   5.198   8.392 -1.9539 -1.8741  0.3699
   78SLPC  H16Y 7197   6.101   5.083   8.320  0.9185  0.2639 -1.2032
   78SLPC  C317 7198   5.892   5.099   8.227 -0.3008 -0.3706 -0.3570
   78SLPC  H17X 7199   5.927   5.044   8.137  3.0561  0.4761  0.2615
   78SLPC  H17Y 7200   5.830   5.185   8.194  2.6652  1.7360 -0.9209
   78SLPC  C318 7201   5.803   5.008   8.325 -0.1846  0.4269 -0.9205
   78SLPC  H18X 7202   5.755   5.066   8.407  0.0400  2.6197 -2.2525
   78SLPC  H18Y 7203   5.862   4.928   8.375  0.4641  1.2791 -0.2927
   78SLPC  H18Z 7204   5.715   4.968   8.272  0.6465 -1.5167 -0.9081
   79SLPC     N 7205   3.627   0.425   6.179  0.2518 -0.0028  0.0524
   79SLPC   C13 7206   3.763   0.373   6.159  0.6374 -0.1271 -1.5615
   79SLPC  H13A 7207   3.802   0.401   6.063 -0.1196  0.9420 -1.5835
   79SLPC  H13B 7208   3.822   0.417   6.238 -2.9536 -1.5254  2.2948
   79SLPC  H13C 7209   3.759   0.265   6.168 -0.7540  0.0740  1.4652
   79SLPC   C14 7210   3.571   0.369   6.313  0.1854 -0.7162  0.0759
   79SLPC  H14A 7211   3.477   0.419   6.328  0.8011  0.1691  1.1282
   79SLPC  H14B 7212   3.545   0.265   6.310  0.6441 -0.8350  0.1527
   79SLPC  H14C 7213   3.636   0.382   6.398  1.2050  4.1323 -1.0998
   79SLPC   C15 7214   3.542   0.371   6.069 -0.0265  0.9384 -0.1307
   79SLPC  H15A 7215   3.547   0.264   6.061 -0.2633  0.7568  1.6334
   79SLPC  H15B 7216   3.437   0.388   6.088  0.1506 -0.8005  3.1709
   79SLPC  H15C 7217   3.579   0.417   5.979 -2.3123  3.4155  0.0504
   79SLPC   C12 7218   3.628   0.579   6.179  0.4367  0.4334  0.2001
   79SLPC  H12A 7219   3.531   0.625   6.177  0.6052  0.7678 -0.9701
   79SLPC  H12B 7220   3.680   0.616   6.092  0.7260 -1.8972 -0.7031
   79SLPC   C11 7221   3.712   0.650   6.286  0.2147 -0.1015 -0.2581
   79SLPC  H11A 7222   3.667   0.623   6.384 -0.3761 -0.7791 -0.7002
   79SLPC  H11B 7223   3.696   0.759   6.277  0.1477 -0.2353 -2.5602
   79SLPC     P 7224   3.940   0.595   6.407 -0.8364 -0.1635 -0.4706
   79SLPC   O13 7225   3.930   0.453   6.443 -0.0045 -1.1632 -0.3245
   79SLPC   O14 7226   4.075   0.652   6.379  0.1837 -0.1741  0.0390
   79SLPC   O12 7227   3.854   0.625   6.277 -0.1451 -0.4412  0.2248
   79SLPC   O11 7228   3.863   0.683   6.517 -0.6384  1.0784  0.1290
   79SLPC    C1 7229   3.868   0.828   6.507  0.0189 -0.0810  0.0769
   79SLPC    HA 7230   3.950   0.876   6.451 -0.1848 -0.6588 -0.7329
   79SLPC    HB 7231   3.778   0.873   6.462  0.2078 -1.1724 -1.4895
   79SLPC    C2 7232   3.858   0.892   6.657 -0.2594 -0.0051 -0.0999
   79SLPC    HS 7233   3.858   1.002   6.646  0.3971  0.2237  1.8092
   79SLPC   O21 7234   3.962   0.845   6.753  0.2564  0.3509 -0.0569
   79SLPC   C21 7235   4.068   0.924   6.729 -0.6913 -0.4657  0.5980
   79SLPC   O22 7236   4.070   1.030   6.665 -0.3301 -0.0835  0.0881
   79SLPC   C22 7237   4.191   0.877   6.804  0.0069 -0.0087  0.1967
   79SLPC   H2R 7238   4.244   0.794   6.753 -1.2369 -2.8453  3.1262
   79SLPC   H2S 7239   4.269   0.955   6.803  2.1938 -2.0319 -2.6178
   79SLPC    C3 7240   3.718   0.861   6.716  0.0481  0.3476  0.0529
   79SLPC    HX 7241   3.721   0.750   6.715 -0.4940  0.3345 -0.3753
   79SLPC    HY 7242   3.636   0.905   6.655 -0.2488 -1.1362 -0.6545
   79SLPC   O31 7243   3.706   0.928   6.845  0.1464 -0.5364  0.2909
   79SLPC   C31 7244   3.602   0.874   6.915 -0.6175 -0.6024 -0.0505
   79SLPC   O32 7245   3.514   0.820   6.859 -0.4623  0.0116 -0.2265
   79SLPC   C32 7246   3.647   0.868   7.062  0.2112  0.0285  0.8263
   79SLPC   H2X 7247   3.758   0.872   7.055  0.0983  2.2964 -0.9275
   79SLPC   H2Y 7248   3.613   0.772   7.105  0.5424 -0.4406  0.0570
   79SLPC   C23 7249   4.163   0.817   6.948  0.6233 -0.3730 -0.2110
   79SLPC   H3R 7250   4.231   0.744   6.996  0.8212  0.6067  1.0417
   79SLPC   H3S 7251   4.064   0.766   6.939 -0.1751  1.0563  0.1455
   79SLPC   C24 7252   4.133   0.935   7.046  0.4527  0.1578  0.8635
   79SLPC   H4R 7253   4.046   0.987   7.000 -0.9994 -2.9332 -0.1076
   79SLPC   H4S 7254   4.218   1.006   7.055 -0.4799  1.3948  0.2755
   79SLPC   C25 7255   4.100   0.884   7.187  0.1834 -0.3427  0.3054
   79SLPC   H5R 7256   4.185   0.824   7.226  1.3139  1.3501  0.5327
   79SLPC   H5S 7257   4.009   0.821   7.175  0.8727 -1.4695  0.7871
   79SLPC   C26 7258   4.073   1.000   7.288  0.6424  0.4892 -1.0581
   79SLPC   H6R 7259   3.997   1.069   7.245 -1.0269 -1.9886 -2.3324
   79SLPC   H6S 7260   4.163   1.065   7.296  0.7748  0.3894 -1.6656
   79SLPC   C27 7261   4.033   0.931   7.415 -0.1638 -0.9560  0.9839
   79SLPC   H7R 7262   3.977   0.847   7.369  1.0261 -0.9019 -0.6631
   79SLPC   H7S 7263   3.970   1.005   7.469 -0.2720 -0.0136 -0.3578
   79SLPC   C28 7264   4.149   0.888   7.503 -0.0170 -0.6538 -0.0797
   79SLPC   H8R 7265   4.190   0.983   7.541  0.3361 -0.6165 -0.5398
   79SLPC   H8S 7266   4.227   0.854   7.431 -1.3625  0.0518 -1.9512
   79SLPC   C29 7267   4.123   0.795   7.615 -0.3892 -1.4756  0.3300
   79SLPC   H9R 7268   4.141   0.689   7.595  0.3465 -1.3140  0.0877
   79SLPC  C210 7269   4.098   0.835   7.740  0.4765 -0.2807 -0.2375
   79SLPC  H10R 7270   4.080   0.755   7.814 -1.0426  0.7665  0.5835
   79SLPC  C211 7271   4.085   0.972   7.799 -0.5698  0.3702 -0.0437
   79SLPC  H11R 7272   4.054   1.034   7.713 -2.7085 -1.2678 -0.5375
   79SLPC  H11S 7273   4.192   0.994   7.820 -1.0473  1.6504  1.2117
   79SLPC  C212 7274   3.994   0.987   7.914  0.2441 -0.4044  0.1228
   79SLPC  H12R 7275   3.888   1.003   7.890 -0.3389  0.3746  2.8491
   79SLPC  C213 7276   4.034   1.013   8.044  0.7603 -0.5249  0.3793
   79SLPC  H13R 7277   3.953   1.036   8.115 -0.6942  1.3001 -1.7333
   79SLPC  C214 7278   4.173   1.033   8.100 -0.5298 -0.8919  0.1074
   79SLPC  H14R 7279   4.222   1.106   8.031 -1.3924 -0.5809 -0.1968
   79SLPC  H14S 7280   4.244   0.948   8.098 -1.3565 -1.6144  0.9500
   79SLPC  C215 7281   4.169   1.083   8.248  0.1959 -0.5557  0.0179
   79SLPC  H15R 7282   4.265   1.070   8.303  0.0770  0.2071  0.4262
   79SLPC  H15S 7283   4.088   1.022   8.293 -0.7615  1.7229  1.5882
   79SLPC  C216 7284   4.140   1.234   8.271  0.0286  0.8168  0.9333
   79SLPC  H16R 7285   4.039   1.255   8.231  0.2514  0.8867  0.4009
   79SLPC  H16S 7286   4.210   1.296   8.211  0.5422 -1.3933 -0.9214
   79SLPC  C217 7287   4.163   1.283   8.415  0.5338 -0.3088 -0.4180
   79SLPC  H17R 7288   4.264   1.250   8.448  1.4969  1.9278 -0.9358
   79SLPC  H17S 7289   4.103   1.230   8.491 -2.6862  1.4257 -1.5442
   79SLPC  C218 7290   4.155   1.434   8.429  0.3061 -0.2164  0.1130
   79SLPC  H18R 7291   4.232   1.479   8.362  1.6198 -1.0163  1.0392
   79SLPC  H18S 7292   4.168   1.460   8.536  0.6808 -3.0936  0.8276
   79SLPC  H18T 7293   4.058   1.480   8.398  1.2524  2.1154  0.3546
   79SLPC   C33 7294   3.589   0.989   7.144  0.1711  0.0720  0.7836
   79SLPC   H3X 7295   3.477   0.987   7.146  0.0968  1.9391  0.5958
   79SLPC   H3Y 7296   3.630   1.082   7.100  0.9181  0.1499  1.6260
   79SLPC   C34 7297   3.634   1.007   7.291 -0.1186  0.3559 -0.7059
   79SLPC   H4X 7298   3.588   1.095   7.339  2.0280 -0.0750  2.4481
   79SLPC   H4Y 7299   3.742   1.033   7.291  0.0566 -0.2776  0.5062
   79SLPC   C35 7300   3.597   0.897   7.388  0.5723  0.5503  0.3354
   79SLPC   H5X 7301   3.601   0.797   7.339 -1.6137  0.6526 -0.1327
   79SLPC   H5Y 7302   3.496   0.924   7.425  0.4213  1.4556 -0.7274
   79SLPC   C36 7303   3.683   0.898   7.512  0.6094  0.9519 -0.8141
   79SLPC   H6X 7304   3.685   1.000   7.556  2.0204  1.2038 -1.4137
   79SLPC   H6Y 7305   3.782   0.855   7.486  0.0028 -2.0712  1.3186
   79SLPC   C37 7306   3.636   0.799   7.618  0.1027 -0.2607  0.3250
   79SLPC   H7X 7307   3.655   0.697   7.576 -4.1671 -1.3373  0.5603
   79SLPC   H7Y 7308   3.527   0.801   7.640 -0.0083 -2.1689  0.1201
   79SLPC   C38 7309   3.709   0.818   7.757  0.2018  0.0538 -0.0179
   79SLPC   H8X 7310   3.694   0.917   7.805 -1.1351 -0.2971  0.3319
   79SLPC   H8Y 7311   3.813   0.799   7.724  1.0093  0.8169  1.9205
   79SLPC   C39 7312   3.665   0.713   7.860  0.2885 -0.0253  0.2268
   79SLPC   H9X 7313   3.699   0.611   7.832 -1.3327 -0.7036  0.6082
   79SLPC   H9Y 7314   3.555   0.725   7.868  0.3441  0.4205  0.3552
   79SLPC  C310 7315   3.718   0.735   8.001 -0.5872 -0.4701 -0.1293
   79SLPC  H10X 7316   3.688   0.831   8.049  1.5717 -1.2589  3.0989
   79SLPC  H10Y 7317   3.829   0.728   8.001 -0.6699 -2.7378 -1.4182
   79SLPC  C311 7318   3.672   0.613   8.090  0.6994 -0.4274  0.1397
   79SLPC  H11X 7319   3.713   0.525   8.035  1.7363 -0.7428  1.3516
   79SLPC  H11Y 7320   3.561   0.602   8.087  0.5454  0.8629  0.7504
   79SLPC  C312 7321   3.731   0.622   8.232 -0.7054  0.6413  0.7478
   79SLPC  H12X 7322   3.684   0.703   8.291 -0.5273  0.5249  1.0510
   79SLPC  H12Y 7323   3.837   0.651   8.218 -0.8647  1.0838  0.4525
   79SLPC  C313 7324   3.728   0.491   8.310  0.7071  0.7143  0.1944
   79SLPC  H13X 7325   3.791   0.421   8.251  0.5191  0.1768  0.6262
   79SLPC  H13Y 7326   3.626   0.451   8.295  0.0762  2.2875  0.0321
   79SLPC  C314 7327   3.777   0.498   8.456  0.7166  1.6457 -0.0800
   79SLPC  H14X 7328   3.732   0.573   8.525  0.0195 -1.7972  3.5580
   79SLPC  H14Y 7329   3.884   0.527   8.446  0.8722  0.4337 -2.8514
   79SLPC  C315 7330   3.746   0.363   8.526 -0.4832 -0.3627  0.4651
   79SLPC  H15X 7331   3.793   0.365   8.627 -2.9971 -1.4616  1.7218
   79SLPC  H15Y 7332   3.797   0.280   8.473 -0.0189 -1.9035  3.1530
   79SLPC  C316 7333   3.599   0.330   8.552  0.4278  0.0724 -0.1747
   79SLPC  H16X 7334   3.538   0.344   8.460 -2.0710 -1.3135  1.1602
   79SLPC  H16Y 7335   3.562   0.404   8.627  1.8340 -0.1695  0.8104
   79SLPC  C317 7336   3.581   0.194   8.613  0.5752  0.8004 -0.2714
   79SLPC  H17X 7337   3.651   0.195   8.699  0.8517  0.2710 -0.4882
   79SLPC  H17Y 7338   3.617   0.113   8.546 -1.1051  0.5077 -0.8804
   79SLPC  C318 7339   3.434   0.177   8.666  0.2965  0.1427  0.0550
   79SLPC  H18X 7340   3.365   0.134   8.590  0.9224 -1.6506  0.4566
   79SLPC  H18Y 7341   3.394   0.276   8.697 -4.5980 -1.0090 -1.6183
   79SLPC  H18Z 7342   3.423   0.119   8.760  3.4655 -0.7619 -0.0485
   80SLPC     N 7343   4.809   6.588   6.039 -0.6599 -0.1586  0.3945
   80SLPC   C13 7344   4.939   6.663   6.011 -0.1708  0.2248  0.2866
   80SLPC  H13A 7345   4.938   6.691   5.907  0.3177 -1.2408 -0.1490
   80SLPC  H13B 7346   4.951   6.747   6.078  0.6884 -0.0471  0.4813
   80SLPC  H13C 7347   5.019   6.596   6.040  0.2950 -0.4698 -2.3259
   80SLPC   C14 7348   4.822   6.453   5.984 -0.8460  0.6993 -0.9025
   80SLPC  H14A 7349   4.913   6.405   6.018 -1.3507  0.9938  0.9476
   80SLPC  H14B 7350   4.744   6.393   6.026  0.8943 -0.9731  0.0807
   80SLPC  H14C 7351   4.828   6.442   5.876 -2.5376 -0.7045 -0.8927
   80SLPC   C15 7352   4.686   6.654   5.981  0.3547  0.3114 -0.2144
   80SLPC  H15A 7353   4.670   6.752   6.025  1.2323  0.3981 -0.0650
   80SLPC  H15B 7354   4.698   6.666   5.875  0.3615 -1.5623 -0.4635
   80SLPC  H15C 7355   4.599   6.598   6.012  0.1264  0.3845 -0.7112
   80SLPC   C12 7356   4.802   6.592   6.193 -0.3148  0.0391  0.2177
   80SLPC  H12A 7357   4.823   6.694   6.219  2.5394 -0.6288  0.8913
   80SLPC  H12B 7358   4.885   6.539   6.237  0.1727  0.1895 -0.5064
   80SLPC   C11 7359   4.674   6.547   6.257  0.6422  0.3075  0.3414
   80SLPC  H11A 7360   4.583   6.610   6.242  0.4710  0.4559  1.8720
   80SLPC  H11B 7361   4.686   6.562   6.367 -0.0280 -2.0665  0.7958
   80SLPC     P 7362   4.675   6.289   6.309  0.0252  0.3504  0.2753
   80SLPC   O13 7363   4.586   6.174   6.261  0.7019 -0.3416 -0.0480
   80SLPC   O14 7364   4.821   6.266   6.306  0.9772 -0.6195 -0.4227
   80SLPC   O12 7365   4.643   6.411   6.221  0.4839 -0.1798 -0.3302
   80SLPC   O11 7366   4.625   6.331   6.449  0.4938 -0.0371 -0.1204
   80SLPC    C1 7367   4.489   6.372   6.481 -0.8480 -0.0112  0.5158
   80SLPC    HA 7368   4.498   6.474   6.526  1.1792  0.5227 -0.9710
   80SLPC    HB 7369   4.424   6.381   6.391  0.4914 -0.7848 -0.5774
   80SLPC    C2 7370   4.429   6.272   6.583 -0.0678  0.1964  0.0186
   80SLPC    HS 7371   4.328   6.315   6.600  0.1123  1.9804 -2.7305
   80SLPC   O21 7372   4.518   6.263   6.692 -0.4625  0.1494 -0.0115
   80SLPC   C21 7373   4.452   6.246   6.806 -0.7751  0.0493 -0.2098
   80SLPC   O22 7374   4.334   6.277   6.821  0.0106 -0.2077 -0.0081
   80SLPC   C22 7375   4.548   6.193   6.916 -0.0759  0.2462  0.0773
   80SLPC   H2R 7376   4.560   6.085   6.891 -2.7196  0.0131 -0.4905
   80SLPC   H2S 7377   4.640   6.255   6.915 -1.5198  2.6590 -3.7174
   80SLPC    C3 7378   4.409   6.130   6.520 -0.0793 -0.7370  0.2593
   80SLPC    HX 7379   4.503   6.077   6.546 -0.1718 -0.2815  1.6419
   80SLPC    HY 7380   4.398   6.126   6.410  3.6596 -0.6583 -0.2312
   80SLPC   O31 7381   4.304   6.058   6.587  0.5067  0.1889  0.4842
   80SLPC   C31 7382   4.172   6.079   6.553  0.1315 -0.1564  0.4288
   80SLPC   O32 7383   4.136   6.174   6.487 -0.4006  0.0597 -0.5189
   80SLPC   C32 7384   4.082   5.976   6.621  0.6050  0.1417 -0.0242
   80SLPC   H2X 7385   4.137   5.918   6.698  1.3746 -2.1731 -2.1670
   80SLPC   H2Y 7386   4.051   5.904   6.542  0.6271 -0.8786  0.8742
   80SLPC   C23 7387   4.494   6.183   7.057 -0.1792  0.5207  0.5685
   80SLPC   H3R 7388   4.401   6.123   7.053  0.4845 -0.4688 -0.4803
   80SLPC   H3S 7389   4.460   6.283   7.093 -0.3739  0.5607  0.2735
   80SLPC   C24 7390   4.587   6.106   7.151  0.3691 -0.5056 -0.1372
   80SLPC   H4R 7391   4.684   6.160   7.153  0.4874 -0.7059  1.9375
   80SLPC   H4S 7392   4.585   6.004   7.108 -2.8047  0.4381 -2.6196
   80SLPC   C25 7393   4.540   6.119   7.294  0.3888  0.0341 -0.7637
   80SLPC   H5R 7394   4.457   6.049   7.314 -0.0808  0.8869  0.3607
   80SLPC   H5S 7395   4.497   6.219   7.311 -2.2948 -1.1314 -0.2429
   80SLPC   C26 7396   4.650   6.100   7.390  0.0273 -0.0647 -0.6179
   80SLPC   H6R 7397   4.723   6.180   7.366  0.2591 -0.5004 -1.4227
   80SLPC   H6S 7398   4.693   5.998   7.377  1.0202  0.4641 -1.6833
   80SLPC   C27 7399   4.609   6.101   7.543 -0.3230 -0.4971  0.1782
   80SLPC   H7R 7400   4.573   6.002   7.580 -1.2686  0.4369  1.8505
   80SLPC   H7S 7401   4.518   6.164   7.544 -0.5763 -0.8082 -1.1959
   80SLPC   C28 7402   4.729   6.134   7.638 -0.0340 -0.2946  0.1750
   80SLPC   H8R 7403   4.697   6.172   7.738  0.2518  0.6259 -0.0767
   80SLPC   H8S 7404   4.778   6.226   7.601  1.7980 -1.4365 -0.3947
   80SLPC   C29 7405   4.829   6.022   7.648  0.0281 -0.2585  0.2837
   80SLPC   H9R 7406   4.867   5.992   7.550  0.7093  2.4691 -0.3679
   80SLPC  C210 7407   4.873   5.952   7.756  0.2543  0.5421  1.3255
   80SLPC  H10R 7408   4.937   5.867   7.728 -0.5243 -0.0445  1.2880
   80SLPC  C211 7409   4.819   5.973   7.895  0.2129 -0.3622 -0.2193
   80SLPC  H11R 7410   4.793   5.879   7.948  1.0961 -0.2729  0.3970
   80SLPC  H11S 7411   4.720   6.023   7.891 -0.3665 -1.4532  0.2395
   80SLPC  C212 7412   4.906   6.057   7.983 -0.2217 -0.4407 -0.1849
   80SLPC  H12R 7413   4.962   6.139   7.937 -1.1469  1.9208  2.6047
   80SLPC  C213 7414   4.926   6.057   8.114 -0.8665  0.0779 -0.7064
   80SLPC  H13R 7415   5.000   6.125   8.161 -0.6087  0.2901 -1.4044
   80SLPC  C214 7416   4.859   5.960   8.211 -0.1525 -0.1058 -0.1712
   80SLPC  H14R 7417   4.765   5.920   8.168 -0.7541  1.1083 -0.0205
   80SLPC  H14S 7418   4.814   6.010   8.299 -2.9091 -1.0350 -0.9705
   80SLPC  C215 7419   4.954   5.839   8.250 -0.2738 -0.2063 -0.5396
   80SLPC  H15R 7420   4.988   5.793   8.155  2.0807  1.2112 -0.4616
   80SLPC  H15S 7421   4.912   5.749   8.300 -0.7094 -0.3497 -1.1506
   80SLPC  C216 7422   5.083   5.885   8.330 -0.3981  0.8018  0.3388
   80SLPC  H16R 7423   5.059   5.948   8.418  0.7385 -0.2075  1.4115
   80SLPC  H16S 7424   5.153   5.931   8.258  1.0019 -2.8508 -0.8799
   80SLPC  C217 7425   5.161   5.766   8.390  0.0874  0.5081  0.0476
   80SLPC  H17R 7426   5.138   5.670   8.340  1.7638  1.4912 -2.8530
   80SLPC  H17S 7427   5.112   5.756   8.490  0.1723  1.5782  0.2168
   80SLPC  C218 7428   5.309   5.795   8.408  0.3979 -0.7753  0.4841
   80SLPC  H18R 7429   5.347   5.789   8.303 -1.4316  2.0741 -0.4690
   80SLPC  H18S 7430   5.351   5.719   8.477 -1.7205 -1.6966  0.8349
   80SLPC  H18T 7431   5.326   5.889   8.465  0.1275 -0.4913  0.1077
   80SLPC   C33 7432   3.960   6.051   6.683 -0.6281 -0.6619 -0.3772
   80SLPC   H3X 7433   3.885   5.977   6.717  0.2896 -1.1374  0.6929
   80SLPC   H3Y 7434   3.910   6.112   6.605 -0.0104 -0.6155 -0.7521
   80SLPC   C34 7435   4.005   6.141   6.791  0.1031 -0.4984 -0.2971
   80SLPC   H4X 7436   3.931   6.218   6.821 -1.6620 -2.1928 -0.0912
   80SLPC   H4Y 7437   4.089   6.208   6.763 -1.2519  0.5525 -2.0382
   80SLPC   C35 7438   4.022   6.061   6.933 -0.5824  0.3730  0.3110
   80SLPC   H5X 7439   4.096   5.983   6.904 -1.4886 -0.1490 -0.6386
   80SLPC   H5Y 7440   3.922   6.018   6.958 -0.9084  0.4520 -0.8212
   80SLPC   C36 7441   4.072   6.158   7.043  0.1051  0.2691  0.1255
   80SLPC   H6X 7442   3.991   6.233   7.041  0.9286  1.1958  0.8333
   80SLPC   H6Y 7443   4.168   6.201   7.007  0.1451 -1.6798 -2.3950
   80SLPC   C37 7444   4.095   6.096   7.186  0.5840 -0.2195 -0.5061
   80SLPC   H7X 7445   4.186   6.033   7.185 -0.1322 -1.2836 -0.0327
   80SLPC   H7Y 7446   4.014   6.027   7.217  1.2533 -0.3229  1.0706
   80SLPC   C38 7447   4.094   6.204   7.296  0.5428 -0.3361 -0.3928
   80SLPC   H8X 7448   3.997   6.259   7.301  0.3716 -0.7170  0.7859
   80SLPC   H8Y 7449   4.173   6.282   7.290 -0.5588  0.9086  0.6716
   80SLPC   C39 7450   4.124   6.139   7.433  0.0152 -0.0171 -0.4432
   80SLPC   H9X 7451   4.204   6.065   7.412 -2.1868 -1.6170 -4.1982
   80SLPC   H9Y 7452   4.032   6.087   7.467 -0.4672  1.0815 -0.0154
   80SLPC  C310 7453   4.153   6.243   7.533  0.1402  0.4713 -0.5798
   80SLPC  H10X 7454   4.065   6.311   7.534  0.3705  0.8507 -2.6527
   80SLPC  H10Y 7455   4.238   6.309   7.505  1.3394 -0.1511  1.3490
   80SLPC  C311 7456   4.170   6.180   7.672 -0.0789  0.7951  0.7067
   80SLPC  H11X 7457   4.198   6.073   7.660  1.5554  1.3281 -0.5569
   80SLPC  H11Y 7458   4.070   6.182   7.720  0.6400 -0.7779  2.3759
   80SLPC  C312 7459   4.281   6.246   7.751  0.6931 -0.1427 -0.1370
   80SLPC  H12X 7460   4.261   6.351   7.782 -0.2325  0.3854 -2.3754
   80SLPC  H12Y 7461   4.372   6.234   7.688 -0.1240 -0.4984 -1.2769
   80SLPC  C313 7462   4.313   6.173   7.881  0.2871 -0.6183 -1.0290
   80SLPC  H13X 7463   4.386   6.089   7.883  0.7213 -0.2657 -1.5253
   80SLPC  H13Y 7464   4.221   6.118   7.911 -0.1964  0.0550 -1.2598
   80SLPC  C314 7465   4.348   6.278   7.988  0.2180 -0.4663 -0.7547
   80SLPC  H14X 7466   4.253   6.333   8.007 -0.8259 -2.5803  0.5005
   80SLPC  H14Y 7467   4.422   6.344   7.938 -0.2617 -1.2338 -2.5586
   80SLPC  C315 7468   4.404   6.225   8.123 -0.2686 -0.7205 -0.0872
   80SLPC  H15X 7469   4.455   6.305   8.181  2.7018 -1.8201 -0.9696
   80SLPC  H15Y 7470   4.491   6.157   8.107 -0.0510 -0.5537  0.3648
   80SLPC  C316 7471   4.307   6.151   8.213  0.2112  0.6067 -0.2667
   80SLPC  H16X 7472   4.365   6.103   8.295  1.0436  1.2384 -0.4605
   80SLPC  H16Y 7473   4.253   6.077   8.150  2.1949 -0.7492 -0.4653
   80SLPC  C317 7474   4.210   6.239   8.296  0.2493 -0.2806  0.7226
   80SLPC  H17X 7475   4.131   6.286   8.233  1.1989  1.3920  0.7298
   80SLPC  H17Y 7476   4.268   6.324   8.336 -1.3189  1.3151 -0.2429
   80SLPC  C318 7477   4.139   6.164   8.409 -0.4345  0.0031  0.4536
   80SLPC  H18X 7478   4.068   6.236   8.455  0.3446  0.0653  1.6150
   80SLPC  H18Y 7479   4.210   6.133   8.489 -1.1856  0.4450  1.3191
   80SLPC  H18Z 7480   4.074   6.081   8.374 -0.1906  0.9241 -2.4265
   81SAPS     N 7481   6.206   4.987  11.052  0.2121  0.0274 -0.3326
   81SAPS   HN1 7482   6.237   4.944  10.963 -0.5129  0.6088 -0.8764
   81SAPS   HN2 7483   6.125   4.932  11.086 -0.8571  0.5070 -2.0257
   81SAPS   HN3 7484   6.163   5.079  11.029  0.1294  0.7464  2.3187
   81SAPS   C12 7485   6.315   5.007  11.149  0.0529 -0.5081  0.3958
   81SAPS  H12A 7486   6.267   4.999  11.245 -0.9789 -1.4755 -0.1748
   81SAPS   C13 7487   6.427   4.902  11.160 -0.4117  0.3698  0.5003
   81SAPS  O13A 7488   6.425   4.803  11.081  0.0948  0.2382 -0.0718
   81SAPS  O13B 7489   6.489   4.894  11.271 -0.1009 -0.4067  0.7528
   81SAPS   C11 7490   6.380   5.149  11.126  0.9648  0.4287 -0.0935
   81SAPS  H11A 7491   6.411   5.156  11.019  1.1885  0.1530 -0.0471
   81SAPS  H11B 7492   6.466   5.157  11.196 -0.6435 -0.1792  2.0721
   81SAPS     P 7493   6.197   5.321  11.048  0.0248 -0.2974 -0.2463
   81SAPS   O13 7494   6.103   5.223  11.004  0.1428 -0.0081  0.7256
   81SAPS   O14 7495   6.144   5.446  11.100 -0.6760  0.6050  0.0803
   81SAPS   O12 7496   6.296   5.262  11.156  0.5718  0.2486  0.1904
   81SAPS   O11 7497   6.293   5.354  10.926  0.1638  0.2724  0.1961
   81SAPS    C1 7498   6.385   5.470  10.926  0.4018 -0.3018  0.1662
   81SAPS    HA 7499   6.324   5.563  10.926 -0.3685 -0.7854  1.3165
   81SAPS    HB 7500   6.458   5.482  11.008 -0.0040 -0.8482  0.6151
   81SAPS    C2 7501   6.471   5.473  10.794  0.9446  0.4348  0.2375
   81SAPS    HS 7502   6.534   5.564  10.785 -0.1636  1.4169  1.9457
   81SAPS   O21 7503   6.387   5.471  10.675 -0.0586 -0.1151  0.0205
   81SAPS   C21 7504   6.307   5.574  10.645 -1.0645  0.8962 -0.6265
   81SAPS   O22 7505   6.301   5.671  10.714 -0.7140 -0.1570  0.1879
   81SAPS   C22 7506   6.252   5.553  10.500  0.2469  0.0187 -0.2174
   81SAPS   H2R 7507   6.182   5.467  10.503 -0.2144  0.3820  3.0263
   81SAPS   H2S 7508   6.197   5.648  10.485  0.3289  0.0101 -0.5755
   81SAPS    C3 7509   6.561   5.348  10.810  0.2650 -0.1259  0.2045
   81SAPS    HX 7510   6.483   5.269  10.816  1.1403 -0.9125  2.2305
   81SAPS    HY 7511   6.601   5.341  10.913  0.4517 -2.1336  0.0306
   81SAPS   O31 7512   6.649   5.336  10.694 -0.1288  0.1365  0.1373
   81SAPS   C31 7513   6.761   5.411  10.716  0.1852  0.0654 -0.2691
   81SAPS   O32 7514   6.783   5.482  10.813  0.6244 -0.6543 -0.3234
   81SAPS   C32 7515   6.867   5.392  10.615  0.4604 -0.2135 -0.3591
   81SAPS   H2X 7516   6.830   5.318  10.540 -2.1526  0.2321  0.4065
   81SAPS   H2Y 7517   6.952   5.347  10.672 -1.0689 -0.0667  2.1927
   81SAPS   C23 7518   6.354   5.519  10.390  0.0515 -0.1894 -0.1924
   81SAPS   H3R 7519   6.408   5.424  10.411  3.0762  1.6465  0.9544
   81SAPS   H3S 7520   6.427   5.602  10.381 -0.2994  0.2399  0.7624
   81SAPS   C24 7521   6.280   5.511  10.253  0.3699 -0.1154  0.5562
   81SAPS   H4R 7522   6.231   5.608  10.232 -0.4062 -0.6449 -0.1648
   81SAPS   H4S 7523   6.209   5.428  10.275  2.2637 -2.1552 -0.5837
   81SAPS   C25 7524   6.370   5.464  10.143  0.5037 -0.0540  0.3198
   81SAPS   H5R 7525   6.456   5.403  10.174 -0.1090 -1.3153 -0.3968
   81SAPS   C26 7526   6.350   5.486  10.008 -0.2514 -1.2293  0.0147
   81SAPS   H6R 7527   6.414   5.444   9.929 -2.2214 -3.5753 -0.4687
   81SAPS   C27 7528   6.227   5.554   9.943  0.5990 -0.2435  0.0530
   81SAPS   H7R 7529   6.253   5.656   9.910 -1.2208 -0.1812 -1.3855
   81SAPS   H7S 7530   6.150   5.573  10.022  1.3108  0.4102  0.6065
   81SAPS   C28 7531   6.155   5.496   9.821  0.9445 -0.0061  0.2147
   81SAPS   H8R 7532   6.088   5.411   9.842  0.6183  0.4240  0.9643
   81SAPS   C29 7533   6.171   5.511   9.688 -0.0623 -0.5404 -0.5158
   81SAPS   H9R 7534   6.106   5.447   9.628  0.6473 -3.6729  1.8039
   81SAPS  C210 7535   6.273   5.595   9.627  0.0861  1.1387 -0.1433
   81SAPS  H10R 7536   6.346   5.634   9.701 -2.0239 -1.1200  3.4400
   81SAPS  H10S 7537   6.227   5.686   9.585  1.4088  1.8628 -0.0890
   81SAPS  C211 7538   6.347   5.530   9.514 -0.3308 -0.5397 -0.1175
   81SAPS  H11R 7539   6.445   5.491   9.549  0.2336 -0.0030 -1.0624
   81SAPS  C212 7540   6.314   5.529   9.384  0.0572 -0.0431 -0.2551
   81SAPS  H12R 7541   6.372   5.467   9.315  0.0610 -0.8507  0.4568
   81SAPS  C213 7542   6.180   5.575   9.331  0.3090 -0.8162  0.3703
   81SAPS  H13R 7543   6.189   5.683   9.306 -1.7704 -0.7438 -0.2826
   81SAPS  H13S 7544   6.100   5.579   9.407  1.8883  1.8614  2.0466
   81SAPS  C214 7545   6.098   5.518   9.217 -0.4869  0.5102 -0.6092
   81SAPS  H14R 7546   6.003   5.470   9.245 -0.4933  0.5430 -0.5729
   81SAPS  C215 7547   6.141   5.511   9.091 -0.0899 -0.0986 -0.2143
   81SAPS  H15R 7548   6.073   5.464   9.019 -0.1044  1.4385 -1.2531
   81SAPS  C216 7549   6.276   5.539   9.032 -0.5423 -0.2567 -0.6212
   81SAPS  H16R 7550   6.336   5.577   9.118 -2.4818 -0.4688  0.8981
   81SAPS  H16S 7551   6.284   5.621   8.959  2.0351  0.4350  0.3433
   81SAPS  C217 7552   6.350   5.415   8.971  0.4199  0.0450  0.3539
   81SAPS  H17R 7553   6.301   5.394   8.874 -0.5762 -1.0627  1.0811
   81SAPS  H17S 7554   6.334   5.334   9.045  0.8874  1.5969  2.2697
   81SAPS  C218 7555   6.501   5.449   8.949 -0.2840  0.3140  0.5424
   81SAPS  H18R 7556   6.531   5.512   9.035 -0.2975  1.6862 -0.4176
   81SAPS  H18S 7557   6.510   5.517   8.861 -0.8899 -0.1717  0.1036
   81SAPS  C219 7558   6.596   5.332   8.932 -0.1547 -0.5210  0.1714
   81SAPS  H19R 7559   6.616   5.309   8.825 -0.9216  0.2866 -0.1557
   81SAPS  H19S 7560   6.548   5.244   8.980  1.8859 -1.1017  1.2494
   81SAPS  C220 7561   6.743   5.365   8.986  1.5072 -0.1604  0.2157
   81SAPS  H20R 7562   6.807   5.275   8.974  0.4127 -0.7248 -1.9176
   81SAPS  H20S 7563   6.745   5.417   9.084 -1.3731 -0.5086  0.5514
   81SAPS  H20T 7564   6.794   5.436   8.917  0.3504  0.7413  0.2640
   81SAPS   C33 7565   6.910   5.531  10.557  0.1332  0.1003  0.2056
   81SAPS   H3X 7566   7.013   5.508  10.521 -0.3892 -0.5150 -0.9613
   81SAPS   H3Y 7567   6.911   5.610  10.635  0.8090  1.2590 -0.9292
   81SAPS   C34 7568   6.829   5.578  10.437 -0.0232 -0.1619  0.3335
   81SAPS   H4X 7569   6.839   5.687  10.418 -0.9226 -0.4502 -2.0910
   81SAPS   H4Y 7570   6.723   5.564  10.465 -0.3197 -2.3552 -1.5547
   81SAPS   C35 7571   6.853   5.511  10.304  0.2107 -0.7725  0.2729
   81SAPS   H5X 7572   6.846   5.400  10.302 -0.0927 -0.7716  1.1446
   81SAPS   H5Y 7573   6.955   5.541  10.270 -0.9901  3.3677 -0.1902
   81SAPS   C36 7574   6.758   5.567  10.187  0.4702  0.3982 -0.3230
   81SAPS   H6X 7575   6.755   5.676  10.208  1.1702  0.1871  1.0134
   81SAPS   H6Y 7576   6.662   5.515  10.207  1.0606  0.4664  3.5904
   81SAPS   C37 7577   6.816   5.541  10.052  0.3328  0.4553 -0.0656
   81SAPS   H7X 7578   6.867   5.443  10.057  2.4621  1.5243  0.1215
   81SAPS   H7Y 7579   6.896   5.617  10.049 -0.2789  1.0951 -0.3774
   81SAPS   C38 7580   6.715   5.542   9.932  0.2069  0.4588  0.7710
   81SAPS   H8X 7581   6.641   5.624   9.944  1.2511  1.3210  1.3978
   81SAPS   H8Y 7582   6.645   5.456   9.938 -1.2261  1.6072  1.0456
   81SAPS   C39 7583   6.794   5.529   9.805 -0.5205 -0.2768  0.0710
   81SAPS   H9X 7584   6.858   5.438   9.803 -0.0833  0.0003  1.0664
   81SAPS   H9Y 7585   6.867   5.612   9.808  2.2981 -2.6157  0.6940
   81SAPS  C310 7586   6.721   5.530   9.671  0.5250  0.1619 -0.1910
   81SAPS  H10X 7587   6.636   5.602   9.677  1.3770  1.1616  0.1219
   81SAPS  H10Y 7588   6.656   5.441   9.662  1.4122 -0.3856 -1.3563
   81SAPS  C311 7589   6.799   5.569   9.549 -0.2894  0.0032 -0.0659
   81SAPS  H11X 7590   6.893   5.509   9.558  0.0548  0.6539  0.7996
   81SAPS  H11Y 7591   6.828   5.676   9.557  0.6378 -0.3299  1.6857
   81SAPS  C312 7592   6.737   5.545   9.416  0.0505  1.1092 -1.0143
   81SAPS  H12X 7593   6.817   5.566   9.342  0.4868  2.1723 -0.2654
   81SAPS  H12Y 7594   6.653   5.615   9.396 -0.1140  1.5619  0.9908
   81SAPS  C313 7595   6.682   5.398   9.389 -0.0960  0.3584  0.3581
   81SAPS  H13X 7596   6.650   5.393   9.283 -0.0789  3.7947  0.0697
   81SAPS  H13Y 7597   6.596   5.363   9.450  1.2598 -1.6492  1.2092
   81SAPS  C314 7598   6.792   5.297   9.412 -0.4471 -0.1176 -0.1147
   81SAPS  H14X 7599   6.810   5.297   9.521 -1.1692  0.3344  0.0129
   81SAPS  H14Y 7600   6.876   5.333   9.349 -1.0346  4.7515  1.4713
   81SAPS  C315 7601   6.749   5.158   9.374  0.0236 -0.0629  0.2922
   81SAPS  H15X 7602   6.647   5.138   9.411 -0.2394  1.3167  0.3878
   81SAPS  H15Y 7603   6.818   5.084   9.421  0.2239  0.3311  0.6259
   81SAPS  C316 7604   6.749   5.137   9.218 -0.4063  0.0098  0.4887
   81SAPS  H16X 7605   6.841   5.180   9.172 -0.9967 -0.4781 -1.2048
   81SAPS  H16Y 7606   6.651   5.181   9.191 -0.1745  0.7695  0.8490
   81SAPS  C317 7607   6.760   4.986   9.186  0.9301 -0.3863 -0.3536
   81SAPS  H17X 7608   6.679   4.932   9.239  0.3939  0.8676  0.1228
   81SAPS  H17Y 7609   6.855   4.955   9.236  1.0499 -0.8907 -0.8738
   81SAPS  C318 7610   6.776   4.948   9.046  0.5467 -0.0860 -0.1445
   81SAPS  H18X 7611   6.683   4.976   8.992 -0.5246  2.3470  2.6619
   81SAPS  H18Y 7612   6.799   4.840   9.039  1.9560  0.1940 -0.1558
   81SAPS  H18Z 7613   6.858   4.999   8.991 -0.2501 -0.6423 -1.9252
   82SAPS     N 7614   5.777   4.930  10.957  0.5121  0.1113  0.4483
   82SAPS   HN1 7615   5.873   4.964  10.935 -0.3485  1.8452 -0.9082
   82SAPS   HN2 7616   5.768   4.826  10.961  1.3545  0.0690  1.6317
   82SAPS   HN3 7617   5.719   4.970  10.880 -1.2416  0.6146  1.9778
   82SAPS   C12 7618   5.736   4.996  11.087  0.5926  0.2896  0.4767
   82SAPS  H12A 7619   5.645   4.950  11.122  1.1705 -2.3641 -1.2195
   82SAPS   C13 7620   5.857   4.986  11.189  0.6821 -0.0259  0.1528
   82SAPS  O13A 7621   5.971   4.943  11.149  0.8518 -0.1354  0.1621
   82SAPS  O13B 7622   5.838   5.024  11.305 -0.1831  0.3735 -0.4205
   82SAPS   C11 7623   5.716   5.151  11.056  0.4341 -0.1275  0.0462
   82SAPS  H11A 7624   5.811   5.198  11.022  1.7896 -2.0310  1.0203
   82SAPS  H11B 7625   5.689   5.191  11.156 -1.0492 -3.1176  0.9689
   82SAPS     P 7626   5.521   5.293  10.940 -0.0950  0.0093  0.4144
   82SAPS   O13 7627   5.433   5.259  10.826 -0.1599  0.5538 -0.1487
   82SAPS   O14 7628   5.450   5.334  11.063 -0.0701 -0.0852  0.1476
   82SAPS   O12 7629   5.607   5.164  10.965  0.1598 -0.1978 -0.0216
   82SAPS   O11 7630   5.620   5.404  10.896 -0.0751  0.7158 -0.1476
   82SAPS    C1 7631   5.726   5.367  10.808  0.2494 -0.5463  0.5010
   82SAPS    HA 7632   5.776   5.269  10.820 -2.0119 -2.1123 -1.7085
   82SAPS    HB 7633   5.691   5.359  10.703  0.9213  0.7980  0.1497
   82SAPS    C2 7634   5.837   5.471  10.795 -0.0889 -0.5739  0.3296
   82SAPS    HS 7635   5.883   5.487  10.894  0.8400 -2.1152  0.1719
   82SAPS   O21 7636   5.778   5.593  10.741 -0.0475 -1.1512 -0.0789
   82SAPS   C21 7637   5.847   5.700  10.748 -0.1381 -0.4968  0.1246
   82SAPS   O22 7638   5.953   5.711  10.811  0.1065 -0.5791  0.2908
   82SAPS   C22 7639   5.786   5.809  10.658 -0.5295  0.1831 -0.7530
   82SAPS   H2R 7640   5.761   5.756  10.564 -1.8247 -0.8791  0.1568
   82SAPS   H2S 7641   5.696   5.853  10.707  2.0011  1.1745  3.5978
   82SAPS    C3 7642   5.963   5.427  10.715 -0.0970  1.2737 -0.3658
   82SAPS    HX 7643   6.000   5.332  10.759 -1.3683  0.3617 -1.1921
   82SAPS    HY 7644   6.045   5.500  10.734  1.5528 -0.8668  1.3210
   82SAPS   O31 7645   5.945   5.422  10.569  0.4576  0.6827  0.3127
   82SAPS   C31 7646   5.904   5.305  10.520 -0.5099  0.4908  0.0453
   82SAPS   O32 7647   5.868   5.204  10.578 -0.1423  0.0251  0.2876
   82SAPS   C32 7648   5.911   5.307  10.365  0.3877  0.0133 -0.3363
   82SAPS   H2X 7649   5.839   5.229  10.332 -0.0347 -0.5864  1.8170
   82SAPS   H2Y 7650   6.010   5.275  10.326  0.0526  0.6129 -1.7386
   82SAPS   C23 7651   5.891   5.918  10.625 -0.2048 -0.3764 -0.0327
   82SAPS   H3R 7652   5.942   5.977  10.704  1.8047  2.4617 -3.1874
   82SAPS   H3S 7653   5.837   5.995  10.567 -2.5014 -1.0786  1.0689
   82SAPS   C24 7654   5.990   5.864  10.528  0.3718  0.1991  0.4543
   82SAPS   H4R 7655   5.937   5.827  10.437  0.2331  1.9973 -0.2271
   82SAPS   H4S 7656   6.038   5.776  10.577 -2.7194 -0.4145  2.7100
   82SAPS   C25 7657   6.098   5.968  10.487 -0.2355 -0.5354 -0.2747
   82SAPS   H5R 7658   6.185   5.980  10.553 -0.7647  1.5942  0.1244
   82SAPS   C26 7659   6.085   6.045  10.374 -0.8144 -0.1270 -0.4656
   82SAPS   H6R 7660   6.165   6.117  10.351 -0.5762 -0.5348 -0.9620
   82SAPS   C27 7661   5.982   6.034  10.260  0.1861 -0.3647 -0.1059
   82SAPS   H7R 7662   5.954   6.133  10.217 -2.7751 -0.4187  1.4760
   82SAPS   H7S 7663   5.891   5.999  10.313  0.6313  0.2741  1.1244
   82SAPS   C28 7664   6.014   5.938  10.156 -1.0441 -0.0246  0.5333
   82SAPS   H8R 7665   5.981   5.839  10.191 -1.5606 -0.2570 -0.5627
   82SAPS   C29 7666   6.079   5.947  10.038 -0.0502 -0.1518  0.3327
   82SAPS   H9R 7667   6.083   5.858   9.973 -0.5356  0.9704 -1.3041
   82SAPS  C210 7668   6.128   6.073   9.972  0.0439 -0.4176 -0.1051
   82SAPS  H10R 7669   6.239   6.067   9.960  0.3308  0.7111  1.7013
   82SAPS  H10S 7670   6.114   6.155  10.045 -0.9680 -0.6748 -0.0061
   82SAPS  C211 7671   6.059   6.116   9.845  0.9256 -0.2021  0.0971
   82SAPS  H11R 7672   5.977   6.187   9.863  0.9169 -0.4681  1.1976
   82SAPS  C212 7673   6.080   6.080   9.716  0.3490 -0.0623 -0.7899
   82SAPS  H12R 7674   6.013   6.112   9.634  0.8867 -2.8871 -2.4758
   82SAPS  C213 7675   6.191   5.993   9.671 -0.4035  0.5337 -0.9007
   82SAPS  H13R 7676   6.150   5.904   9.620 -1.3028  0.3076  0.2019
   82SAPS  H13S 7677   6.254   5.970   9.760 -1.3262  1.8985  0.1578
   82SAPS  C214 7678   6.279   6.074   9.579 -0.3315 -0.0545 -0.3198
   82SAPS  H14R 7679   6.325   6.157   9.634  0.3656 -0.7385  0.1534
   82SAPS  C215 7680   6.284   6.063   9.449 -0.1819  0.5930  0.2684
   82SAPS  H15R 7681   6.375   6.103   9.402  0.4556 -2.3974 -1.3533
   82SAPS  C216 7682   6.216   5.964   9.358 -0.1807 -0.3361  0.3498
   82SAPS  H16R 7683   6.124   5.923   9.404 -1.0663  1.1466 -0.0434
   82SAPS  H16S 7684   6.282   5.876   9.343  1.4712  1.1584 -1.8845
   82SAPS  C217 7685   6.188   6.008   9.207 -0.2440 -0.1726 -0.3267
   82SAPS  H17R 7686   6.131   6.103   9.196  0.6495  0.2926 -1.0487
   82SAPS  H17S 7687   6.119   5.932   9.165  0.4682 -1.5663  0.9550
   82SAPS  C218 7688   6.305   5.991   9.117  0.3717  0.2977 -0.1325
   82SAPS  H18R 7689   6.342   5.887   9.117  0.0390  0.0742 -3.6344
   82SAPS  H18S 7690   6.388   6.055   9.155 -0.8541  1.3496  0.8777
   82SAPS  C219 7691   6.263   6.032   8.971  0.2364 -0.1989  0.5034
   82SAPS  H19R 7692   6.221   6.135   8.975 -0.1932 -0.1617 -2.4099
   82SAPS  H19S 7693   6.180   5.966   8.938 -0.2486  0.9188 -0.5778
   82SAPS  C220 7694   6.375   6.006   8.866  0.3797 -0.4549  0.2921
   82SAPS  H20R 7695   6.325   6.052   8.778 -2.7708 -0.3891  1.9656
   82SAPS  H20S 7696   6.398   5.898   8.853 -2.2682 -1.2590  1.4198
   82SAPS  H20T 7697   6.466   6.063   8.893 -1.4770  2.5014  0.8813
   82SAPS   C33 7698   5.864   5.445  10.309  0.6912  0.2566 -0.2829
   82SAPS   H3X 7699   5.928   5.530  10.340  0.8795  0.0857 -0.1960
   82SAPS   H3Y 7700   5.763   5.459  10.354  0.3225  1.9978 -1.5735
   82SAPS   C34 7701   5.865   5.453  10.163 -0.1895  0.5127  0.2379
   82SAPS   H4X 7702   5.794   5.374  10.129 -0.6978 -0.1820  2.7402
   82SAPS   H4Y 7703   5.963   5.438  10.112  1.5308  1.5165  3.0186
   82SAPS   C35 7704   5.811   5.587  10.107  0.5529  0.1524 -0.2797
   82SAPS   H5X 7705   5.879   5.662  10.152 -0.3012  1.8606 -1.6918
   82SAPS   H5Y 7706   5.707   5.612  10.139  0.4924  1.0203 -1.0965
   82SAPS   C36 7707   5.807   5.603   9.955  0.1214 -0.4222  0.3390
   82SAPS   H6X 7708   5.742   5.521   9.916 -1.8148  0.8297  0.8146
   82SAPS   H6Y 7709   5.906   5.593   9.906 -1.0268  0.5432 -2.3512
   82SAPS   C37 7710   5.745   5.736   9.894 -0.0686  0.1377  0.2439
   82SAPS   H7X 7711   5.786   5.829   9.939 -0.1903  1.0405 -1.4580
   82SAPS   H7Y 7712   5.638   5.748   9.924  0.4084  2.6313  1.2076
   82SAPS   C38 7713   5.765   5.748   9.741  0.1562 -0.0004  0.6568
   82SAPS   H8X 7714   5.696   5.676   9.691  0.8275 -0.6656  0.6722
   82SAPS   H8Y 7715   5.865   5.715   9.707 -0.0637  1.2550 -1.3265
   82SAPS   C39 7716   5.729   5.891   9.698  0.0883 -0.2259  0.5634
   82SAPS   H9X 7717   5.796   5.962   9.751  1.7115 -2.5378  1.7748
   82SAPS   H9Y 7718   5.622   5.913   9.719  0.2543  1.0137  0.1770
   82SAPS  C310 7719   5.751   5.899   9.549 -0.1374  0.7002 -0.5115
   82SAPS  H10X 7720   5.703   5.819   9.487 -0.6793  1.3774 -0.9869
   82SAPS  H10Y 7721   5.861   5.893   9.535  0.2786  1.4889  1.9813
   82SAPS  C311 7722   5.721   6.034   9.476 -0.0681  1.1533  0.1982
   82SAPS  H11X 7723   5.792   6.055   9.393 -1.9467 -1.5262 -2.3006
   82SAPS  H11Y 7724   5.735   6.126   9.537 -1.3511  0.2642  1.9103
   82SAPS  C312 7725   5.586   6.040   9.410  0.3307  0.4259 -0.5713
   82SAPS  H12X 7726   5.502   6.033   9.483  1.4183 -0.6709  0.6340
   82SAPS  H12Y 7727   5.578   5.945   9.353  0.2708  0.1794 -0.1596
   82SAPS  C313 7728   5.557   6.152   9.310 -0.5875  0.1555 -0.0130
   82SAPS  H13X 7729   5.632   6.156   9.228  0.5047 -0.1736  0.9489
   82SAPS  H13Y 7730   5.552   6.250   9.363 -3.3351  1.2692 -2.0709
   82SAPS  C314 7731   5.426   6.131   9.238  0.4961 -0.3809  0.1756
   82SAPS  H14X 7732   5.340   6.145   9.308  0.3486 -0.2933 -0.0232
   82SAPS  H14Y 7733   5.421   6.023   9.211 -1.5527 -0.8989  2.2486
   82SAPS  C315 7734   5.409   6.221   9.115  0.7727  0.2482 -0.3028
   82SAPS  H15X 7735   5.313   6.201   9.065  1.1555  2.1394 -1.9379
   82SAPS  H15Y 7736   5.486   6.189   9.042  0.4880  0.9527 -0.9252
   82SAPS  C316 7737   5.425   6.370   9.153  0.0237 -0.9867  0.1754
   82SAPS  H16X 7738   5.416   6.428   9.059 -0.3440 -0.4243  0.5486
   82SAPS  H16Y 7739   5.523   6.396   9.200 -0.1343  4.2422 -1.7191
   82SAPS  C317 7740   5.315   6.408   9.252 -0.2643 -0.5433  0.2519
   82SAPS  H17X 7741   5.308   6.355   9.350  0.5855  2.3737  1.9978
   82SAPS  H17Y 7742   5.218   6.379   9.206 -0.0021  1.9605 -2.1100
   82SAPS  C318 7743   5.325   6.556   9.292 -0.5139  0.1006 -0.0640
   82SAPS  H18X 7744   5.431   6.587   9.304 -0.4839 -0.5880  1.9212
   82SAPS  H18Y 7745   5.283   6.555   9.395 -0.0496  0.5842  0.1380
   82SAPS  H18Z 7746   5.273   6.624   9.221 -1.7052 -0.6376  0.0814
   83SAPS     N 7747   6.520   6.402  11.550  0.2617  0.2657 -0.0897
   83SAPS   HN1 7748   6.545   6.451  11.462  0.4875  2.0209  0.8915
   83SAPS   HN2 7749   6.425   6.437  11.574  1.3351  2.3238  1.4818
   83SAPS   HN3 7750   6.579   6.439  11.627 -0.3157  0.5019  0.2451
   83SAPS   C12 7751   6.534   6.255  11.544 -0.4366  0.2386  0.5385
   83SAPS  H12A 7752   6.639   6.230  11.548 -0.7386 -2.3029 -2.8934
   83SAPS   C13 7753   6.478   6.180  11.671 -0.2999 -0.1407 -0.6266
   83SAPS  O13A 7754   6.421   6.250  11.757 -0.2711  0.2486  0.2295
   83SAPS  O13B 7755   6.525   6.068  11.697 -0.3202 -0.2307  0.7683
   83SAPS   C11 7756   6.471   6.192  11.414  0.0378  0.1981 -0.0022
   83SAPS  H11A 7757   6.367   6.231  11.414 -0.2764 -0.5508 -1.3959
   83SAPS  H11B 7758   6.479   6.081  11.418 -0.3659  0.2075  2.1379
   83SAPS     P 7759   6.472   6.238  11.159 -0.3814  0.0124  0.6827
   83SAPS   O13 7760   6.554   6.147  11.065  0.0917 -0.5496  0.6534
   83SAPS   O14 7761   6.330   6.205  11.176  0.3495  0.2398  0.0523
   83SAPS   O12 7762   6.542   6.227  11.296  0.2167 -0.3030  0.0626
   83SAPS   O11 7763   6.492   6.390  11.122  0.2495 -0.0633 -0.0746
   83SAPS    C1 7764   6.519   6.432  10.988  0.0457  0.5963  0.5160
   83SAPS    HA 7765   6.575   6.526  11.003  0.8683  0.4192 -1.2025
   83SAPS    HB 7766   6.596   6.370  10.937  1.1430  0.7586  1.9403
   83SAPS    C2 7767   6.387   6.462  10.902  0.7293  0.5372  0.4969
   83SAPS    HS 7768   6.323   6.534  10.958 -0.5246  0.1099 -0.3467
   83SAPS   O21 7769   6.320   6.334  10.881  0.2917  0.4988 -0.0199
   83SAPS   C21 7770   6.195   6.331  10.937 -0.1243 -0.6414  0.1533
   83SAPS   O22 7771   6.151   6.419  11.009 -0.1660 -0.2225  0.0859
   83SAPS   C22 7772   6.120   6.205  10.903 -0.6598 -0.2225  0.1293
   83SAPS   H2R 7773   6.198   6.131  10.876  0.0137  1.1605 -1.9543
   83SAPS   H2S 7774   6.071   6.171  10.997 -0.9594  1.0134  0.4409
   83SAPS    C3 7775   6.402   6.532  10.767  0.1718  0.4027 -0.0505
   83SAPS    HX 7776   6.425   6.635  10.801 -0.4802  0.4117  0.3789
   83SAPS    HY 7777   6.302   6.525  10.720 -0.2055  0.6978  0.6919
   83SAPS   O31 7778   6.502   6.480  10.681  0.0191  0.3470  0.6971
   83SAPS   C31 7779   6.594   6.557  10.625  0.3612 -0.5889  0.0963
   83SAPS   O32 7780   6.607   6.680  10.631  0.0384 -0.2892 -0.1250
   83SAPS   C32 7781   6.697   6.462  10.561 -0.4991  0.3771  0.7105
   83SAPS   H2X 7782   6.659   6.358  10.554 -2.2001  1.0285 -0.3698
   83SAPS   H2Y 7783   6.786   6.462  10.628 -0.0653  1.1793  0.1506
   83SAPS   C23 7784   6.004   6.241  10.800  0.2372  0.3044 -0.1355
   83SAPS   H3R 7785   5.953   6.331  10.840 -0.5599  0.4089 -1.3549
   83SAPS   H3S 7786   5.934   6.155  10.798  0.7921 -0.1616  0.1103
   83SAPS   C24 7787   6.054   6.279  10.667  0.9569  0.3414  0.7963
   83SAPS   H4R 7788   6.105   6.188  10.628 -2.5712 -1.4320 -0.1068
   83SAPS   H4S 7789   6.114   6.372  10.673  0.9547  0.2398  3.0522
   83SAPS   C25 7790   5.929   6.298  10.579 -0.1942 -0.2214 -0.3644
   83SAPS   H5R 7791   5.842   6.243  10.617  0.6885 -1.2965  0.1558
   83SAPS   C26 7792   5.916   6.389  10.480 -0.3325 -0.0565 -0.3788
   83SAPS   H6R 7793   5.824   6.402  10.422 -2.3987  0.5649  2.7939
   83SAPS   C27 7794   6.025   6.492  10.438 -0.1911  0.1776 -0.0502
   83SAPS   H7R 7795   6.000   6.536  10.338  2.4848 -1.8009 -1.7249
   83SAPS   H7S 7796   6.120   6.436  10.428  0.2236  0.7245  0.6840
   83SAPS   C28 7797   6.044   6.609  10.535 -0.3409  0.0088 -0.2132
   83SAPS   H8R 7798   5.974   6.612  10.620  0.8101 -2.7829  0.9246
   83SAPS   C29 7799   6.155   6.689  10.530  0.2477  0.8641 -0.1395
   83SAPS   H9R 7800   6.169   6.748  10.621 -6.3422  1.7896  0.7618
   83SAPS  C210 7801   6.268   6.671  10.435  0.2486  0.1778  0.4684
   83SAPS  H10R 7802   6.235   6.620  10.342 -1.5579 -1.2193  1.7930
   83SAPS  H10S 7803   6.334   6.604  10.494 -0.2194 -0.4313  0.3101
   83SAPS  C211 7804   6.346   6.796  10.405  0.2073  0.6628  0.2886
   83SAPS  H11R 7805   6.357   6.869  10.487 -0.7974  1.7279 -0.4860
   83SAPS  C212 7806   6.411   6.831  10.289  0.3468 -0.5879 -0.4175
   83SAPS  H12R 7807   6.449   6.932  10.270 -0.5830 -0.4239 -1.5751
   83SAPS  C213 7808   6.417   6.746  10.161  0.1075  0.6500 -0.8761
   83SAPS  H13R 7809   6.371   6.806  10.079  0.9267 -0.0618 -1.8684
   83SAPS  H13S 7810   6.344   6.662  10.157 -1.2113  1.5079  2.1695
   83SAPS  C214 7811   6.558   6.710  10.122 -0.4076 -0.0646 -0.0764
   83SAPS  H14R 7812   6.629   6.715  10.205 -0.3242  0.4178 -0.1775
   83SAPS  C215 7813   6.607   6.682  10.000  0.0840  0.0476  0.5340
   83SAPS  H15R 7814   6.716   6.667  10.001  0.1566  0.1447 -1.4774
   83SAPS  C216 7815   6.547   6.673   9.866  0.1521 -0.5014 -1.0309
   83SAPS  H16R 7816   6.440   6.699   9.872  0.3343  0.2961 -1.2004
   83SAPS  H16S 7817   6.568   6.579   9.810  0.2532 -0.6424 -0.7589
   83SAPS  C217 7818   6.622   6.782   9.778  0.3052 -0.0805 -0.1791
   83SAPS  H17R 7819   6.730   6.779   9.801 -0.2150  0.6758  2.7291
   83SAPS  H17S 7820   6.589   6.880   9.819  1.4046 -0.1030  0.7818
   83SAPS  C218 7821   6.585   6.775   9.628  0.7363  0.2355  0.2637
   83SAPS  H18R 7822   6.483   6.819   9.618 -0.0305 -1.9073 -2.9762
   83SAPS  H18S 7823   6.593   6.671   9.589 -1.5390  0.0474  0.1466
   83SAPS  C219 7824   6.663   6.864   9.536 -0.1007 -0.3111  0.0882
   83SAPS  H19R 7825   6.768   6.827   9.535 -0.0521 -0.7064  3.9177
   83SAPS  H19S 7826   6.672   6.969   9.571 -0.9527 -0.8409  2.0679
   83SAPS  C220 7827   6.616   6.858   9.393 -0.0997  0.0063 -0.2941
   83SAPS  H20R 7828   6.539   6.937   9.380 -3.8190 -3.1624  0.4617
   83SAPS  H20S 7829   6.568   6.760   9.372 -1.0741  0.7054 -1.4885
   83SAPS  H20T 7830   6.693   6.871   9.314 -0.8439  3.2352 -0.6012
   83SAPS   C33 7831   6.733   6.498  10.417 -0.4636 -0.4287 -0.0529
   83SAPS   H3X 7832   6.723   6.605  10.390  4.1793  0.0385 -0.6470
   83SAPS   H3Y 7833   6.675   6.430  10.351 -0.1429 -1.3882  0.6350
   83SAPS   C34 7834   6.884   6.477  10.377 -0.6428 -0.0804  0.1304
   83SAPS   H4X 7835   6.920   6.376  10.407 -0.2171  0.8175  2.9649
   83SAPS   H4Y 7836   6.933   6.556  10.437 -2.2373  0.6846  0.4672
   83SAPS   C35 7837   6.896   6.501  10.228 -0.6840 -0.0341 -0.1745
   83SAPS   H5X 7838   6.872   6.608  10.208 -1.7285 -0.1414  0.4477
   83SAPS   H5Y 7839   6.821   6.443  10.170 -3.0348  1.5160  1.1467
   83SAPS   C36 7840   7.045   6.474  10.175  0.3999 -0.3047 -0.5551
   83SAPS   H6X 7841   7.064   6.364  10.180 -0.1829 -0.3533  1.2068
   83SAPS   H6Y 7842   7.123   6.498  10.251 -1.2424  1.7341  0.5803
   83SAPS   C37 7843   7.066   6.525  10.034 -0.7046  0.0848 -0.2626
   83SAPS   H7X 7844   7.173   6.501  10.013 -0.1643  2.0952 -0.0305
   83SAPS   H7Y 7845   7.072   6.636  10.026 -0.4088  0.1174  0.3311
   83SAPS   C38 7846   6.974   6.470   9.918 -0.2055  0.6015 -0.2689
   83SAPS   H8X 7847   6.867   6.486   9.942 -0.8647 -2.1259 -1.0552
   83SAPS   H8Y 7848   6.988   6.360   9.913 -2.0222  0.1154  2.8609
   83SAPS   C39 7849   6.996   6.522   9.777  0.5200  0.1521 -0.1485
   83SAPS   H9X 7850   7.099   6.506   9.739  0.5359  0.1685 -0.1123
   83SAPS   H9Y 7851   6.978   6.632   9.777 -1.7868 -0.1670  1.1788
   83SAPS  C310 7852   6.899   6.457   9.674 -0.3798 -0.0715 -0.5245
   83SAPS  H10X 7853   6.792   6.469   9.700  0.1055 -0.1365  1.8144
   83SAPS  H10Y 7854   6.935   6.352   9.670 -1.2379 -0.3437 -1.3123
   83SAPS  C311 7855   6.921   6.525   9.536  0.2386  0.4648  0.1569
   83SAPS  H11X 7856   7.025   6.520   9.496 -0.4007 -0.6986 -1.4998
   83SAPS  H11Y 7857   6.897   6.633   9.549  0.1282  0.3054  1.3632
   83SAPS  C312 7858   6.840   6.460   9.425 -0.7790 -0.1252 -0.3164
   83SAPS  H12X 7859   6.746   6.430   9.475 -0.3235  1.5216  1.7053
   83SAPS  H12Y 7860   6.886   6.365   9.390 -1.2610 -0.0888 -1.0522
   83SAPS  C313 7861   6.808   6.549   9.312  0.0041 -0.3944  0.2196
   83SAPS  H13X 7862   6.891   6.606   9.264  0.3669  0.0903  1.3891
   83SAPS  H13Y 7863   6.742   6.631   9.349 -0.5911  0.0628 -1.7181
   83SAPS  C314 7864   6.723   6.481   9.198 -0.3929 -0.0578 -0.2260
   83SAPS  H14X 7865   6.623   6.450   9.237 -0.2271 -0.5933 -0.2220
   83SAPS  H14Y 7866   6.781   6.389   9.180  0.5919  0.8291 -1.8050
   83SAPS  C315 7867   6.720   6.561   9.071 -0.5331  0.5733  0.3822
   83SAPS  H15X 7868   6.819   6.598   9.036 -0.6070 -0.8733 -1.5668
   83SAPS  H15Y 7869   6.651   6.646   9.091 -2.4053 -0.8900  0.4270
   83SAPS  C316 7870   6.680   6.466   8.958  0.1249 -0.4287  0.7021
   83SAPS  H16X 7871   6.592   6.405   8.988 -1.4890  1.2687 -0.2817
   83SAPS  H16Y 7872   6.756   6.386   8.950 -0.2020 -1.1653  3.6975
   83SAPS  C317 7873   6.647   6.527   8.817  0.1529  0.1929 -0.0701
   83SAPS  H17X 7874   6.742   6.574   8.786  1.0538 -3.1224 -2.8874
   83SAPS  H17Y 7875   6.569   6.607   8.818  0.6665  0.6993  0.9384
   83SAPS  C318 7876   6.626   6.419   8.710  0.5832 -0.2142  0.3457
   83SAPS  H18X 7877   6.652   6.461   8.610  1.9593 -1.0110  0.3380
   83SAPS  H18Y 7878   6.521   6.386   8.699  0.4488  0.4361 -0.4652
   83SAPS  H18Z 7879   6.692   6.331   8.727 -1.9853 -2.0314  1.4574
   84SAPS     N 7880   1.183   0.079  11.001  0.2762  0.1485 -0.3575
   84SAPS   HN1 7881   1.225  -0.008  11.040  0.5290  0.0812 -0.7730
   84SAPS   HN2 7882   1.126   0.054  10.918  2.9517  0.2514 -2.3530
   84SAPS   HN3 7883   1.250   0.154  10.975 -2.6519  2.8737 -0.6087
   84SAPS   C12 7884   1.091   0.139  11.106  1.0945 -0.0107 -0.3597
   84SAPS  H12A 7885   1.029   0.213  11.060 -3.4649 -3.0988  0.1708
   84SAPS   C13 7886   0.985   0.035  11.165 -0.1789  0.0730 -0.1527
   84SAPS  O13A 7887   0.947  -0.054  11.089 -0.2345  0.3423 -0.4342
   84SAPS  O13B 7888   0.916   0.057  11.270 -0.1180  0.2678  0.2262
   84SAPS   C11 7889   1.184   0.202  11.218  0.1743  0.7239  0.2299
   84SAPS  H11A 7890   1.265   0.130  11.245  0.2657  0.9503  0.5604
   84SAPS  H11B 7891   1.134   0.220  11.315  0.4379  2.3885  0.0893
   84SAPS     P 7892   1.164   0.452  11.155  0.1275 -0.0303 -0.3658
   84SAPS   O13 7893   1.027   0.441  11.214  0.0690 -0.5031 -0.0258
   84SAPS   O14 7894   1.248   0.570  11.201 -0.1085  0.4665  0.7728
   84SAPS   O12 7895   1.243   0.324  11.181 -0.0995  0.0184 -0.0111
   84SAPS   O11 7896   1.146   0.457  11.000 -0.2531 -0.1983 -0.0525
   84SAPS    C1 7897   1.150   0.565  10.904 -0.1985 -0.2532 -0.7373
   84SAPS    HA 7898   1.122   0.661  10.953  1.1568 -1.7244  3.3485
   84SAPS    HB 7899   1.257   0.572  10.876 -0.1186  0.5447 -0.2792
   84SAPS    C2 7900   1.056   0.547  10.785 -0.8567  0.3093  0.3835
   84SAPS    HS 7901   0.953   0.524  10.821 -0.9853 -0.2866 -0.3290
   84SAPS   O21 7902   1.114   0.442  10.701  0.0163  0.2521 -0.7765
   84SAPS   C21 7903   1.076   0.322  10.736 -0.0881  0.4586 -0.1063
   84SAPS   O22 7904   1.021   0.284  10.837  0.2511 -0.8976  0.3691
   84SAPS   C22 7905   1.117   0.229  10.615 -0.3595 -0.0421  0.1492
   84SAPS   H2R 7906   1.214   0.265  10.574  0.3131 -0.4618  1.2937
   84SAPS   H2S 7907   1.161   0.138  10.663 -0.2738 -0.4352 -0.6561
   84SAPS    C3 7908   1.047   0.673  10.695 -0.3794 -0.0811 -0.0402
   84SAPS    HX 7909   1.153   0.696  10.668 -1.3559  2.9873 -1.8525
   84SAPS    HY 7910   1.001   0.750  10.760 -2.5570 -1.1842 -0.2008
   84SAPS   O31 7911   0.977   0.661  10.570  0.4615 -0.1025 -0.0876
   84SAPS   C31 7912   0.977   0.776  10.494 -0.0983 -0.8651 -0.7633
   84SAPS   O32 7913   1.030   0.879  10.531 -0.0791  0.8048 -0.2192
   84SAPS   C32 7914   0.890   0.771  10.370  0.3603  0.6923 -0.2780
   84SAPS   H2X 7915   0.790   0.811  10.399 -0.4988 -1.2164 -0.4818
   84SAPS   H2Y 7916   0.868   0.665  10.345 -2.4474  0.6045  2.0415
   84SAPS   C23 7917   1.006   0.187  10.513  0.9261  0.7512 -0.8231
   84SAPS   H3R 7918   0.995   0.276  10.447 -0.4088  3.1761  2.4240
   84SAPS   H3S 7919   0.914   0.152  10.564  2.4732 -0.4957  1.2465
   84SAPS   C24 7920   1.041   0.062  10.438 -0.0686 -0.2338  0.4420
   84SAPS   H4R 7921   0.954   0.016  10.388  0.7582 -1.5305  0.1468
   84SAPS   H4S 7922   1.072  -0.016  10.511 -1.5255 -0.8053  0.4814
   84SAPS   C25 7923   1.150   0.098  10.336  0.5465 -0.2175  0.2284
   84SAPS   H5R 7924   1.247   0.128  10.378  0.5075 -0.7516  0.7089
   84SAPS   C26 7925   1.127   0.110  10.203 -0.2638  0.1713 -0.1248
   84SAPS   H6R 7926   1.209   0.128  10.131  0.4331 -0.0299  0.6098
   84SAPS   C27 7927   1.005   0.081  10.119 -0.2082 -0.3524  0.2355
   84SAPS   H7R 7928   0.920   0.129  10.172  1.2602  0.1471  2.2364
   84SAPS   H7S 7929   0.981  -0.027  10.102 -1.5121  0.1218 -1.2262
   84SAPS   C28 7930   1.025   0.130   9.974  0.2204  0.4762 -1.1360
   84SAPS   H8R 7931   1.085   0.064   9.910  1.0772 -0.7724  0.8582
   84SAPS   C29 7932   0.970   0.230   9.911 -0.2897  0.2245  0.2939
   84SAPS   H9R 7933   1.007   0.253   9.810 -2.0875 -0.7196 -0.6306
   84SAPS  C210 7934   0.880   0.332   9.972  0.4569  0.3909  0.0489
   84SAPS  H10R 7935   0.945   0.417  10.001  0.1060  0.6993 -0.0628
   84SAPS  H10S 7936   0.824   0.304  10.064  0.1600  0.7422 -0.0262
   84SAPS  C211 7937   0.777   0.395   9.877 -0.0820 -0.7375 -0.6908
   84SAPS  H11R 7938   0.674   0.380   9.911  0.3266  0.8474  1.4855
   84SAPS  C212 7939   0.804   0.482   9.783  0.7367 -0.0848  0.1805
   84SAPS  H12R 7940   0.720   0.528   9.728  2.0988  1.9043 -0.3517
   84SAPS  C213 7941   0.946   0.528   9.743 -0.0086 -0.3234 -0.0569
   84SAPS  H13R 7942   0.970   0.483   9.645  0.3027 -2.4575  0.9447
   84SAPS  H13S 7943   1.019   0.488   9.817 -0.6860 -0.1311  0.7432
   84SAPS  C214 7944   0.937   0.680   9.726 -0.6909  0.6595 -0.3817
   84SAPS  H14R 7945   0.923   0.734   9.821 -0.9303 -1.8810  1.1146
   84SAPS  C215 7946   0.939   0.742   9.610  0.6475  0.1663  0.3329
   84SAPS  H15R 7947   0.951   0.852   9.610 -1.3275  0.4259  1.7466
   84SAPS  C216 7948   0.947   0.693   9.465  0.0655  0.2035  0.6482
   84SAPS  H16R 7949   0.963   0.584   9.450  1.6541  0.6527 -1.4582
   84SAPS  H16S 7950   1.024   0.740   9.400 -0.6113 -0.4798 -0.7107
   84SAPS  C217 7951   0.810   0.707   9.395  0.8258 -0.7325  0.3478
   84SAPS  H17R 7952   0.791   0.817   9.400  2.0400 -0.4230 -0.9885
   84SAPS  H17S 7953   0.724   0.658   9.445  0.5061 -0.6393 -0.1091
   84SAPS  C218 7954   0.806   0.656   9.253 -0.1017 -0.2024 -1.0855
   84SAPS  H18R 7955   0.794   0.546   9.244  1.9009 -0.7025  1.1990
   84SAPS  H18S 7956   0.910   0.677   9.219  0.1191 -0.5860 -0.6525
   84SAPS  C219 7957   0.708   0.719   9.155 -0.6490 -0.0439 -0.0321
   84SAPS  H19R 7958   0.720   0.829   9.162 -0.1045 -0.2079  2.6947
   84SAPS  H19S 7959   0.608   0.717   9.202 -0.1752  0.6862  1.0624
   84SAPS  C220 7960   0.714   0.659   9.019 -0.5043  0.1420 -0.2414
   84SAPS  H20R 7961   0.670   0.713   8.932  1.2402  0.4372 -0.9861
   84SAPS  H20S 7962   0.675   0.555   9.012 -0.9242  0.1749  1.2813
   84SAPS  H20T 7963   0.821   0.650   8.989 -0.5398 -0.6346 -0.1340
   84SAPS   C33 7964   0.944   0.864  10.254 -0.3928 -0.0717 -0.4061
   84SAPS   H3X 7965   1.036   0.817  10.214  0.4857  1.6076 -0.4668
   84SAPS   H3Y 7966   0.966   0.959  10.307 -0.2693 -0.5523  0.4201
   84SAPS   C34 7967   0.839   0.901  10.142 -0.9206  0.4378  0.4055
   84SAPS   H4X 7968   0.741   0.935  10.181 -0.5099  0.6320  1.3065
   84SAPS   H4Y 7969   0.809   0.802  10.103  0.3710 -0.0840  0.6703
   84SAPS   C35 7970   0.898   0.979  10.020 -0.2686 -0.7543 -0.2592
   84SAPS   H5X 7971   0.829   0.941   9.942 -3.7812  1.8112  1.3232
   84SAPS   H5Y 7972   1.002   0.952   9.993 -0.3121  0.3415 -1.6132
   84SAPS   C36 7973   0.863   1.131  10.032  0.4762  0.1562  0.0131
   84SAPS   H6X 7974   0.946   1.179  10.089  0.7105 -1.6298  1.2786
   84SAPS   H6Y 7975   0.764   1.138  10.083  0.2508 -1.7810 -0.0897
   84SAPS   C37 7976   0.847   1.196   9.894 -0.7607 -0.2201  0.3623
   84SAPS   H7X 7977   0.772   1.140   9.833  1.5492 -3.2318  0.0267
   84SAPS   H7Y 7978   0.943   1.199   9.838 -1.8952 -0.8838 -1.7265
   84SAPS   C38 7979   0.797   1.341   9.914 -0.0017  0.3443 -1.9436
   84SAPS   H8X 7980   0.877   1.401   9.963 -0.9636  0.3515 -0.2988
   84SAPS   H8Y 7981   0.726   1.329   9.999  0.0179  2.4456 -1.5735
   84SAPS   C39 7982   0.743   1.408   9.789  0.2790  0.3163  0.7171
   84SAPS   H9X 7983   0.702   1.509   9.811 -2.5386 -0.5064 -0.3137
   84SAPS   H9Y 7984   0.662   1.336   9.762 -0.2393  0.3352  2.1185
   84SAPS  C310 7985   0.850   1.426   9.681 -0.5548  0.3099  0.5299
   84SAPS  H10X 7986   0.862   1.326   9.634 -3.4121  1.2755 -2.7316
   84SAPS  H10Y 7987   0.945   1.456   9.730  0.0265 -0.4084 -0.1232
   84SAPS  C311 7988   0.804   1.509   9.555  0.6438 -0.2037  0.2371
   84SAPS  H11X 7989   0.715   1.459   9.512  0.9802 -2.1196  1.6205
   84SAPS  H11Y 7990   0.874   1.503   9.469 -0.8545  0.7182 -1.0998
   84SAPS  C312 7991   0.775   1.663   9.579 -0.2577 -0.6791 -0.0473
   84SAPS  H12X 7992   0.861   1.699   9.638 -1.2201 -0.6918  1.4303
   84SAPS  H12Y 7993   0.673   1.676   9.621 -0.2550  0.0922 -0.2853
   84SAPS  C313 7994   0.768   1.750   9.450 -0.5090  0.2377  0.3022
   84SAPS  H13X 7995   0.849   1.724   9.378 -0.2097 -1.7591  1.2915
   84SAPS  H13Y 7996   0.786   1.854   9.486 -0.7131  0.0767  0.8742
   84SAPS  C314 7997   0.636   1.736   9.373 -0.2435  0.4293 -0.7873
   84SAPS  H14X 7998   0.555   1.781   9.435  1.0692 -0.5970  1.8362
   84SAPS  H14Y 7999   0.599   1.632   9.363 -2.4586  1.3421 -3.2156
   84SAPS  C315 8000   0.639   1.808   9.236  0.3984 -0.1871 -0.3490
   84SAPS  H15X 8001   0.590   1.739   9.164 -0.4804  0.3145 -0.2553
   84SAPS  H15Y 8002   0.741   1.806   9.194  1.1188 -1.8521  1.3585
   84SAPS  C316 8003   0.577   1.954   9.219  0.4869  0.2018 -0.2855
   84SAPS  H16X 8004   0.617   2.019   9.300 -2.1547  0.1145  1.2222
   84SAPS  H16Y 8005   0.467   1.948   9.231  0.4835  0.5079 -0.1444
   84SAPS  C317 8006   0.600   2.011   9.074 -0.0523 -0.1526  0.5071
   84SAPS  H17X 8007   0.575   1.927   9.007 -1.1879 -0.9758  1.9169
   84SAPS  H17Y 8008   0.709   2.028   9.057 -0.2097 -0.9552 -1.5419
   84SAPS  C318 8009   0.524   2.140   9.037 -0.2540  0.3632 -0.6337
   84SAPS  H18X 8010   0.536   2.146   8.927 -0.0406 -0.0897 -0.6363
   84SAPS  H18Y 8011   0.577   2.222   9.091 -0.2214  0.6451 -1.0939
   84SAPS  H18Z 8012   0.417   2.134   9.065 -0.2467  2.0140 -0.1177
   85SAPS     N 8013   5.541   1.223  11.088 -0.5690 -0.3728 -0.6120
   85SAPS   HN1 8014   5.573   1.126  11.066  0.3629 -0.0945 -0.5344
   85SAPS   HN2 8015   5.575   1.301  11.029 -0.3801  0.5858  0.7209
   85SAPS   HN3 8016   5.573   1.240  11.186 -2.2375  0.7847 -0.2381
   85SAPS   C12 8017   5.390   1.236  11.103  0.3391  0.1924 -0.2853
   85SAPS  H12A 8018   5.363   1.147  11.157  2.4234 -3.4482 -4.5746
   85SAPS   C13 8019   5.354   1.357  11.195  0.4188  0.0957 -0.7832
   85SAPS  O13A 8020   5.444   1.439  11.232 -0.2068  0.2714  0.1192
   85SAPS  O13B 8021   5.231   1.390  11.213  0.0947  0.5439  0.5912
   85SAPS   C11 8022   5.320   1.241  10.964  0.7800  0.2393 -0.3327
   85SAPS  H11A 8023   5.379   1.309  10.898  3.2312 -2.8135 -1.5332
   85SAPS  H11B 8024   5.222   1.293  10.977 -0.6074 -2.4936  0.8732
   85SAPS     P 8025   5.226   0.992  10.946 -0.4806  0.3398  0.2103
   85SAPS   O13 8026   5.297   0.901  11.039 -0.0218  0.0079  0.1754
   85SAPS   O14 8027   5.107   1.044  11.004  0.2630  0.1823  0.7139
   85SAPS   O12 8028   5.321   1.104  10.907  0.0137 -0.0491 -0.4401
   85SAPS   O11 8029   5.185   0.919  10.812 -0.0535 -0.0830  0.0530
   85SAPS    C1 8030   5.267   0.878  10.711  0.1762 -0.1029  0.0305
   85SAPS    HA 8031   5.374   0.866  10.741  0.6496  0.3372 -1.3944
   85SAPS    HB 8032   5.232   0.777  10.682  1.6043 -0.6285  0.0287
   85SAPS    C2 8033   5.264   0.972  10.584 -0.4712  0.3743 -0.6598
   85SAPS    HS 8034   5.300   1.068  10.628  0.0178  0.1525 -0.5710
   85SAPS   O21 8035   5.128   0.989  10.546  0.1569  0.0279  0.5085
   85SAPS   C21 8036   5.103   1.100  10.485 -0.1742  0.1941 -0.7481
   85SAPS   O22 8037   5.174   1.200  10.489  0.7074  0.4102  0.0724
   85SAPS   C22 8038   4.967   1.094  10.412  0.2203  0.2999  0.0440
   85SAPS   H2R 8039   4.889   1.053  10.480  1.1103 -2.2650 -0.3374
   85SAPS   H2S 8040   4.941   1.196  10.379 -1.8149 -0.6635 -1.5857
   85SAPS    C3 8041   5.357   0.917  10.476 -0.4951 -0.6790  0.7940
   85SAPS    HX 8042   5.327   0.818  10.437  2.4728 -1.5053  0.3560
   85SAPS    HY 8043   5.458   0.903  10.519 -0.3829 -0.0939  0.7325
   85SAPS   O31 8044   5.369   1.008  10.364 -0.1541  0.4035 -0.2986
   85SAPS   C31 8045   5.450   0.961  10.269 -0.2510 -0.3210  0.2499
   85SAPS   O32 8046   5.510   0.850  10.278 -0.4938 -0.3592  0.5565
   85SAPS   C32 8047   5.444   1.044  10.143  0.0218 -0.8218  0.1412
   85SAPS   H2X 8048   5.544   1.091  10.136 -0.3405 -0.1636 -0.8667
   85SAPS   H2Y 8049   5.369   1.123  10.165  1.4238  0.4546  0.4774
   85SAPS   C23 8050   4.981   1.000  10.292  0.3701  0.0618  0.0980
   85SAPS   H3R 8051   4.879   0.996  10.248  0.5385  2.4932 -0.6978
   85SAPS   H3S 8052   4.995   0.896  10.328 -1.7369 -1.2912 -2.5998
   85SAPS   C24 8053   5.077   1.040  10.176 -0.3373  0.1142 -0.8854
   85SAPS   H4R 8054   5.077   0.960  10.100 -3.5375  0.4276 -1.3473
   85SAPS   H4S 8055   5.173   1.046  10.232 -1.5204  1.1787  1.1691
   85SAPS   C25 8056   5.050   1.172  10.112 -0.6868  0.2500 -0.4080
   85SAPS   H5R 8057   5.118   1.251  10.146  1.2975 -1.8841  0.8094
   85SAPS   C26 8058   4.966   1.202  10.013 -0.7105  0.3475  0.7429
   85SAPS   H6R 8059   4.972   1.308   9.984 -2.5601  0.0196 -1.1385
   85SAPS   C27 8060   4.865   1.123   9.930  0.0304 -0.3111 -0.0761
   85SAPS   H7R 8061   4.816   1.183   9.851  0.3855  2.3750  1.6171
   85SAPS   H7S 8062   4.790   1.098  10.008  0.5070 -1.9376 -0.1009
   85SAPS   C28 8063   4.918   0.989   9.877 -0.4583 -0.8574  0.1483
   85SAPS   H8R 8064   4.925   0.899   9.940 -1.4379 -0.8350  0.3003
   85SAPS   C29 8065   4.972   0.990   9.749 -0.7819  0.8071 -0.1389
   85SAPS   H9R 8066   5.010   0.892   9.717 -0.3832  0.5603  1.0524
   85SAPS  C210 8067   4.993   1.101   9.648 -0.3715 -0.3982  0.1118
   85SAPS  H10R 8068   5.085   1.159   9.672  0.3139 -0.0370 -2.9868
   85SAPS  H10S 8069   4.903   1.165   9.661 -0.5571 -0.7937  0.8169
   85SAPS  C211 8070   5.017   1.053   9.508  0.0997 -0.2115 -0.0141
   85SAPS  H11R 8071   5.052   0.949   9.498 -1.2411 -0.8536  1.4820
   85SAPS  C212 8072   4.986   1.121   9.394 -0.0785  0.4712 -0.5535
   85SAPS  H12R 8073   5.015   1.077   9.298  0.5321 -0.3441 -0.0114
   85SAPS  C213 8074   4.913   1.255   9.383  0.6923  0.0377 -0.3485
   85SAPS  H13R 8075   4.875   1.290   9.481  1.9661 -1.2494  0.6489
   85SAPS  H13S 8076   4.829   1.245   9.311  1.2977  3.2010 -1.6569
   85SAPS  C214 8077   5.016   1.349   9.329  0.1447  0.0050  0.6227
   85SAPS  H14R 8078   5.097   1.366   9.402 -0.4282 -4.8358  2.7458
   85SAPS  C215 8079   5.014   1.410   9.211 -0.9247 -0.4156 -0.1441
   85SAPS  H15R 8080   5.099   1.478   9.196 -2.2519  1.8606  2.0679
   85SAPS  C216 8081   4.920   1.404   9.093  0.5309  0.1268 -0.4131
   85SAPS  H16R 8082   4.872   1.504   9.096  2.2321  0.9562  1.2444
   85SAPS  H16S 8083   4.851   1.318   9.110  2.8019 -1.5296  1.1185
   85SAPS  C217 8084   4.981   1.382   8.955 -0.4302 -0.3158 -0.3748
   85SAPS  H17R 8085   5.056   1.463   8.944 -3.5245  2.5672 -2.1476
   85SAPS  H17S 8086   4.914   1.404   8.869 -0.5850  2.6707  0.4163
   85SAPS  C218 8087   5.061   1.252   8.941 -0.4824  0.4967  0.0423
   85SAPS  H18R 8088   4.991   1.166   8.950  0.3879 -0.6060 -2.6532
   85SAPS  H18S 8089   5.136   1.249   9.023 -1.4152  0.8720  0.9311
   85SAPS  C219 8090   5.140   1.247   8.806  0.5194 -0.1054  0.0273
   85SAPS  H19R 8091   5.212   1.163   8.816 -0.2169 -0.8890 -0.9908
   85SAPS  H19S 8092   5.207   1.336   8.810 -0.6154  0.7295  1.8155
   85SAPS  C220 8093   5.055   1.244   8.685  0.6096 -0.5001  0.3110
   85SAPS  H20R 8094   5.102   1.233   8.585  0.9686 -1.4053  0.5669
   85SAPS  H20S 8095   5.004   1.343   8.680  2.6547  0.5909  0.1391
   85SAPS  H20T 8096   4.981   1.163   8.701 -0.0390  0.0966  0.3666
   85SAPS   C33 8097   5.400   0.959  10.016 -0.3350  0.0212 -0.5682
   85SAPS   H3X 8098   5.303   0.905  10.024 -1.1205  1.1933 -1.7629
   85SAPS   H3Y 8099   5.476   0.879  10.012  1.3274  1.5985 -2.1294
   85SAPS   C34 8100   5.415   1.040   9.888  0.2080  0.8538 -0.4314
   85SAPS   H4X 8101   5.504   1.103   9.904 -0.7384  1.8825  0.9586
   85SAPS   H4Y 8102   5.323   1.098   9.865  0.3631  0.9496 -0.8230
   85SAPS   C35 8103   5.447   0.952   9.768  0.1917 -0.2632 -0.4233
   85SAPS   H5X 8104   5.367   0.880   9.742 -1.2032  1.9269 -2.6468
   85SAPS   H5Y 8105   5.536   0.889   9.793 -1.5230 -2.7939 -0.3525
   85SAPS   C36 8106   5.478   1.046   9.650  0.4647 -0.0579 -0.6486
   85SAPS   H6X 8107   5.578   1.091   9.663  0.3254  0.0809  0.0127
   85SAPS   H6Y 8108   5.401   1.126   9.650  0.7258  0.2025 -0.0114
   85SAPS   C37 8109   5.474   0.975   9.512 -0.1399 -0.0029  0.0095
   85SAPS   H7X 8110   5.376   0.935   9.478 -0.6602 -0.2635  1.6980
   85SAPS   H7Y 8111   5.547   0.891   9.521 -2.6011 -2.2058  0.6653
   85SAPS   C38 8112   5.528   1.066   9.398  0.2595  0.2085 -0.9220
   85SAPS   H8X 8113   5.633   1.084   9.431  0.0811  0.2352 -0.3510
   85SAPS   H8Y 8114   5.487   1.169   9.403  0.2578  0.1508  0.8315
   85SAPS   C39 8115   5.511   1.013   9.259  0.0028  0.0331 -0.4823
   85SAPS   H9X 8116   5.417   0.956   9.243  1.3939 -3.0954  1.4698
   85SAPS   H9Y 8117   5.579   0.925   9.261 -1.8024 -1.4213  1.0459
   85SAPS  C310 8118   5.554   1.110   9.149 -0.5056  0.3948  0.5478
   85SAPS  H10X 8119   5.658   1.147   9.164  0.5583 -1.5812 -1.3436
   85SAPS  H10Y 8120   5.479   1.191   9.136  0.3743  0.8996 -2.0735
   85SAPS  C311 8121   5.553   1.041   9.004  0.3818  0.2495  0.3420
   85SAPS  H11X 8122   5.465   0.973   8.991  1.2980 -0.5366 -2.4589
   85SAPS  H11Y 8123   5.643   0.977   8.998 -0.3244 -0.7041 -0.4451
   85SAPS  C312 8124   5.569   1.137   8.881 -0.1260  1.0580 -0.5427
   85SAPS  H12X 8125   5.672   1.179   8.881  0.2643  0.1366 -1.0857
   85SAPS  H12Y 8126   5.506   1.225   8.904  1.1094  1.3930  1.9397
   85SAPS  C313 8127   5.535   1.070   8.748 -0.6110  0.3159 -0.4288
   85SAPS  H13X 8128   5.432   1.031   8.756  0.0869 -2.1120 -1.9981
   85SAPS  H13Y 8129   5.596   0.978   8.732 -1.4123 -0.3357  0.2084
   85SAPS  C314 8130   5.541   1.151   8.626  0.1991 -0.0037  0.3320
   85SAPS  H14X 8131   5.642   1.185   8.592 -0.7256  1.1989 -1.4080
   85SAPS  H14Y 8132   5.487   1.244   8.656  0.3048 -0.0896  0.7980
   85SAPS  C315 8133   5.472   1.088   8.506 -0.4401 -0.7743 -0.4816
   85SAPS  H15X 8134   5.368   1.055   8.527 -0.2539 -0.4442  1.0321
   85SAPS  H15Y 8135   5.525   0.999   8.464  0.5910 -0.6676  0.5575
   85SAPS  C316 8136   5.471   1.185   8.386  0.3802  0.4219 -0.1190
   85SAPS  H16X 8137   5.573   1.191   8.341 -0.4032 -2.0948 -2.5239
   85SAPS  H16Y 8138   5.432   1.284   8.418 -0.0483  0.5714 -1.0421
   85SAPS  C317 8139   5.367   1.139   8.270 -0.4675 -0.1929 -0.8137
   85SAPS  H17X 8140   5.402   1.044   8.224  1.0041 -0.3614  0.5606
   85SAPS  H17Y 8141   5.375   1.219   8.194  0.6541  1.0744  0.5617
   85SAPS  C318 8142   5.223   1.128   8.317  0.7719  0.7202 -0.0610
   85SAPS  H18X 8143   5.161   1.104   8.227 -0.1213 -0.6068  0.8775
   85SAPS  H18Y 8144   5.197   1.228   8.359  2.2267  0.2055  2.1945
   85SAPS  H18Z 8145   5.212   1.048   8.392  0.3948  0.3875 -0.4654
   86SAPS     N 8146   0.068   2.030  11.269  0.0158 -0.6431  0.1662
   86SAPS   HN1 8147   0.027   1.982  11.186 -3.9293  1.8215  0.4383
   86SAPS   HN2 8148   0.148   1.977  11.310 -0.5773 -0.9421  0.9499
   86SAPS   HN3 8149  -0.013   2.037  11.334 -0.8568  0.7500 -1.0177
   86SAPS   C12 8150   0.103   2.161  11.214 -0.2907 -0.2679  0.3372
   86SAPS  H12A 8151   0.015   2.219  11.190 -0.0716 -0.2167 -0.3606
   86SAPS   C13 8152   0.200   2.241  11.308 -1.0061 -0.4019  0.2882
   86SAPS  O13A 8153   0.246   2.181  11.408  0.1084 -0.7173  0.4178
   86SAPS  O13B 8154   0.242   2.350  11.270  0.5874 -0.2588  0.2018
   86SAPS   C11 8155   0.177   2.134  11.082  0.3644 -0.2853 -0.2312
   86SAPS  H11A 8156   0.273   2.080  11.097  0.6048  0.2975  0.3535
   86SAPS  H11B 8157   0.208   2.235  11.048  0.4669  0.6996  2.5668
   86SAPS     P 8158   0.139   1.941  10.918 -0.4467  0.0164  0.4965
   86SAPS   O13 8159   0.134   1.830  11.016  0.4467 -0.7136  0.1849
   86SAPS   O14 8160   0.048   1.925  10.799 -0.6559 -0.1159  0.1060
   86SAPS   O12 8161   0.097   2.069  10.988  0.1912 -0.4826  0.0845
   86SAPS   O11 8162   0.289   1.958  10.869 -0.1686  0.1545 -0.1008
   86SAPS    C1 8163   0.313   1.942  10.728  0.1086  0.0130  0.1010
   86SAPS    HA 8164   0.241   2.000  10.667 -1.8086 -0.4831  1.7892
   86SAPS    HB 8165   0.410   1.985  10.696  0.0369 -0.7120 -1.1297
   86SAPS    C2 8166   0.322   1.787  10.700 -0.2315  0.1412  0.3825
   86SAPS    HS 8167   0.222   1.742  10.717 -0.3068 -0.1452 -0.7198
   86SAPS   O21 8168   0.421   1.729  10.789 -0.1049 -0.3291 -0.0348
   86SAPS   C21 8169   0.400   1.610  10.819  0.1024  0.5103  0.9474
   86SAPS   O22 8170   0.301   1.546  10.782  0.2044 -0.0212 -0.3989
   86SAPS   C22 8171   0.517   1.560  10.905 -0.6232  0.1419 -0.0424
   86SAPS   H2R 8172   0.605   1.623  10.881  1.0266 -2.0674 -0.1404
   86SAPS   H2S 8173   0.482   1.578  11.008 -0.1769  2.4957 -0.2613
   86SAPS    C3 8174   0.365   1.761  10.556 -0.6826  0.1283  0.2365
   86SAPS    HX 8175   0.344   1.654  10.533  0.3314 -0.1000  0.2912
   86SAPS    HY 8176   0.475   1.776  10.547 -0.5773  0.5797  1.8826
   86SAPS   O31 8177   0.299   1.852  10.467  0.2125  0.6359 -0.3360
   86SAPS   C31 8178   0.168   1.821  10.447  0.5202 -0.3747 -0.3187
   86SAPS   O32 8179   0.115   1.720  10.493  0.9786 -0.5226  0.0733
   86SAPS   C32 8180   0.115   1.916  10.335  0.6025  0.4454 -0.3204
   86SAPS   H2X 8181   0.067   2.006  10.380  1.3451  0.3496  0.7080
   86SAPS   H2Y 8182   0.034   1.863  10.282  1.4985  0.3267 -1.5945
   86SAPS   C23 8183   0.539   1.403  10.904 -0.5020  0.5488  0.2471
   86SAPS   H3R 8184   0.440   1.353  10.918 -0.8115  0.8044 -0.8809
   86SAPS   H3S 8185   0.591   1.380  10.999 -0.7734 -0.6247  0.1306
   86SAPS   C24 8186   0.608   1.347  10.779 -0.1343 -0.0425 -0.3208
   86SAPS   H4R 8187   0.544   1.368  10.691  0.5843  1.5917 -0.4884
   86SAPS   H4S 8188   0.615   1.238  10.796 -1.1282  0.0423  0.6787
   86SAPS   C25 8189   0.746   1.394  10.750 -0.3282 -0.9823 -0.3549
   86SAPS   H5R 8190   0.817   1.362  10.827  0.4472 -1.9608 -1.4572
   86SAPS   C26 8191   0.799   1.460  10.642  0.2028  0.7018  0.2195
   86SAPS   H6R 8192   0.898   1.504  10.658  0.9035 -0.6585 -0.2085
   86SAPS   C27 8193   0.730   1.499  10.516 -0.1359  0.0692  0.8112
   86SAPS   H7R 8194   0.624   1.464  10.520 -0.5844  1.2924  0.3488
   86SAPS   H7S 8195   0.790   1.451  10.435 -0.1974  0.8456  0.2931
   86SAPS   C28 8196   0.711   1.639  10.464  0.6623 -0.1164 -0.5444
   86SAPS   H8R 8197   0.725   1.724  10.533  1.5100  0.8928 -1.9068
   86SAPS   C29 8198   0.672   1.675  10.340 -0.3359 -0.0917  0.2633
   86SAPS   H9R 8199   0.658   1.784  10.327 -0.1255 -0.1862 -0.8407
   86SAPS  C210 8200   0.637   1.593  10.224  0.2385 -0.1968 -0.2443
   86SAPS  H10R 8201   0.697   1.500  10.232 -0.8624 -0.8515  0.8221
   86SAPS  H10S 8202   0.667   1.654  10.137  1.3385 -1.1213 -0.5450
   86SAPS  C211 8203   0.491   1.553  10.228  0.1552  0.5563 -1.0543
   86SAPS  H11R 8204   0.455   1.490  10.311 -1.1108  1.4949 -0.8714
   86SAPS  C212 8205   0.406   1.601  10.135  0.4773 -0.1023  0.8748
   86SAPS  H12R 8206   0.300   1.570  10.134  0.2369  0.6983  0.7598
   86SAPS  C213 8207   0.449   1.699  10.024  0.2061 -0.3790  0.9263
   86SAPS  H13R 8208   0.536   1.652   9.974  0.7151 -0.0615  1.4938
   86SAPS  H13S 8209   0.492   1.788  10.075  0.9288 -0.1629 -0.0397
   86SAPS  C214 8210   0.335   1.738   9.926  0.9079  0.3596  0.3890
   86SAPS  H14R 8211   0.252   1.797   9.970  0.2035 -0.6341  0.4238
   86SAPS  C215 8212   0.315   1.701   9.798  0.1784 -0.2271  0.0581
   86SAPS  H15R 8213   0.226   1.732   9.741 -1.5817  0.7573  3.1619
   86SAPS  C216 8214   0.406   1.614   9.721 -0.7038  0.0281  0.1818
   86SAPS  H16R 8215   0.513   1.628   9.746 -1.3064  0.2316  2.9831
   86SAPS  H16S 8216   0.405   1.651   9.617 -1.3872  0.0428  0.1860
   86SAPS  C217 8217   0.361   1.458   9.713  0.0723 -0.9037 -0.1795
   86SAPS  H17R 8218   0.435   1.413   9.644 -1.0903 -4.1485  0.5188
   86SAPS  H17S 8219   0.254   1.454   9.685 -1.2448  0.4785  3.9536
   86SAPS  C218 8220   0.378   1.396   9.850  0.4181 -0.5545 -0.2678
   86SAPS  H18R 8221   0.311   1.443   9.925  0.7830  0.6804 -0.6863
   86SAPS  H18S 8222   0.481   1.428   9.875  0.0803  0.0149  0.4247
   86SAPS  C219 8223   0.373   1.247   9.867  0.4415 -0.7946  0.0295
   86SAPS  H19R 8224   0.418   1.202   9.776 -1.4745  0.9185 -1.8819
   86SAPS  H19S 8225   0.270   1.208   9.863 -0.3849  1.2052  0.4484
   86SAPS  C220 8226   0.429   1.200  10.001 -0.3055 -0.1353 -0.2920
   86SAPS  H20R 8227   0.368   1.247  10.081 -0.2756  1.4465 -1.1575
   86SAPS  H20S 8228   0.529   1.242  10.027 -0.9281  1.2490 -0.0637
   86SAPS  H20T 8229   0.438   1.090  10.015 -0.7269 -0.0129  1.0632
   86SAPS   C33 8230   0.222   1.934  10.225  0.2446 -0.2420 -0.0195
   86SAPS   H3X 8231   0.266   1.842  10.183 -0.0881  0.3881 -1.8374
   86SAPS   H3Y 8232   0.304   1.995  10.270  0.6375 -0.1990 -0.7870
   86SAPS   C34 8233   0.162   2.015  10.109 -0.3806 -0.0498  0.4802
   86SAPS   H4X 8234   0.094   2.094  10.148 -1.8903 -0.6004 -0.9157
   86SAPS   H4Y 8235   0.108   1.935  10.054  0.0023  0.2542 -0.3474
   86SAPS   C35 8236   0.275   2.085  10.017 -0.4244  0.2074 -0.5026
   86SAPS   H5X 8237   0.360   2.016   9.998 -1.4524 -2.1199  2.5592
   86SAPS   H5Y 8238   0.300   2.174  10.079 -0.7363  0.9430 -1.4092
   86SAPS   C36 8239   0.224   2.154   9.886  0.9049  0.3342 -0.6582
   86SAPS   H6X 8240   0.252   2.261   9.880 -1.3914  1.3385  2.9196
   86SAPS   H6Y 8241   0.113   2.162   9.893  0.5020 -3.4322 -0.7638
   86SAPS   C37 8242   0.266   2.071   9.768 -0.4856 -0.9265 -0.3551
   86SAPS   H7X 8243   0.223   1.968   9.769 -2.7040 -0.0679  1.7391
   86SAPS   H7Y 8244   0.373   2.049   9.784 -0.4532 -0.3168  0.2878
   86SAPS   C38 8245   0.242   2.140   9.632  0.4035  0.0219 -0.1963
   86SAPS   H8X 8246   0.332   2.200   9.608 -0.1062  0.3603 -1.3827
   86SAPS   H8Y 8247   0.143   2.190   9.637 -0.6095 -1.7946 -1.1530
   86SAPS   C39 8248   0.237   2.039   9.526 -0.0821 -0.6786  0.3407
   86SAPS   H9X 8249   0.186   1.948   9.564 -0.2102 -0.8052 -0.1225
   86SAPS   H9Y 8250   0.344   2.016   9.506 -0.1283 -0.2961 -0.4074
   86SAPS  C310 8251   0.174   2.082   9.398  0.6682  0.1622  0.0915
   86SAPS  H10X 8252   0.234   2.170   9.365 -2.2231  2.4176  0.4925
   86SAPS  H10Y 8253   0.075   2.130   9.411  0.9001 -0.1521  4.1164
   86SAPS  C311 8254   0.172   1.988   9.276 -0.0026 -0.0809  0.8436
   86SAPS  H11X 8255   0.097   1.911   9.304 -0.6641  1.2098  2.8499
   86SAPS  H11Y 8256   0.275   1.946   9.268  0.1295  0.2471  0.7938
   86SAPS  C312 8257   0.134   2.075   9.154  0.2460  0.2407 -0.4196
   86SAPS  H12X 8258   0.218   2.145   9.135  0.8268 -0.1843  0.5302
   86SAPS  H12Y 8259   0.043   2.135   9.176  0.5248 -0.5403  3.6067
   86SAPS  C313 8260   0.110   2.000   9.019 -1.2755  0.5373  0.2613
   86SAPS  H13X 8261   0.032   1.923   9.032 -1.2248  0.4450  0.0214
   86SAPS  H13Y 8262   0.205   1.949   8.991 -1.6582 -0.7821  1.2715
   86SAPS  C314 8263   0.069   2.095   8.909  0.2604 -0.1469  0.5381
   86SAPS  H14X 8264  -0.006   2.173   8.934  0.0093  0.1167 -0.9560
   86SAPS  H14Y 8265   0.021   2.037   8.827  0.5643 -0.6350  0.6960
   86SAPS  C315 8266   0.185   2.181   8.853 -0.1671 -0.1068 -0.3791
   86SAPS  H15X 8267   0.268   2.108   8.839  0.9529  1.3052 -1.3696
   86SAPS  H15Y 8268   0.217   2.267   8.915  1.6839 -0.3687 -0.9204
   86SAPS  C316 8269   0.145   2.246   8.721 -0.6240 -0.0410 -0.5848
   86SAPS  H16X 8270   0.060   2.317   8.720 -1.7020 -1.2780 -2.0926
   86SAPS  H16Y 8271   0.105   2.163   8.659 -0.2307 -0.6570 -0.0269
   86SAPS  C317 8272   0.255   2.322   8.647  0.0134 -0.2946  0.2512
   86SAPS  H17X 8273   0.312   2.376   8.725  1.5886 -0.8884 -0.4435
   86SAPS  H17Y 8274   0.216   2.390   8.568  0.1657  1.5807  1.7349
   86SAPS  C318 8275   0.346   2.219   8.571 -0.0542  0.2434 -0.8280
   86SAPS  H18X 8276   0.414   2.271   8.500  1.7779 -0.3398  0.4546
   86SAPS  H18Y 8277   0.282   2.144   8.519 -0.5855  0.5476 -0.6291
   86SAPS  H18Z 8278   0.401   2.160   8.646 -2.7255 -0.7103  0.5115
   87SAPS     N 8279   6.448   3.582  10.772  0.1461 -0.1908  0.2549
   87SAPS   HN1 8280   6.537   3.547  10.732  1.0999  1.4927  0.7768
   87SAPS   HN2 8281   6.369   3.532  10.726 -1.5600  0.1286  2.6917
   87SAPS   HN3 8282   6.435   3.683  10.749 -0.4690  0.2198  2.2087
   87SAPS   C12 8283   6.441   3.575  10.920 -0.9889  0.1168 -0.3323
   87SAPS  H12A 8284   6.525   3.634  10.957 -1.3622  0.3340  0.1849
   87SAPS   C13 8285   6.311   3.614  10.990 -0.0383  0.3118  0.5085
   87SAPS  O13A 8286   6.210   3.650  10.929  0.5291 -0.1126  0.1587
   87SAPS  O13B 8287   6.301   3.586  11.110  0.7091  0.3404 -0.1455
   87SAPS   C11 8288   6.477   3.427  10.953 -0.2051 -0.4551  0.0580
   87SAPS  H11A 8289   6.399   3.358  10.915 -0.2263  0.1893 -1.1037
   87SAPS  H11B 8290   6.479   3.407  11.062  1.6233  0.1599  0.1689
   87SAPS     P 8291   6.655   3.241  10.873  0.2961 -0.3163 -0.5089
   87SAPS   O13 8292   6.799   3.237  10.894  0.5806 -0.2786 -0.0900
   87SAPS   O14 8293   6.581   3.159  10.971  0.6548  0.1412  0.6038
   87SAPS   O12 8294   6.607   3.391  10.895 -0.3314 -0.0119  0.3831
   87SAPS   O11 8295   6.618   3.197  10.725 -0.2757 -0.5675 -0.2558
   87SAPS    C1 8296   6.478   3.211  10.688 -0.2191 -0.5053 -0.1770
   87SAPS    HA 8297   6.400   3.176  10.759  0.4928 -2.2208 -0.1966
   87SAPS    HB 8298   6.463   3.317  10.658  0.4220 -0.2390  0.3964
   87SAPS    C2 8299   6.443   3.125  10.565 -0.0454  0.4883 -0.0407
   87SAPS    HS 8300   6.460   3.018  10.591 -0.8177  0.0829 -1.1135
   87SAPS   O21 8301   6.520   3.173  10.448 -0.1566 -0.3252 -0.4452
   87SAPS   C21 8302   6.556   3.082  10.361  0.1928  0.3554 -0.1836
   87SAPS   O22 8303   6.525   2.963  10.373  0.0253  0.2145 -0.4479
   87SAPS   C22 8304   6.639   3.143  10.255 -0.1370 -0.3851  0.2642
   87SAPS   H2R 8305   6.608   3.241  10.213  0.6281 -0.8977 -1.6000
   87SAPS   H2S 8306   6.740   3.157  10.302  1.2133 -0.2428 -2.4999
   87SAPS    C3 8307   6.294   3.145  10.526  0.5281  0.0170  0.1962
   87SAPS    HX 8308   6.273   3.253  10.542  0.6028 -0.1701  1.7009
   87SAPS    HY 8309   6.226   3.103  10.603  0.1326  1.6250  0.7862
   87SAPS   O31 8310   6.255   3.115  10.389 -0.2388 -0.4107  0.1169
   87SAPS   C31 8311   6.138   3.175  10.358 -0.3035 -0.4256 -0.1264
   87SAPS   O32 8312   6.074   3.254  10.430  0.1573  0.2972  0.2176
   87SAPS   C32 8313   6.105   3.156  10.217  0.2823  0.1667 -0.5635
   87SAPS   H2X 8314   5.998   3.177  10.196  0.1909  0.1893 -0.0843
   87SAPS   H2Y 8315   6.127   3.050  10.190 -1.8172  0.2964 -3.1342
   87SAPS   C23 8316   6.685   3.052  10.135 -0.2363 -0.3102 -0.2712
   87SAPS   H3R 8317   6.678   2.947  10.170 -0.1099  0.0976  1.0545
   87SAPS   H3S 8318   6.787   3.089  10.113  0.7962 -1.7205  1.8099
   87SAPS   C24 8319   6.597   3.070  10.007 -0.3793 -0.3251  0.4341
   87SAPS   H4R 8320   6.606   3.173   9.965  2.2079 -0.2052  1.0746
   87SAPS   H4S 8321   6.494   3.043  10.038 -1.1335  1.1294 -0.6753
   87SAPS   C25 8322   6.653   2.967   9.910 -0.0390  0.9693 -0.1482
   87SAPS   H5R 8323   6.638   2.863   9.944 -1.1772  0.3446 -2.3562
   87SAPS   C26 8324   6.699   2.990   9.782 -0.0593 -0.0903 -0.0717
   87SAPS   H6R 8325   6.747   2.913   9.720  0.3518  0.6830 -0.7385
   87SAPS   C27 8326   6.709   3.128   9.716  0.1977 -0.0509 -0.1077
   87SAPS   H7R 8327   6.812   3.151   9.684  0.3237 -1.2653 -0.6518
   87SAPS   H7S 8328   6.672   3.205   9.787  0.3599 -2.3173  2.5957
   87SAPS   C28 8329   6.611   3.127   9.601 -0.4734  0.4700 -0.4573
   87SAPS   H8R 8330   6.505   3.137   9.632 -0.1677  0.5625  0.5872
   87SAPS   C29 8331   6.633   3.113   9.472 -0.3288  0.2933  0.7521
   87SAPS   H9R 8332   6.545   3.100   9.407 -2.2013  2.8396  2.5857
   87SAPS  C210 8333   6.761   3.091   9.394  0.1271  0.4648 -0.2748
   87SAPS  H10R 8334   6.845   3.140   9.448  2.2300 -0.3051 -2.6423
   87SAPS  H10S 8335   6.758   3.157   9.305 -0.9919  1.6418  0.6045
   87SAPS  C211 8336   6.802   2.953   9.350  0.0424 -0.1216 -0.4823
   87SAPS  H11R 8337   6.885   2.903   9.402 -1.6660  0.1072  2.7048
   87SAPS  C212 8338   6.751   2.881   9.252  0.4826 -0.2737 -0.2697
   87SAPS  H12R 8339   6.783   2.777   9.241 -0.6262 -0.5713 -0.8770
   87SAPS  C213 8340   6.644   2.929   9.154  0.3897  0.4382  0.1853
   87SAPS  H13R 8341   6.615   3.036   9.163 -2.8167 -0.1566 -1.5893
   87SAPS  H13S 8342   6.549   2.881   9.186  0.9681 -1.7191 -1.1545
   87SAPS  C214 8343   6.665   2.892   9.012 -0.1956 -0.4524  0.3811
   87SAPS  H14R 8344   6.656   2.788   8.979  1.3892 -0.5309  0.0875
   87SAPS  C215 8345   6.711   2.981   8.924 -0.2556  0.2373 -0.1293
   87SAPS  H15R 8346   6.709   2.941   8.822  0.4564 -1.4149  0.4786
   87SAPS  C216 8347   6.744   3.125   8.936  0.3241 -0.6963  0.7721
   87SAPS  H16R 8348   6.843   3.146   8.891 -0.1645 -0.3152 -0.1385
   87SAPS  H16S 8349   6.775   3.137   9.042 -1.7825  0.1665  1.3512
   87SAPS  C217 8350   6.631   3.230   8.901 -0.5271 -0.0076 -0.4202
   87SAPS  H17R 8351   6.674   3.321   8.949  0.2749 -1.0844  1.0037
   87SAPS  H17S 8352   6.542   3.194   8.957  0.1005  2.2979  2.2780
   87SAPS  C218 8353   6.604   3.244   8.750  0.4075  0.6631  0.5928
   87SAPS  H18R 8354   6.528   3.168   8.722 -1.7877  2.7320  0.5566
   87SAPS  H18S 8355   6.687   3.222   8.681 -0.9103 -0.7936 -0.5899
   87SAPS  C219 8356   6.558   3.379   8.708  0.2167  0.0736  0.5613
   87SAPS  H19R 8357   6.633   3.450   8.750  0.0145 -0.3548  1.6962
   87SAPS  H19S 8358   6.455   3.388   8.750 -0.4657 -1.6030 -0.6742
   87SAPS  C220 8359   6.562   3.397   8.556  0.5049 -0.5140 -0.1625
   87SAPS  H20R 8360   6.671   3.398   8.533  0.9429 -0.1781  1.7148
   87SAPS  H20S 8361   6.521   3.489   8.511 -0.0213 -1.1011 -0.8907
   87SAPS  H20T 8362   6.514   3.320   8.493  0.6396 -0.1780 -0.6766
   87SAPS   C33 8363   6.188   3.246  10.133 -0.0821 -1.8323  0.3611
   87SAPS   H3X 8364   6.298   3.229  10.132  0.2489 -0.0078 -1.3634
   87SAPS   H3Y 8365   6.180   3.354  10.161 -2.9959 -1.8377 -0.1205
   87SAPS   C34 8366   6.138   3.238   9.985 -0.1451 -0.0465  0.5146
   87SAPS   H4X 8367   6.033   3.274   9.980 -0.0401  0.1864 -0.0807
   87SAPS   H4Y 8368   6.140   3.131   9.955  0.3911  0.1649 -0.2178
   87SAPS   C35 8369   6.234   3.297   9.877 -0.3127  0.0586 -1.0679
   87SAPS   H5X 8370   6.338   3.261   9.892 -0.3728  0.7777  1.7591
   87SAPS   H5Y 8371   6.238   3.408   9.885 -0.9320  0.0045  0.4364
   87SAPS   C36 8372   6.189   3.259   9.737 -0.6419  0.4939  0.2069
   87SAPS   H6X 8373   6.084   3.287   9.713 -0.9401 -0.6689  0.1111
   87SAPS   H6Y 8374   6.204   3.149   9.731  1.0530  0.7653 -1.3602
   87SAPS   C37 8375   6.280   3.320   9.632  0.0985  0.0162 -0.4897
   87SAPS   H7X 8376   6.384   3.283   9.647  0.4659  0.8153 -0.9748
   87SAPS   H7Y 8377   6.270   3.431   9.633 -0.1556  0.0022  1.4545
   87SAPS   C38 8378   6.227   3.281   9.492 -0.1310  0.1599 -0.0589
   87SAPS   H8X 8379   6.117   3.269   9.484 -0.2925  1.7224 -0.6299
   87SAPS   H8Y 8380   6.260   3.184   9.449 -1.2472 -0.1685 -0.2057
   87SAPS   C39 8381   6.257   3.390   9.389  0.5549  0.5363  0.0260
   87SAPS   H9X 8382   6.364   3.419   9.389  1.0064 -0.9627  1.3806
   87SAPS   H9Y 8383   6.200   3.483   9.412 -1.2873 -0.6017  0.3028
   87SAPS  C310 8384   6.211   3.344   9.251  0.8956  0.1136  0.3850
   87SAPS  H10X 8385   6.100   3.343   9.265  0.9422 -0.6278  0.7869
   87SAPS  H10Y 8386   6.256   3.245   9.227 -0.3661 -0.6459  1.0320
   87SAPS  C311 8387   6.242   3.440   9.136 -0.5179  0.2150  0.2179
   87SAPS  H11X 8388   6.353   3.451   9.130 -0.4428 -0.0403  1.0116
   87SAPS  H11Y 8389   6.201   3.535   9.177  1.6170  0.0850  2.9126
   87SAPS  C312 8390   6.188   3.395   8.998  0.7919  0.2429 -0.1135
   87SAPS  H12X 8391   6.079   3.377   9.003  0.6173  0.6114 -2.0536
   87SAPS  H12Y 8392   6.236   3.299   8.970 -1.4395 -1.3966  1.2982
   87SAPS  C313 8393   6.218   3.517   8.902 -0.5595  0.3042  0.0954
   87SAPS  H13X 8394   6.325   3.548   8.903  0.9338 -3.9453 -2.3859
   87SAPS  H13Y 8395   6.176   3.607   8.950 -0.2262  0.8825 -0.6668
   87SAPS  C314 8396   6.172   3.488   8.760 -0.6144 -0.0582  0.0221
   87SAPS  H14X 8397   6.070   3.444   8.761 -1.4054  1.6279 -0.7039
   87SAPS  H14Y 8398   6.238   3.403   8.735 -0.7166 -0.1584  0.0950
   87SAPS  C315 8399   6.202   3.609   8.669  0.4172  0.2036 -0.4083
   87SAPS  H15X 8400   6.298   3.657   8.697  0.9243 -1.1762  0.3314
   87SAPS  H15Y 8401   6.132   3.691   8.695 -2.3538 -2.3158  0.5779
   87SAPS  C316 8402   6.189   3.571   8.519  0.1946 -0.4538 -0.2659
   87SAPS  H16X 8403   6.102   3.503   8.510 -0.0314 -0.3339  0.8442
   87SAPS  H16Y 8404   6.285   3.518   8.499  0.4208 -0.0571 -0.2460
   87SAPS  C317 8405   6.177   3.695   8.432 -0.0941  0.0166 -0.6590
   87SAPS  H17X 8406   6.197   3.669   8.326  0.5572  1.9660 -1.0438
   87SAPS  H17Y 8407   6.263   3.762   8.454  2.1779 -2.5153 -1.3327
   87SAPS  C318 8408   6.039   3.768   8.452  0.3785 -0.1526  0.3165
   87SAPS  H18X 8409   6.036   3.836   8.364  2.3800  0.3092  0.5398
   87SAPS  H18Y 8410   6.047   3.835   8.540 -0.6768  0.5181 -0.0869
   87SAPS  H18Z 8411   5.949   3.704   8.453 -0.9252  1.6192  0.4441
   88SAPS     N 8412   3.437   1.559  10.795  0.6102 -0.2483  0.0001
   88SAPS   HN1 8413   3.484   1.501  10.722  2.0857  1.1324 -0.2062
   88SAPS   HN2 8414   3.379   1.624  10.738 -1.0607 -2.3293 -0.8068
   88SAPS   HN3 8415   3.512   1.605  10.850 -0.5595 -0.5858  1.9650
   88SAPS   C12 8416   3.356   1.470  10.879 -0.1253  0.3463 -0.4403
   88SAPS  H12A 8417   3.426   1.399  10.921  1.6232  3.1759  1.7763
   88SAPS   C13 8418   3.295   1.533  10.999 -0.6298  0.2067 -0.0199
   88SAPS  O13A 8419   3.321   1.652  11.036  0.9053 -0.0638  0.0638
   88SAPS  O13B 8420   3.248   1.455  11.084  0.6419 -0.2333  0.2910
   88SAPS   C11 8421   3.251   1.404  10.789  0.4127  0.2032  0.2090
   88SAPS  H11A 8422   3.200   1.326  10.850 -0.7602  1.3493  0.7535
   88SAPS  H11B 8423   3.291   1.357  10.697 -0.0067  1.6176 -0.7253
   88SAPS     P 8424   2.996   1.518  10.808  0.0001 -0.5055  0.1609
   88SAPS   O13 8425   2.946   1.395  10.869 -0.4669  0.3778 -0.2133
   88SAPS   O14 8426   2.980   1.644  10.879  0.2908 -0.1715 -0.1712
   88SAPS   O12 8427   3.145   1.497  10.744 -0.1772  0.5422  0.2450
   88SAPS   O11 8428   2.921   1.535  10.674 -0.1424 -0.8085  0.2249
   88SAPS    C1 8429   2.857   1.435  10.595  0.1215 -0.0217 -0.1585
   88SAPS    HA 8430   2.801   1.359  10.653 -1.3747  0.5120 -0.8426
   88SAPS    HB 8431   2.783   1.481  10.526  0.1968  0.3200 -0.0145
   88SAPS    C2 8432   2.950   1.367  10.493  0.1511  0.2255  0.0063
   88SAPS    HS 8433   3.027   1.312  10.552  0.3965  1.5347  0.9564
   88SAPS   O21 8434   3.014   1.475  10.433  0.5263  0.3111 -0.0299
   88SAPS   C21 8435   3.134   1.454  10.380 -0.0435 -0.0653 -0.4502
   88SAPS   O22 8436   3.190   1.348  10.385  0.1461 -0.6437  0.1433
   88SAPS   C22 8437   3.196   1.579  10.323  1.0079  0.3065  1.2258
   88SAPS   H2R 8438   3.113   1.653  10.325  1.3208  0.6507  2.2905
   88SAPS   H2S 8439   3.272   1.621  10.393  1.4245 -0.8769  1.5118
   88SAPS    C3 8440   2.875   1.282  10.388 -0.4001  0.2731  0.4527
   88SAPS    HX 8441   2.805   1.362  10.355 -1.4058 -1.1074 -0.8810
   88SAPS    HY 8442   2.810   1.203  10.432  0.7128 -0.4441  0.8505
   88SAPS   O31 8443   2.950   1.233  10.277 -0.0728 -0.3449  0.2287
   88SAPS   C31 8444   3.017   1.118  10.303 -0.8419 -0.7695  0.6931
   88SAPS   O32 8445   3.001   1.041  10.390  0.8325 -0.4043  0.0227
   88SAPS   C32 8446   3.129   1.095  10.192 -0.2795  0.1912 -0.5446
   88SAPS   H2X 8447   3.212   1.165  10.216  0.3368 -0.5829 -0.3472
   88SAPS   H2Y 8448   3.092   1.121  10.091  3.4029  1.1817 -1.7906
   88SAPS   C23 8449   3.262   1.546  10.183 -0.3433 -0.5395  0.6884
   88SAPS   H3R 8450   3.348   1.478  10.199 -0.0020 -1.0434 -2.5773
   88SAPS   H3S 8451   3.298   1.644  10.143  1.5969 -1.7482 -0.6738
   88SAPS   C24 8452   3.166   1.489  10.072  0.2626 -0.4243  0.3643
   88SAPS   H4R 8453   3.073   1.549  10.060 -0.1738 -1.6762 -5.0691
   88SAPS   H4S 8454   3.135   1.388  10.105 -0.2539 -0.6024 -0.6111
   88SAPS   C25 8455   3.239   1.480   9.941  0.2107  0.4345  0.6200
   88SAPS   H5R 8456   3.300   1.388   9.936 -1.3884 -0.6993  1.0809
   88SAPS   C26 8457   3.234   1.560   9.835 -0.9797  0.3340  0.3578
   88SAPS   H6R 8458   3.290   1.549   9.741 -2.1974  2.8350 -0.7508
   88SAPS   C27 8459   3.156   1.686   9.836 -0.8317 -0.2394 -0.4152
   88SAPS   H7R 8460   3.205   1.749   9.758  0.9677 -0.1954  0.6788
   88SAPS   H7S 8461   3.171   1.735   9.935 -0.2174 -1.6752  0.2153
   88SAPS   C28 8462   3.004   1.668   9.793  0.2346  0.4317 -0.4063
   88SAPS   H8R 8463   2.937   1.635   9.873  1.6516  1.6713  1.3608
   88SAPS   C29 8464   2.952   1.677   9.668  0.7527  0.2014 -0.0209
   88SAPS   H9R 8465   2.844   1.664   9.657  1.0299 -0.8820 -1.7484
   88SAPS  C210 8466   3.021   1.713   9.538 -0.2030 -0.0129  0.1507
   88SAPS  H10R 8467   3.109   1.778   9.560 -2.0684  2.4106  0.8339
   88SAPS  H10S 8468   2.955   1.782   9.481 -1.0518  0.4105  1.5859
   88SAPS  C211 8469   3.082   1.594   9.467 -0.3460  0.3908 -0.4633
   88SAPS  H11R 8470   3.115   1.509   9.529 -0.4133  0.6237 -0.1026
   88SAPS  C212 8471   3.107   1.588   9.338  0.3408 -0.3702 -0.0039
   88SAPS  H12R 8472   3.170   1.509   9.295  0.5949  0.5414 -1.3590
   88SAPS  C213 8473   3.082   1.695   9.236 -0.1748 -0.3209  0.1833
   88SAPS  H13R 8474   3.145   1.681   9.145 -1.9043 -0.9134 -0.9777
   88SAPS  H13S 8475   3.112   1.793   9.278 -1.0743 -0.0566  0.2192
   88SAPS  C214 8476   2.935   1.707   9.199 -0.3117  0.0351 -0.1265
   88SAPS  H14R 8477   2.866   1.738   9.279 -1.1528 -1.6274 -0.1846
   88SAPS  C215 8478   2.881   1.711   9.076 -0.1120 -0.3299  0.5082
   88SAPS  H15R 8479   2.771   1.712   9.071 -0.0534  0.3228 -2.7724
   88SAPS  C216 8480   2.949   1.707   8.940 -0.4706  0.2493 -0.2169
   88SAPS  H16R 8481   2.884   1.649   8.871 -0.7535  1.1084 -0.6866
   88SAPS  H16S 8482   3.053   1.667   8.939 -0.3153  0.6234 -1.5881
   88SAPS  C217 8483   2.964   1.846   8.880  0.4168  0.0740 -0.1115
   88SAPS  H17R 8484   3.040   1.914   8.926 -1.0216  2.6313 -1.2855
   88SAPS  H17S 8485   2.868   1.899   8.898  0.6766 -0.0185  1.7183
   88SAPS  C218 8486   2.981   1.836   8.728  0.0455  0.0602 -0.5186
   88SAPS  H18R 8487   2.879   1.827   8.684 -0.2065  0.2840  0.0110
   88SAPS  H18S 8488   3.029   1.739   8.706  0.4103  0.5371 -1.9349
   88SAPS  C219 8489   3.052   1.956   8.669 -0.1292 -0.3284 -0.0893
   88SAPS  H19R 8490   3.125   1.995   8.744 -2.0675  0.9229  1.2365
   88SAPS  H19S 8491   2.984   2.040   8.645 -0.9677 -1.2738 -1.1567
   88SAPS  C220 8492   3.137   1.936   8.537  0.4549  0.1722 -0.0557
   88SAPS  H20R 8493   3.071   1.909   8.452  0.3707 -3.3007  0.9733
   88SAPS  H20S 8494   3.187   1.839   8.559  0.1743 -0.2654 -1.2335
   88SAPS  H20T 8495   3.208   2.021   8.525  0.2393  0.6800  1.9260
   88SAPS   C33 8496   3.176   0.949  10.199 -0.0158  1.0241  0.7048
   88SAPS   H3X 8497   3.215   0.912  10.296  0.0699  0.2859  0.3937
   88SAPS   H3Y 8498   3.245   0.942  10.113 -2.0372 -1.3093 -0.8535
   88SAPS   C34 8499   3.065   0.849  10.170 -0.1333  0.2889  0.1437
   88SAPS   H4X 8500   2.995   0.840  10.256  1.7685 -0.0272  1.7476
   88SAPS   H4Y 8501   3.116   0.750  10.168 -1.1135 -0.2310  0.2119
   88SAPS   C35 8502   2.977   0.868  10.041  0.0310 -0.0604 -0.4872
   88SAPS   H5X 8503   2.931   0.969  10.048 -1.2684 -0.6204 -0.7558
   88SAPS   H5Y 8504   2.898   0.791  10.032 -0.5254  0.3962  0.3683
   88SAPS   C36 8505   3.070   0.875   9.916  0.0103 -0.5887  0.0347
   88SAPS   H6X 8506   3.123   0.779   9.928  0.2313 -0.4935 -0.1763
   88SAPS   H6Y 8507   3.134   0.965   9.932 -1.8506  0.6825  0.7253
   88SAPS   C37 8508   2.988   0.885   9.797  0.8810 -0.8817  0.2141
   88SAPS   H7X 8509   2.906   0.959   9.808  0.7335 -0.7762 -1.2984
   88SAPS   H7Y 8510   2.937   0.789   9.776  1.3825 -1.1207  0.0564
   88SAPS   C38 8511   3.060   0.926   9.666  0.2685  0.3661 -0.2285
   88SAPS   H8X 8512   3.148   0.860   9.653  0.0552 -0.0238  0.2580
   88SAPS   H8Y 8513   3.083   1.035   9.660  0.4725  0.3570  0.3314
   88SAPS   C39 8514   2.977   0.892   9.538  0.7526  0.4413  0.3602
   88SAPS   H9X 8515   2.897   0.968   9.530 -1.3550 -1.2028  3.6619
   88SAPS   H9Y 8516   2.930   0.792   9.551 -0.9250  1.4137  2.1902
   88SAPS  C310 8517   3.052   0.902   9.406  0.3443 -0.2748 -0.1575
   88SAPS  H10X 8518   2.975   0.882   9.327  1.3331 -0.8190 -1.0061
   88SAPS  H10Y 8519   3.121   0.816   9.391 -0.2970 -0.4166 -3.0471
   88SAPS  C311 8520   3.117   1.034   9.378 -0.1462 -0.7619  0.0417
   88SAPS  H11X 8521   3.208   1.058   9.437  0.0670 -3.1374  0.7955
   88SAPS  H11Y 8522   3.039   1.112   9.382  0.9911  0.3599  1.5938
   88SAPS  C312 8523   3.166   1.029   9.229  0.0343 -1.1343 -0.1243
   88SAPS  H12X 8524   3.080   0.991   9.171 -0.6410 -1.4015  1.0163
   88SAPS  H12Y 8525   3.251   0.958   9.218  0.5214 -0.8076  1.2405
   88SAPS  C313 8526   3.196   1.174   9.183  0.3345 -0.0420 -0.4671
   88SAPS  H13X 8527   3.286   1.212   9.235  0.1259 -0.3547  0.1367
   88SAPS  H13Y 8528   3.106   1.234   9.209  0.2758 -0.4652  0.3391
   88SAPS  C314 8529   3.210   1.188   9.030 -0.2176 -0.7102  0.1161
   88SAPS  H14X 8530   3.107   1.181   8.988  0.0027 -0.7635 -0.4277
   88SAPS  H14Y 8531   3.279   1.118   8.979  0.7053  0.7826 -0.7818
   88SAPS  C315 8532   3.245   1.340   9.002  0.1946 -0.1839 -0.6363
   88SAPS  H15X 8533   3.330   1.358   9.071 -1.2403 -0.6627  1.3578
   88SAPS  H15Y 8534   3.156   1.398   9.034 -1.0948 -1.8119 -1.1284
   88SAPS  C316 8535   3.274   1.377   8.851  0.2490  0.4445 -0.7429
   88SAPS  H16X 8536   3.355   1.313   8.807 -0.7117 -1.3268 -0.0606
   88SAPS  H16Y 8537   3.303   1.484   8.848  0.9200  0.3476  0.9299
   88SAPS  C317 8538   3.148   1.378   8.766  0.5404 -0.5907 -0.0027
   88SAPS  H17X 8539   3.061   1.438   8.800 -0.2673  0.1337 -3.0686
   88SAPS  H17Y 8540   3.115   1.272   8.761  2.5760 -1.3156  0.8468
   88SAPS  C318 8541   3.176   1.428   8.628 -0.3410 -0.3252  0.0782
   88SAPS  H18X 8542   3.268   1.381   8.588  0.7820  1.4920  0.4426
   88SAPS  H18Y 8543   3.190   1.537   8.641 -0.9840 -0.1983 -0.3112
   88SAPS  H18Z 8544   3.088   1.420   8.562 -1.2538  1.1630  1.0437
   89SAPS     N 8545   2.050   5.349  10.975  0.0338  0.3461 -0.1246
   89SAPS   HN1 8546   2.102   5.370  10.887 -0.4378 -0.0631 -0.5050
   89SAPS   HN2 8547   1.952   5.355  10.941 -0.8486  0.7576  2.3107
   89SAPS   HN3 8548   2.066   5.426  11.044 -1.9248  0.6600  0.0549
   89SAPS   C12 8549   2.084   5.220  11.035  0.1016 -0.6680 -0.4003
   89SAPS  H12A 8550   2.192   5.214  11.041  0.1517 -1.1848 -1.6044
   89SAPS   C13 8551   2.023   5.189  11.171 -0.2737 -0.5538  0.2716
   89SAPS  O13A 8552   1.926   5.264  11.220 -0.2505 -0.3139  0.1602
   89SAPS  O13B 8553   2.074   5.105  11.240 -0.4382  0.8174 -0.4913
   89SAPS   C11 8554   2.039   5.107  10.941 -0.0629 -0.4133 -0.2399
   89SAPS  H11A 8555   1.928   5.113  10.943 -0.0361  1.1827  2.6671
   89SAPS  H11B 8556   2.064   5.008  10.984 -1.2378  0.1856  2.0190
   89SAPS     P 8557   2.221   5.094  10.752  0.2200  0.1959  0.4381
   89SAPS   O13 8558   2.211   5.145  10.612 -0.2846  0.0309 -0.1873
   89SAPS   O14 8559   2.321   5.146  10.842  0.5408  0.0750 -0.4732
   89SAPS   O12 8560   2.085   5.130  10.806  0.6455 -0.1342 -0.3584
   89SAPS   O11 8561   2.228   4.935  10.760 -0.1742 -0.3333 -0.3669
   89SAPS    C1 8562   2.131   4.846  10.700  0.5212  0.0636 -0.1249
   89SAPS    HA 8563   2.138   4.757  10.766  0.9203 -0.2664 -0.6012
   89SAPS    HB 8564   2.023   4.868  10.710  0.2938 -1.5535  1.4770
   89SAPS    C2 8565   2.166   4.802  10.555 -0.4838  0.6544 -0.6252
   89SAPS    HS 8566   2.130   4.699  10.536  1.4041 -0.6038  2.0194
   89SAPS   O21 8567   2.308   4.815  10.536 -0.7463 -0.4823 -0.7609
   89SAPS   C21 8568   2.369   4.697  10.553 -0.4436 -0.0792  0.2243
   89SAPS   O22 8569   2.322   4.600  10.606 -0.4210  0.5143 -0.3483
   89SAPS   C22 8570   2.511   4.702  10.521  0.5672 -0.0669  0.3504
   89SAPS   H2R 8571   2.546   4.802  10.552  1.1864 -0.5308  1.1810
   89SAPS   H2S 8572   2.565   4.618  10.569 -0.0960 -0.1555  0.9560
   89SAPS    C3 8573   2.080   4.892  10.456  0.4760  0.6044 -0.0850
   89SAPS    HX 8574   2.110   4.998  10.471 -0.9159  0.9649  0.3236
   89SAPS    HY 8575   1.974   4.890  10.490  0.1323 -0.7888 -1.1586
   89SAPS   O31 8576   2.079   4.849  10.319 -0.3710  0.1249  0.4147
   89SAPS   C31 8577   2.188   4.887  10.254  1.4085  0.9850  0.2098
   89SAPS   O32 8578   2.278   4.961  10.286  0.5025 -0.1242 -0.0335
   89SAPS   C32 8579   2.175   4.826  10.109 -0.0967 -0.1018  0.7273
   89SAPS   H2X 8580   2.072   4.849  10.074 -0.5744  0.1912  2.2501
   89SAPS   H2Y 8581   2.188   4.716  10.114  2.4090 -0.0480 -2.0501
   89SAPS   C23 8582   2.520   4.700  10.372 -0.1794 -0.6321  0.5233
   89SAPS   H3R 8583   2.627   4.698  10.341  0.0059 -0.2261  1.1331
   89SAPS   H3S 8584   2.477   4.793  10.331  0.9249  0.0903  0.9664
   89SAPS   C24 8585   2.450   4.591  10.294  0.2902 -0.1817  0.4785
   89SAPS   H4R 8586   2.464   4.606  10.184 -4.8270 -0.1645 -0.4085
   89SAPS   H4S 8587   2.340   4.589  10.307  0.5015 -2.7353  2.6309
   89SAPS   C25 8588   2.491   4.454  10.333  0.4126 -0.0581 -0.6613
   89SAPS   H5R 8589   2.486   4.432  10.441  0.0240  0.5897 -0.5385
   89SAPS   C26 8590   2.531   4.359  10.252  0.3489 -0.4293 -0.1373
   89SAPS   H6R 8591   2.571   4.264  10.289  0.5366 -0.5401 -0.6199
   89SAPS   C27 8592   2.554   4.363  10.105 -0.3118  0.5392 -0.6417
   89SAPS   H7R 8593   2.470   4.416  10.055  0.5724  0.2550 -2.5203
   89SAPS   H7S 8594   2.537   4.257  10.077 -0.5241  0.5424 -0.5286
   89SAPS   C28 8595   2.674   4.424  10.045  0.0444 -0.0390 -0.0973
   89SAPS   H8R 8596   2.755   4.440  10.118 -0.6700  0.2940  0.6430
   89SAPS   C29 8597   2.701   4.462   9.923 -0.7290 -0.3976  0.1164
   89SAPS   H9R 8598   2.800   4.508   9.911 -0.8501 -0.1594  0.0197
   89SAPS  C210 8599   2.616   4.448   9.804 -0.6221  0.2683  0.4277
   89SAPS  H10R 8600   2.515   4.412   9.831 -2.0656  2.1450 -2.0214
   89SAPS  H10S 8601   2.664   4.380   9.731 -1.0356  1.3195 -0.8760
   89SAPS  C211 8602   2.610   4.584   9.732  0.1475 -0.9135  0.4954
   89SAPS  H11R 8603   2.625   4.674   9.794  1.1760 -0.1235 -0.8352
   89SAPS  C212 8604   2.574   4.597   9.603  0.4869 -0.3094  0.5519
   89SAPS  H12R 8605   2.550   4.700   9.572  0.4620  0.1719  2.0815
   89SAPS  C213 8606   2.526   4.489   9.505  0.4199  1.2290  0.4046
   89SAPS  H13R 8607   2.421   4.459   9.523 -0.5523  0.1829 -5.2474
   89SAPS  H13S 8608   2.590   4.398   9.508  1.3907  1.7884 -1.5035
   89SAPS  C214 8609   2.526   4.529   9.362 -1.0895  0.3259  0.2131
   89SAPS  H14R 8610   2.625   4.568   9.333 -0.0972 -0.0272  2.8123
   89SAPS  C215 8611   2.430   4.512   9.272 -0.0620  0.2364 -0.0754
   89SAPS  H15R 8612   2.452   4.546   9.170 -1.6130 -0.2126 -0.5860
   89SAPS  C216 8613   2.300   4.441   9.293 -0.8180 -0.5293 -0.0272
   89SAPS  H16R 8614   2.306   4.361   9.369 -3.2474 -0.7238  0.0461
   89SAPS  H16S 8615   2.267   4.406   9.192 -1.7249  1.5893 -0.5179
   89SAPS  C217 8616   2.196   4.543   9.349  0.1278 -0.1222  0.1613
   89SAPS  H17R 8617   2.199   4.634   9.285 -0.0774  0.2715  0.7013
   89SAPS  H17S 8618   2.229   4.570   9.452 -0.1242  0.6403  0.0460
   89SAPS  C218 8619   2.052   4.496   9.332 -0.3521  0.2818 -0.0652
   89SAPS  H18R 8620   2.033   4.393   9.370  0.0830  0.2356  0.0291
   89SAPS  H18S 8621   2.029   4.489   9.223 -1.1222  2.2016 -0.0697
   89SAPS  C219 8622   1.953   4.599   9.390 -0.7316 -0.3492  0.5038
   89SAPS  H19R 8623   2.008   4.637   9.479 -0.5384 -0.3109  0.3699
   89SAPS  H19S 8624   1.860   4.553   9.428 -1.3403 -0.6136 -1.1905
   89SAPS  C220 8625   1.914   4.701   9.290  0.1889 -0.2431 -0.2681
   89SAPS  H20R 8626   1.836   4.768   9.331  0.3062 -0.1018 -0.2770
   89SAPS  H20S 8627   1.866   4.639   9.211  1.1523  1.0201 -1.9039
   89SAPS  H20T 8628   1.995   4.758   9.240 -0.6531  1.1559 -0.0673
   89SAPS   C33 8629   2.263   4.882   9.996  0.0352  0.3849  0.1227
   89SAPS   H3X 8630   2.372   4.883  10.020 -0.3986  1.8103  2.2787
   89SAPS   H3Y 8631   2.220   4.981   9.972 -0.3819  0.7094  2.0592
   89SAPS   C34 8632   2.243   4.783   9.878 -0.0146 -0.1914  0.1846
   89SAPS   H4X 8633   2.135   4.773   9.852 -0.1737  1.5232  0.0503
   89SAPS   H4Y 8634   2.281   4.683   9.906  0.4840  0.1751  0.8510
   89SAPS   C35 8635   2.321   4.826   9.756 -0.6098 -0.1550  0.0118
   89SAPS   H5X 8636   2.336   4.732   9.699  0.1454 -0.6277  0.9728
   89SAPS   H5Y 8637   2.419   4.873   9.781 -0.2337 -0.5918 -0.6266
   89SAPS   C36 8638   2.238   4.905   9.653  0.3505  0.1231  0.0593
   89SAPS   H6X 8639   2.214   5.006   9.693  2.6830  1.3952 -1.5308
   89SAPS   H6Y 8640   2.147   4.845   9.629  1.8407 -1.6158 -1.4982
   89SAPS   C37 8641   2.321   4.921   9.529  0.1619  0.0060  0.4020
   89SAPS   H7X 8642   2.358   4.824   9.489 -1.9976 -0.5701 -0.3189
   89SAPS   H7Y 8643   2.412   4.975   9.562  0.6234 -0.7716  0.4337
   89SAPS   C38 8644   2.246   4.987   9.412  0.1538 -0.1708 -0.1659
   89SAPS   H8X 8645   2.210   5.083   9.454  2.2873 -0.4009  2.4561
   89SAPS   H8Y 8646   2.166   4.912   9.397 -0.1952  0.0491  0.5240
   89SAPS   C39 8647   2.323   5.007   9.282 -0.1968 -0.3891 -0.5224
   89SAPS   H9X 8648   2.353   4.902   9.261  1.0821 -0.3332  0.9164
   89SAPS   H9Y 8649   2.419   5.063   9.281  0.3174 -1.1792  0.9785
   89SAPS  C310 8650   2.239   5.062   9.164 -0.0572  0.9836  0.1371
   89SAPS  H10X 8651   2.304   5.090   9.079  0.1537  0.7204  0.2107
   89SAPS  H10Y 8652   2.187   5.151   9.203 -2.1758 -0.7952  1.6391
   89SAPS  C311 8653   2.135   4.962   9.102  0.3625 -0.8205 -0.4863
   89SAPS  H11X 8654   2.085   5.028   9.029 -0.2719  0.1685  0.8162
   89SAPS  H11Y 8655   2.051   4.944   9.172  1.1687  0.5142  0.8597
   89SAPS  C312 8656   2.191   4.843   9.028  0.8234  0.3879 -0.0131
   89SAPS  H12X 8657   2.248   4.776   9.096 -0.8017 -0.2842  0.7308
   89SAPS  H12Y 8658   2.270   4.876   8.957  1.7724  0.6142  1.1115
   89SAPS  C313 8659   2.088   4.757   8.947 -0.3534 -0.3597  0.4125
   89SAPS  H13X 8660   2.048   4.800   8.852  1.4555  1.1140  0.2826
   89SAPS  H13Y 8661   2.003   4.749   9.018 -1.3003  3.7446 -0.0091
   89SAPS  C314 8662   2.138   4.614   8.923 -0.4127 -0.0878  0.4854
   89SAPS  H14X 8663   2.163   4.578   9.025 -1.3412 -0.9691  0.4154
   89SAPS  H14Y 8664   2.229   4.618   8.859 -0.8304  2.0643 -0.0394
   89SAPS  C315 8665   2.027   4.519   8.863  0.0358 -0.0194 -0.2706
   89SAPS  H15X 8666   2.001   4.559   8.762 -1.9653  0.3332  0.3387
   89SAPS  H15Y 8667   1.944   4.539   8.935  1.4867  1.5131  1.0571
   89SAPS  C316 8668   2.074   4.376   8.868  0.0263  0.0399 -0.9439
   89SAPS  H16X 8669   2.038   4.325   8.960 -2.6870  0.5701 -1.6406
   89SAPS  H16Y 8670   2.184   4.361   8.866  0.1947  0.8535  0.6699
   89SAPS  C317 8671   2.008   4.303   8.747  0.0529 -0.5385 -0.1375
   89SAPS  H17X 8672   1.981   4.378   8.669  0.2540 -0.2450  0.0736
   89SAPS  H17Y 8673   1.909   4.269   8.783  0.8330 -0.0028  2.7303
   89SAPS  C318 8674   2.090   4.199   8.682 -0.3307  0.3217 -0.5430
   89SAPS  H18X 8675   2.018   4.143   8.619  1.1958 -0.5893 -1.5589
   89SAPS  H18Y 8676   2.129   4.130   8.761  0.0042  0.6764 -0.3912
   89SAPS  H18Z 8677   2.180   4.229   8.623 -0.0708  0.5129 -0.0576
   90SAPS     N 8678   3.876   1.573  10.850 -0.4975 -0.1660 -0.1377
   90SAPS   HN1 8679   3.941   1.527  10.783  0.8063 -0.4299  1.2435
   90SAPS   HN2 8680   3.917   1.550  10.943 -2.2320  0.4791  0.8407
   90SAPS   HN3 8681   3.777   1.541  10.850 -0.9569  1.0679  1.7262
   90SAPS   C12 8682   3.859   1.721  10.826 -0.2084  0.1121  0.0183
   90SAPS  H12A 8683   3.856   1.723  10.718 -0.6855  0.2118  0.0334
   90SAPS   C13 8684   3.721   1.773  10.897 -0.4618  0.0653 -0.1965
   90SAPS  O13A 8685   3.639   1.687  10.931  0.2421  0.7198  0.2068
   90SAPS  O13B 8686   3.678   1.887  10.870 -0.1918 -0.5098  0.3575
   90SAPS   C11 8687   3.983   1.796  10.883  0.1406 -0.6338 -0.4051
   90SAPS  H11A 8688   4.001   1.763  10.988 -0.6253  1.4077  0.4160
   90SAPS  H11B 8689   3.955   1.903  10.881 -0.0090 -0.6789 -1.3082
   90SAPS     P 8690   4.198   1.894  10.773  0.3867 -0.3451  1.0853
   90SAPS   O13 8691   4.173   1.999  10.877  0.3982  0.5305  0.2786
   90SAPS   O14 8692   4.334   1.833  10.765 -0.0112  0.4914  0.5881
   90SAPS   O12 8693   4.101   1.770  10.801 -0.3408  0.3058  0.1088
   90SAPS   O11 8694   4.148   1.951  10.635  0.3981  0.5933  0.3125
   90SAPS    C1 8695   4.057   1.893  10.546 -0.2771 -0.0357 -0.4652
   90SAPS    HA 8696   4.097   1.810  10.484  0.8287 -0.4492  0.7496
   90SAPS    HB 8697   3.972   1.852  10.605 -1.2188 -0.9311 -2.3697
   90SAPS    C2 8698   3.988   1.986  10.445  0.1792  0.0969 -0.3527
   90SAPS    HS 8699   3.917   1.917  10.395  2.4575 -1.6984 -1.2771
   90SAPS   O21 8700   4.086   2.038  10.356  0.5337  0.4576 -0.1209
   90SAPS   C21 8701   4.043   2.068  10.237 -0.4951 -0.4336 -0.2681
   90SAPS   O22 8702   3.951   2.020  10.178 -0.0854  0.7110  0.4243
   90SAPS   C22 8703   4.108   2.198  10.196 -0.0822  0.2678  0.0859
   90SAPS   H2R 8704   4.173   2.243  10.274  1.2249  0.5721 -1.1387
   90SAPS   H2S 8705   4.184   2.168  10.120 -2.9084 -1.4846 -2.2403
   90SAPS    C3 8706   3.914   2.093  10.524  0.3901 -0.4437  0.2949
   90SAPS    HX 8707   3.991   2.150  10.580 -0.7627 -0.0449  1.5387
   90SAPS    HY 8708   3.855   2.042  10.604  1.1956 -0.2709  1.0165
   90SAPS   O31 8709   3.842   2.182  10.437  0.3257  0.1209 -0.2333
   90SAPS   C31 8710   3.732   2.132  10.379 -0.4349 -0.2564 -0.1421
   90SAPS   O32 8711   3.696   2.017  10.386  0.0866  0.0708  0.1957
   90SAPS   C32 8712   3.649   2.248  10.325 -0.3610  0.2945 -0.1855
   90SAPS   H2X 8713   3.688   2.339  10.376  1.1171 -0.5567  0.2619
   90SAPS   H2Y 8714   3.545   2.240  10.362 -1.2056 -1.2460 -2.6585
   90SAPS   C23 8715   4.011   2.313  10.152 -0.1411  0.9280 -0.2688
   90SAPS   H3R 8716   4.070   2.397  10.196  0.8820  0.6718 -1.0907
   90SAPS   H3S 8717   3.928   2.312  10.225  0.6151 -0.4468  0.6150
   90SAPS   C24 8718   3.977   2.336  10.011  0.0420 -0.1208 -0.6019
   90SAPS   H4R 8719   3.938   2.439  10.000 -2.8631 -1.2053 -1.4180
   90SAPS   H4S 8720   3.888   2.273   9.990  0.9003 -1.3422 -0.7299
   90SAPS   C25 8721   4.080   2.316   9.905  0.8256 -0.3763  0.9094
   90SAPS   H5R 8722   4.154   2.397   9.911  0.7062 -0.2108  0.2566
   90SAPS   C26 8723   4.096   2.211   9.823  0.0641  0.5320 -0.1485
   90SAPS   H6R 8724   4.175   2.223   9.748 -0.7915  2.8459 -0.7916
   90SAPS   C27 8725   3.998   2.092   9.805  0.5373 -0.2344  0.4341
   90SAPS   H7R 8726   3.960   2.064   9.906  1.3319 -2.9594  0.0586
   90SAPS   H7S 8727   4.043   2.000   9.762  0.4354 -1.1784  2.2242
   90SAPS   C28 8728   3.874   2.133   9.725 -0.1012  0.0042  0.1719
   90SAPS   H8R 8729   3.816   2.214   9.772  0.2050  0.0811  0.4140
   90SAPS   C29 8730   3.825   2.077   9.614  0.9589 -0.5042 -0.4308
   90SAPS   H9R 8731   3.736   2.124   9.568  0.7457  1.7507  2.0552
   90SAPS  C210 8732   3.877   1.956   9.541 -0.0187 -0.1728  0.5738
   90SAPS  H10R 8733   3.987   1.968   9.538  0.0069 -0.4354  0.5200
   90SAPS  H10S 8734   3.842   1.947   9.436 -1.0626 -0.4291  0.9261
   90SAPS  C211 8735   3.838   1.833   9.609  0.5986 -0.2235  0.0309
   90SAPS  H11R 8736   3.873   1.818   9.713  0.1450  1.1300  0.3930
   90SAPS  C212 8737   3.761   1.737   9.555 -0.5548 -0.1978 -0.7384
   90SAPS  H12R 8738   3.735   1.651   9.618 -1.7791 -0.2814 -1.3210
   90SAPS  C213 8739   3.694   1.747   9.417 -0.1603 -0.7271 -0.0220
   90SAPS  H13R 8740   3.653   1.848   9.395 -1.5987 -1.2966 -0.0593
   90SAPS  H13S 8741   3.597   1.696   9.403 -0.8472  0.6789 -0.5452
   90SAPS  C214 8742   3.788   1.717   9.303 -0.7911 -0.4930 -0.0290
   90SAPS  H14R 8743   3.892   1.733   9.335 -1.4682  1.9333  1.2293
   90SAPS  C215 8744   3.755   1.668   9.183 -0.3232  0.5530  0.3506
   90SAPS  H15R 8745   3.822   1.667   9.095 -1.3713 -0.9636 -0.4770
   90SAPS  C216 8746   3.617   1.636   9.132  0.1872  0.7152  0.1061
   90SAPS  H16R 8747   3.542   1.607   9.209 -0.5092  0.7046 -0.5680
   90SAPS  H16S 8748   3.623   1.547   9.065  1.5029 -0.3901  1.5890
   90SAPS  C217 8749   3.572   1.761   9.053  0.3090  0.5284  0.4010
   90SAPS  H17R 8750   3.629   1.778   8.959 -0.4335  1.4542  0.1131
   90SAPS  H17S 8751   3.571   1.849   9.120 -1.2262  0.4261  0.5560
   90SAPS  C218 8752   3.422   1.741   9.010 -0.1104  0.3348  0.0160
   90SAPS  H18R 8753   3.361   1.733   9.102  0.3511  0.1649  0.3097
   90SAPS  H18S 8754   3.403   1.649   8.950  2.1163  2.5130 -4.5309
   90SAPS  C219 8755   3.372   1.858   8.931 -0.1097 -0.2991  0.4400
   90SAPS  H19R 8756   3.390   1.948   8.994  1.9368 -0.3331 -0.0190
   90SAPS  H19S 8757   3.263   1.845   8.916  0.3031 -0.5427 -3.4313
   90SAPS  C220 8758   3.438   1.871   8.792  0.0726  0.1352  0.2058
   90SAPS  H20R 8759   3.548   1.878   8.802  0.2424 -1.9665  0.1773
   90SAPS  H20S 8760   3.397   1.955   8.732  0.2074 -2.6401 -4.2244
   90SAPS  H20T 8761   3.407   1.792   8.721  2.0933  0.9688 -1.7197
   90SAPS   C33 8762   3.635   2.255  10.170 -0.1830  0.0337 -0.8574
   90SAPS   H3X 8763   3.600   2.164  10.118  0.2385 -0.3968 -0.3942
   90SAPS   H3Y 8764   3.742   2.274  10.144  0.3197  2.0367  2.1086
   90SAPS   C34 8765   3.562   2.383  10.130  0.0086  0.4165 -0.5173
   90SAPS   H4X 8766   3.631   2.470  10.123 -1.5621  2.0607  2.4068
   90SAPS   H4Y 8767   3.499   2.428  10.209 -0.7321  1.3216 -1.5958
   90SAPS   C35 8768   3.491   2.378   9.996 -0.1154 -0.2092 -0.7978
   90SAPS   H5X 8769   3.431   2.472   9.987 -1.5818 -0.8253  1.5927
   90SAPS   H5Y 8770   3.418   2.295  10.004  2.5404 -2.6294 -0.1790
   90SAPS   C36 8771   3.585   2.365   9.878 -0.2007  0.0467  0.5937
   90SAPS   H6X 8772   3.592   2.255   9.864 -1.3025 -0.1635  1.5528
   90SAPS   H6Y 8773   3.681   2.407   9.914  1.8710 -1.7003 -2.4289
   90SAPS   C37 8774   3.526   2.430   9.748 -0.4372  0.4997 -0.3108
   90SAPS   H7X 8775   3.532   2.539   9.766 -0.6083  0.9009 -2.4150
   90SAPS   H7Y 8776   3.421   2.395   9.751  0.0690 -1.0190  0.9433
   90SAPS   C38 8777   3.600   2.408   9.608  0.4119 -0.2121 -0.4389
   90SAPS   H8X 8778   3.591   2.306   9.565 -1.0908 -1.4392  2.4506
   90SAPS   H8Y 8779   3.710   2.424   9.615  0.7395 -2.7563  3.6781
   90SAPS   C39 8780   3.548   2.498   9.498 -0.3063 -0.1637  0.2968
   90SAPS   H9X 8781   3.567   2.605   9.522 -1.1569  0.3840 -1.3209
   90SAPS   H9Y 8782   3.439   2.479   9.497  0.1160 -3.9346  3.0521
   90SAPS  C310 8783   3.617   2.454   9.365  0.3264  0.6535 -0.0065
   90SAPS  H10X 8784   3.583   2.352   9.340 -1.1153  1.0559  0.2523
   90SAPS  H10Y 8785   3.727   2.448   9.382  0.3695  4.3416  2.0813
   90SAPS  C311 8786   3.580   2.549   9.252  0.1986 -0.5773  0.5864
   90SAPS  H11X 8787   3.632   2.647   9.259  0.4911 -0.5739 -1.1807
   90SAPS  H11Y 8788   3.470   2.561   9.247  0.4170  1.1472 -1.0081
   90SAPS  C312 8789   3.617   2.492   9.115 -0.4099 -0.4855 -0.2641
   90SAPS  H12X 8790   3.587   2.386   9.107 -0.8517 -0.2424 -2.4429
   90SAPS  H12Y 8791   3.726   2.491   9.094 -0.2485 -0.4565  0.5333
   90SAPS  C313 8792   3.549   2.580   9.003  0.3658  0.1739  0.4156
   90SAPS  H13X 8793   3.439   2.585   9.019 -0.0189 -1.2883 -1.4002
   90SAPS  H13Y 8794   3.558   2.521   8.909 -0.4358 -0.7653  0.9040
   90SAPS  C314 8795   3.601   2.726   8.995  0.2677  0.4492  0.4209
   90SAPS  H14X 8796   3.710   2.735   8.976 -0.0435  0.1168 -1.7329
   90SAPS  H14Y 8797   3.564   2.777   9.087 -1.6910  1.1746 -0.7122
   90SAPS  C315 8798   3.527   2.802   8.876 -0.8847  0.4737 -0.1564
   90SAPS  H15X 8799   3.418   2.810   8.897 -1.0888  1.9547 -1.5714
   90SAPS  H15Y 8800   3.537   2.741   8.783 -2.0277  1.5349 -1.0253
   90SAPS  C316 8801   3.580   2.941   8.859  0.1430 -0.1063  0.3345
   90SAPS  H16X 8802   3.689   2.947   8.836 -0.0691  0.5435 -0.5703
   90SAPS  H16Y 8803   3.570   3.007   8.947 -1.4998  0.2217 -0.0643
   90SAPS  C317 8804   3.506   3.012   8.747  0.9479  0.0694  0.1002
   90SAPS  H17X 8805   3.493   2.948   8.657 -1.3792  1.9150 -1.0001
   90SAPS  H17Y 8806   3.562   3.102   8.712  0.0551  0.0599 -1.4850
   90SAPS  C318 8807   3.374   3.069   8.788 -0.3776 -0.3173 -0.3529
   90SAPS  H18X 8808   3.382   3.145   8.869 -3.6603 -0.3102  0.0904
   90SAPS  H18Y 8809   3.315   2.986   8.831  1.7298 -1.3596  0.6889
   90SAPS  H18Z 8810   3.323   3.116   8.701 -1.5970 -0.4163  0.2913
   91SAPS     N 8811   1.890   1.221   6.040  0.1736  0.6269  0.5336
   91SAPS   HN1 8812   1.990   1.230   6.013  0.4162 -0.0377  1.1761
   91SAPS   HN2 8813   1.846   1.267   5.958 -0.2889  1.2995  1.1440
   91SAPS   HN3 8814   1.874   1.276   6.127  1.2790  1.0986  0.4640
   91SAPS   C12 8815   1.864   1.080   6.054 -0.6433 -0.2716 -0.1352
   91SAPS  H12A 8816   1.757   1.069   6.062 -0.4889 -1.6711  0.3103
   91SAPS   C13 8817   1.903   0.991   5.939  0.6608  0.1682  0.2986
   91SAPS  O13A 8818   1.944   1.042   5.834  0.0020 -0.2542  0.3320
   91SAPS  O13B 8819   1.862   0.872   5.939 -0.3518 -0.0913 -0.1346
   91SAPS   C11 8820   1.949   1.037   6.172  0.3378  0.1334 -0.2237
   91SAPS  H11A 8821   1.926   0.929   6.185 -0.3483  0.3804  0.7587
   91SAPS  H11B 8822   1.917   1.084   6.267  0.0478 -0.4271 -0.0371
   91SAPS     P 8823   2.195   0.943   6.196 -0.0201  0.0705  0.0436
   91SAPS   O13 8824   2.133   0.816   6.239 -0.0703 -0.1029 -0.5193
   91SAPS   O14 8825   2.292   0.930   6.090  0.2702 -0.5274  0.4469
   91SAPS   O12 8826   2.087   1.054   6.149 -0.2290  0.3723  0.0339
   91SAPS   O11 8827   2.273   1.006   6.319 -0.1792 -0.0806  0.6836
   91SAPS    C1 8828   2.223   1.112   6.412 -0.1714  0.3381  0.9652
   91SAPS    HA 8829   2.250   1.212   6.373  1.1943  0.0112  1.0299
   91SAPS    HB 8830   2.113   1.105   6.424 -0.3266  0.0283 -0.4131
   91SAPS    C2 8831   2.285   1.086   6.556 -0.0683 -0.1587 -0.2144
   91SAPS    HS 8832   2.241   1.164   6.621 -0.3888 -0.5389  0.0309
   91SAPS   O21 8833   2.430   1.101   6.541  0.1500 -0.9031 -0.1519
   91SAPS   C21 8834   2.481   1.222   6.572  0.3501  0.6245 -0.1501
   91SAPS   O22 8835   2.421   1.325   6.583  0.1121 -0.6716 -0.0030
   91SAPS   C22 8836   2.634   1.205   6.603 -0.0508  0.0262 -0.3091
   91SAPS   H2R 8837   2.688   1.150   6.523 -1.2008  0.1862 -1.2121
   91SAPS   H2S 8838   2.680   1.306   6.611  0.0590  0.0455 -1.0608
   91SAPS    C3 8839   2.248   0.942   6.601  0.1710 -0.1938  0.4712
   91SAPS    HX 8840   2.317   0.868   6.555  0.9682 -0.3762  1.8990
   91SAPS    HY 8841   2.151   0.912   6.555  1.1045  0.7649 -2.3893
   91SAPS   O31 8842   2.240   0.932   6.744 -0.0773  0.4304  0.2445
   91SAPS   C31 8843   2.342   0.864   6.802 -0.4352 -0.5737 -0.9235
   91SAPS   O32 8844   2.444   0.829   6.747  0.0857 -0.0106 -0.1265
   91SAPS   C32 8845   2.313   0.857   6.952 -0.4031 -0.9284  0.0093
   91SAPS   H2X 8846   2.253   0.764   6.966  0.3696 -1.7093 -1.5211
   91SAPS   H2Y 8847   2.254   0.947   6.980 -0.3978 -1.0677  0.4885
   91SAPS   C23 8848   2.663   1.133   6.735 -0.5158 -0.5782 -0.2816
   91SAPS   H3R 8849   2.773   1.127   6.747 -0.4868  0.5882  0.1085
   91SAPS   H3S 8850   2.624   1.029   6.729 -0.7472 -0.5751  0.9517
   91SAPS   C24 8851   2.613   1.201   6.869 -0.0732  0.1799  0.1633
   91SAPS   H4R 8852   2.647   1.148   6.960  1.7331 -1.4967 -1.3855
   91SAPS   H4S 8853   2.504   1.180   6.869  0.0796 -0.6825  1.3206
   91SAPS   C25 8854   2.648   1.346   6.887 -0.4282  0.8251  0.5081
   91SAPS   H5R 8855   2.610   1.403   6.801 -1.1052 -1.1313 -0.5482
   91SAPS   C26 8856   2.711   1.409   6.990  0.6037 -0.4449 -0.1895
   91SAPS   H6R 8857   2.699   1.518   6.991 -0.7333 -0.5773  0.7401
   91SAPS   C27 8858   2.765   1.358   7.121  0.7153  0.7889 -1.1192
   91SAPS   H7R 8859   2.803   1.255   7.103 -0.3041  0.2583 -0.3591
   91SAPS   H7S 8860   2.677   1.352   7.189  0.1150  0.9807 -1.8537
   91SAPS   C28 8861   2.869   1.439   7.177 -0.6424  0.7364  0.3586
   91SAPS   H8R 8862   2.940   1.488   7.109 -0.7744  1.1932  0.5477
   91SAPS   C29 8863   2.885   1.464   7.306 -0.6855 -0.0950 -0.5370
   91SAPS   H9R 8864   2.983   1.507   7.329 -1.0474 -0.2563  1.4532
   91SAPS  C210 8865   2.795   1.440   7.428 -0.2554 -0.1390  0.0534
   91SAPS  H10R 8866   2.691   1.430   7.389 -0.0896  2.4478 -1.2755
   91SAPS  H10S 8867   2.805   1.525   7.498  0.7188  0.2064 -0.4773
   91SAPS  C211 8868   2.843   1.322   7.521  0.1586 -0.1170  0.2132
   91SAPS  H11R 8869   2.900   1.245   7.467 -0.9915 -0.7726 -0.0830
   91SAPS  C212 8870   2.831   1.304   7.654  0.9028 -0.3852  0.6924
   91SAPS  H12R 8871   2.877   1.214   7.697 -0.3303 -0.4871  1.8406
   91SAPS  C213 8872   2.756   1.391   7.753  0.2270  0.3592  0.4290
   91SAPS  H13R 8873   2.719   1.484   7.704 -1.1120  0.8258  2.2256
   91SAPS  H13S 8874   2.826   1.432   7.828  0.8077 -1.5703  1.0001
   91SAPS  C214 8875   2.640   1.327   7.817 -0.0406 -0.2341 -0.5169
   91SAPS  H14R 8876   2.559   1.307   7.745  1.2749 -0.5980 -1.9655
   91SAPS  C215 8877   2.623   1.305   7.948  0.2518 -0.0843 -0.1938
   91SAPS  H15R 8878   2.531   1.254   7.980 -0.7867  1.4423 -0.6630
   91SAPS  C216 8879   2.723   1.331   8.053  0.0527  0.5694  0.4559
   91SAPS  H16R 8880   2.812   1.374   8.003 -2.2225  1.6070 -3.1273
   91SAPS  H16S 8881   2.745   1.241   8.114 -0.5969  1.0949  1.4981
   91SAPS  C217 8882   2.688   1.445   8.147 -0.3606 -0.7083 -0.3069
   91SAPS  H17R 8883   2.695   1.538   8.085 -1.0127 -1.5386 -1.6851
   91SAPS  H17S 8884   2.764   1.456   8.226 -2.2693  0.6311  1.4512
   91SAPS  C218 8885   2.566   1.439   8.235 -0.5838  0.5631  0.5687
   91SAPS  H18R 8886   2.468   1.463   8.186 -0.9126 -0.0404  0.9239
   91SAPS  H18S 8887   2.569   1.522   8.309  1.4956 -1.4899  2.9598
   91SAPS  C219 8888   2.548   1.303   8.299  0.5979 -0.2279 -0.6291
   91SAPS  H19R 8889   2.637   1.276   8.359  0.0429 -2.6882 -0.7910
   91SAPS  H19S 8890   2.547   1.231   8.215  4.0516 -3.6756  1.9688
   91SAPS  C220 8891   2.431   1.288   8.387  0.5252 -0.4264  0.0602
   91SAPS  H20R 8892   2.424   1.183   8.422 -0.3215 -1.1875 -2.1948
   91SAPS  H20S 8893   2.339   1.310   8.328  2.2681  3.1571 -1.6831
   91SAPS  H20T 8894   2.436   1.348   8.480 -0.6884  0.5710 -0.4839
   91SAPS   C33 8895   2.447   0.856   7.032  0.0480 -0.8148  0.1765
   91SAPS   H3X 8896   2.490   0.956   7.008 -0.7545 -0.2725  0.9470
   91SAPS   H3Y 8897   2.521   0.790   6.981  3.4052  1.3827  1.8654
   91SAPS   C34 8898   2.435   0.840   7.183 -0.0810  0.6518 -0.4455
   91SAPS   H4X 8899   2.392   0.743   7.217 -0.6964  1.1798  0.3072
   91SAPS   H4Y 8900   2.363   0.918   7.215 -0.7857 -0.3572  0.5173
   91SAPS   C35 8901   2.567   0.874   7.275 -0.0030 -0.3516 -0.1246
   91SAPS   H5X 8902   2.593   0.976   7.240  2.7355 -1.3578 -1.3010
   91SAPS   H5Y 8903   2.643   0.798   7.248 -0.6651 -0.7157 -1.0359
   91SAPS   C36 8904   2.542   0.883   7.435 -0.1770  1.0640  1.7128
   91SAPS   H6X 8905   2.518   0.779   7.464 -1.3670  0.7623 -0.2065
   91SAPS   H6Y 8906   2.447   0.936   7.456 -1.3891 -0.1487 -0.4808
   91SAPS   C37 8907   2.650   0.937   7.521 -0.1324 -0.8098 -0.1462
   91SAPS   H7X 8908   2.687   1.037   7.490 -0.8877 -0.6368 -0.5408
   91SAPS   H7Y 8909   2.737   0.871   7.504 -0.0933 -0.9824  0.6748
   91SAPS   C38 8910   2.635   0.934   7.673  0.5707  0.4667 -0.0060
   91SAPS   H8X 8911   2.573   0.846   7.697 -1.7345  1.6297 -1.3976
   91SAPS   H8Y 8912   2.578   1.028   7.693 -2.5126 -0.8282 -1.9999
   91SAPS   C39 8913   2.765   0.922   7.750 -0.0053 -0.0691 -0.5190
   91SAPS   H9X 8914   2.829   1.008   7.720 -0.6688  0.8165  0.5402
   91SAPS   H9Y 8915   2.826   0.834   7.720  1.1536  1.0044 -1.4279
   91SAPS  C310 8916   2.747   0.901   7.900  0.5021  0.6521 -0.7032
   91SAPS  H10X 8917   2.649   0.856   7.925  0.2245  0.8069 -1.4948
   91SAPS  H10Y 8918   2.729   1.003   7.940  0.2167  0.5184 -0.4862
   91SAPS  C311 8919   2.861   0.835   7.986  0.2965  0.4042  0.3422
   91SAPS  H11X 8920   2.956   0.890   7.970  2.1843 -2.9008 -0.8870
   91SAPS  H11Y 8921   2.884   0.738   7.938 -3.1036 -1.2819  1.7999
   91SAPS  C312 8922   2.837   0.822   8.139  0.5075  0.0724  0.0407
   91SAPS  H12X 8923   2.911   0.751   8.182  1.1467  1.1602  0.8049
   91SAPS  H12Y 8924   2.737   0.778   8.159  0.4292  0.4555  0.5242
   91SAPS  C313 8925   2.871   0.954   8.203  0.1260  0.1369 -0.4494
   91SAPS  H13X 8926   2.804   1.035   8.167 -0.8314 -0.6585 -0.5073
   91SAPS  H13Y 8927   2.977   0.980   8.185  0.8849 -1.0454  1.8961
   91SAPS  C314 8928   2.873   0.956   8.361 -1.0340  0.1387  0.6448
   91SAPS  H14X 8929   2.926   0.863   8.390 -0.1164  0.2774 -0.5274
   91SAPS  H14Y 8930   2.764   0.940   8.380 -1.1614  1.3319  1.0046
   91SAPS  C315 8931   2.923   1.090   8.407  0.0701 -0.0575 -0.0236
   91SAPS  H15X 8932   2.850   1.170   8.384  1.2646  1.5538  1.5231
   91SAPS  H15Y 8933   3.020   1.128   8.369  0.4565 -1.0991 -0.0975
   91SAPS  C316 8934   2.945   1.078   8.563 -0.2837 -0.6976 -0.5788
   91SAPS  H16X 8935   3.002   1.169   8.591 -1.4505 -0.1419  0.0685
   91SAPS  H16Y 8936   3.007   0.987   8.578  1.4088  0.2080 -1.7995
   91SAPS  C317 8937   2.810   1.056   8.645 -0.2079  0.8338 -0.3031
   91SAPS  H17X 8938   2.783   0.949   8.632 -0.9213  1.0898 -1.0294
   91SAPS  H17Y 8939   2.730   1.120   8.601 -3.5155 -3.1226 -0.6261
   91SAPS  C318 8940   2.832   1.083   8.794  0.2047 -0.2083  0.4589
   91SAPS  H18X 8941   2.732   1.082   8.844  0.5843  1.3537  1.2867
   91SAPS  H18Y 8942   2.867   1.188   8.804 -2.1107  0.4520  2.8089
   91SAPS  H18Z 8943   2.911   1.019   8.838  1.1170 -0.0414 -0.8898
   92SAPS     N 8944   1.341   6.552   6.245  0.2364  0.2602  0.0958
   92SAPS   HN1 8945   1.254   6.540   6.189  0.2270 -4.9336  0.7312
   92SAPS   HN2 8946   1.429   6.559   6.190  0.3361 -5.2583 -1.0367
   92SAPS   HN3 8947   1.350   6.457   6.286  2.2200  0.9528  1.3831
   92SAPS   C12 8948   1.313   6.650   6.354  0.4525 -0.1742  0.0450
   92SAPS  H12A 8949   1.374   6.609   6.433  0.4912  0.8997  0.5936
   92SAPS   C13 8950   1.351   6.794   6.334  0.0034 -0.0697 -0.1827
   92SAPS  O13A 8951   1.390   6.828   6.217 -0.3776  0.6008  0.0369
   92SAPS  O13B 8952   1.357   6.871   6.434 -0.1191  0.2987 -0.8332
   92SAPS   C11 8953   1.153   6.635   6.398 -0.2428 -0.3800  0.7196
   92SAPS  H11A 8954   1.085   6.656   6.313  0.2168  1.9697  0.8475
   92SAPS  H11B 8955   1.146   6.722   6.467 -1.0067  0.4728 -0.3939
   92SAPS     P 8956   0.976   6.470   6.484  0.4198  0.3162 -0.0707
   92SAPS   O13 8957   0.924   6.438   6.346  0.2084 -0.1193 -0.1447
   92SAPS   O14 8958   0.970   6.363   6.581  0.7296  0.6397  0.0010
   92SAPS   O12 8959   1.126   6.517   6.463 -0.0061 -0.0441 -0.3100
   92SAPS   O11 8960   0.908   6.597   6.541  0.1936 -0.0733 -1.0111
   92SAPS    C1 8961   0.941   6.656   6.667 -0.2649 -0.4552 -0.4530
   92SAPS    HA 8962   1.049   6.651   6.691 -0.7674 -1.2676  1.9485
   92SAPS    HB 8963   0.919   6.765   6.668  1.4931 -0.0703 -0.6330
   92SAPS    C2 8964   0.865   6.595   6.788  0.8754  0.2054  0.2878
   92SAPS    HS 8965   0.913   6.496   6.803  0.4200 -0.1288 -0.4077
   92SAPS   O21 8966   0.726   6.594   6.761  0.5303 -0.3707 -0.4847
   92SAPS   C21 8967   0.658   6.488   6.811 -0.1938 -0.2542 -0.2132
   92SAPS   O22 8968   0.712   6.388   6.856 -0.2947  0.0231  0.0263
   92SAPS   C22 8969   0.509   6.506   6.796 -0.8876 -0.0830 -0.0607
   92SAPS   H2R 8970   0.494   6.486   6.688 -0.4336  2.1940 -0.5804
   92SAPS   H2S 8971   0.445   6.438   6.858 -1.2815  0.4292  0.1031
   92SAPS    C3 8972   0.894   6.678   6.913  0.7660  0.0848 -0.5134
   92SAPS    HX 8973   0.848   6.778   6.902  0.3513  0.0438  0.7187
   92SAPS    HY 8974   1.002   6.700   6.918  1.0863 -0.7412 -2.5919
   92SAPS   O31 8975   0.823   6.618   7.025 -0.0556  0.5801 -0.1362
   92SAPS   C31 8976   0.902   6.592   7.128 -0.0716 -0.4331  0.8282
   92SAPS   O32 8977   1.005   6.641   7.148 -0.0068  0.1046 -0.3099
   92SAPS   C32 8978   0.835   6.487   7.220 -0.0064  0.3449 -0.1908
   92SAPS   H2X 8979   0.742   6.460   7.165  1.2472  1.4161 -3.0242
   92SAPS   H2Y 8980   0.789   6.522   7.315 -3.4908 -3.4595 -0.1574
   92SAPS   C23 8981   0.449   6.653   6.819  0.0237  0.3896 -0.5160
   92SAPS   H3R 8982   0.353   6.643   6.764 -0.2285  0.5048 -0.0948
   92SAPS   H3S 8983   0.511   6.725   6.759  0.4321 -0.9351 -1.7495
   92SAPS   C24 8984   0.437   6.675   6.968 -0.0705 -0.5512 -0.8949
   92SAPS   H4R 8985   0.447   6.783   6.993  1.6358 -0.8328 -0.1546
   92SAPS   H4S 8986   0.520   6.624   7.021 -0.2679  0.8563  0.8914
   92SAPS   C25 8987   0.312   6.620   7.035 -0.3737  0.3627 -0.0804
   92SAPS   H5R 8988   0.217   6.650   6.990 -0.4553 -3.0016 -2.4968
   92SAPS   C26 8989   0.310   6.533   7.139 -0.2101  0.0019 -0.1260
   92SAPS   H6R 8990   0.212   6.503   7.179  0.2646 -1.2207  0.1624
   92SAPS   C27 8991   0.432   6.477   7.211 -0.3957 -0.0309  0.0251
   92SAPS   H7R 8992   0.492   6.563   7.246 -2.5711  1.7299 -0.3205
   92SAPS   H7S 8993   0.488   6.407   7.144 -2.6846  0.0823 -2.1772
   92SAPS   C28 8994   0.380   6.401   7.334 -0.0003  0.0337  0.2657
   92SAPS   H8R 8995   0.289   6.446   7.376 -0.6256  0.8979 -1.8740
   92SAPS   C29 8996   0.446   6.303   7.398 -0.2256  0.7209 -0.3338
   92SAPS   H9R 8997   0.400   6.266   7.491  0.3387  1.5575  0.2962
   92SAPS  C210 8998   0.579   6.247   7.349  0.1834  0.6476 -0.2972
   92SAPS  H10R 8999   0.660   6.306   7.398  0.6294 -0.2407  0.0630
   92SAPS  H10S 9000   0.598   6.254   7.240  4.1846 -0.4721  0.1584
   92SAPS  C211 9001   0.601   6.095   7.371  0.5520 -0.6077  0.9348
   92SAPS  H11R 9002   0.558   6.039   7.286 -1.0009  1.9338 -0.0744
   92SAPS  C212 9003   0.668   6.031   7.468 -0.1551 -0.2351 -0.0892
   92SAPS  H12R 9004   0.681   5.922   7.463 -0.8400 -0.2809 -0.9586
   92SAPS  C213 9005   0.729   6.100   7.588  0.1648  0.8808  0.7721
   92SAPS  H13R 9006   0.798   6.179   7.553 -1.3553  1.6124 -0.6931
   92SAPS  H13S 9007   0.797   6.028   7.638 -0.9762 -1.0101 -0.2724
   92SAPS  C214 9008   0.640   6.161   7.694  0.1603  0.3764 -0.3576
   92SAPS  H14R 9009   0.531   6.144   7.685  0.2334  0.0516 -0.6487
   92SAPS  C215 9010   0.676   6.236   7.799  0.7135  0.4765 -0.3482
   92SAPS  H15R 9011   0.604   6.271   7.874 -1.4530  1.1184 -2.6131
   92SAPS  C216 9012   0.815   6.268   7.840  0.4934 -0.0008  0.0079
   92SAPS  H16R 9013   0.830   6.373   7.876  0.2391  0.6457 -1.6789
   92SAPS  H16S 9014   0.890   6.261   7.758 -0.2678  0.0834 -0.6966
   92SAPS  C217 9015   0.872   6.185   7.951  0.6516  0.6225 -0.6160
   92SAPS  H17R 9016   0.981   6.176   7.931  0.4802 -0.1099 -1.2676
   92SAPS  H17S 9017   0.829   6.082   7.959  2.2144 -0.0516 -0.5605
   92SAPS  C218 9018   0.867   6.248   8.093  0.6668 -0.7898  0.1667
   92SAPS  H18R 9019   0.763   6.287   8.105  0.6516 -0.5113 -0.7861
   92SAPS  H18S 9020   0.936   6.334   8.101 -0.6668  0.1579  2.2867
   92SAPS  C219 9021   0.889   6.142   8.205  0.4956  0.1660  0.0054
   92SAPS  H19R 9022   0.996   6.116   8.191  1.7712  4.2146  0.7556
   92SAPS  H19S 9023   0.820   6.061   8.175 -0.4700  1.0541 -0.2489
   92SAPS  C220 9024   0.864   6.174   8.351 -0.3144 -0.4048  0.4823
   92SAPS  H20R 9025   0.927   6.256   8.393 -0.2938 -1.3105  2.3026
   92SAPS  H20S 9026   0.871   6.087   8.419 -2.6528 -0.5895  0.5638
   92SAPS  H20T 9027   0.760   6.207   8.369  0.2745  0.1243  3.6245
   92SAPS   C33 9028   0.924   6.362   7.229 -0.0183  0.5163 -0.3870
   92SAPS   H3X 9029   1.005   6.350   7.155 -0.0190  0.3949 -0.3698
   92SAPS   H3Y 9030   0.864   6.270   7.209  0.9453  0.2034 -1.9616
   92SAPS   C34 9031   0.975   6.342   7.371  0.1218  0.2689  0.0400
   92SAPS   H4X 9032   1.025   6.244   7.387 -0.4082  0.1090  0.7936
   92SAPS   H4Y 9033   0.888   6.349   7.440 -0.1002  0.6531 -0.2760
   92SAPS   C35 9034   1.068   6.463   7.404 -0.6320  0.0620 -0.3061
   92SAPS   H5X 9035   1.009   6.556   7.415  0.4734  0.7045  0.4222
   92SAPS   H5Y 9036   1.143   6.478   7.323 -0.2852  0.1833  0.0353
   92SAPS   C36 9037   1.150   6.456   7.540  0.2115  0.0279 -0.3406
   92SAPS   H6X 9038   1.067   6.431   7.610  0.8827 -1.4134 -0.0142
   92SAPS   H6Y 9039   1.196   6.555   7.561 -0.4059  0.4466 -0.8922
   92SAPS   C37 9040   1.242   6.342   7.545 -0.1370  0.6211 -0.2106
   92SAPS   H7X 9041   1.291   6.356   7.446 -0.7045 -1.4429 -0.8422
   92SAPS   H7Y 9042   1.208   6.236   7.551  0.5357  0.4479  0.6568
   92SAPS   C38 9043   1.334   6.354   7.671  0.4412  0.2495  0.9541
   92SAPS   H8X 9044   1.390   6.450   7.678  3.9290 -1.4966 -0.6845
   92SAPS   H8Y 9045   1.418   6.283   7.658  0.1272  0.0788 -0.2966
   92SAPS   C39 9046   1.261   6.335   7.801 -0.3677 -0.2800 -0.1629
   92SAPS   H9X 9047   1.196   6.246   7.802 -1.3906  0.4451 -0.1251
   92SAPS   H9Y 9048   1.192   6.415   7.835 -1.2049 -1.4797  1.0145
   92SAPS  C310 9049   1.371   6.316   7.911 -0.6411  0.0905  0.0039
   92SAPS  H10X 9050   1.423   6.411   7.936  2.2806 -1.5057  0.3564
   92SAPS  H10Y 9051   1.441   6.235   7.882  0.4173  0.0298  2.4957
   92SAPS  C311 9052   1.301   6.264   8.038 -0.1736  0.0511  0.6027
   92SAPS  H11X 9053   1.254   6.174   7.993  1.9297 -1.7578  1.8205
   92SAPS  H11Y 9054   1.213   6.327   8.066 -0.5143  0.6020 -1.5432
   92SAPS  C312 9055   1.396   6.224   8.152  0.7072  0.2321  0.6109
   92SAPS  H12X 9056   1.481   6.166   8.107  0.3045  1.0409 -1.2808
   92SAPS  H12Y 9057   1.335   6.157   8.216  1.7531 -0.4712  0.9026
   92SAPS  C313 9058   1.467   6.342   8.231 -0.3565 -0.0580  0.0036
   92SAPS  H13X 9059   1.402   6.388   8.308  2.0534  0.3343  1.9301
   92SAPS  H13Y 9060   1.496   6.429   8.168 -0.3378  0.5032  0.7716
   92SAPS  C314 9061   1.596   6.298   8.308 -0.0498 -0.1432  0.1922
   92SAPS  H14X 9062   1.637   6.392   8.348  1.9169 -0.5968 -0.6717
   92SAPS  H14Y 9063   1.668   6.247   8.240 -0.0777 -0.1107  0.1384
   92SAPS  C315 9064   1.571   6.200   8.425  0.2793  0.1686  0.7536
   92SAPS  H15X 9065   1.569   6.098   8.380  1.2189  0.0816  0.8958
   92SAPS  H15Y 9066   1.465   6.216   8.455 -1.0306 -2.0952 -2.1070
   92SAPS  C316 9067   1.667   6.208   8.543 -0.1783  0.5858  1.0934
   92SAPS  H16X 9068   1.767   6.188   8.500 -0.7241 -2.4473  1.0162
   92SAPS  H16Y 9069   1.640   6.118   8.602 -2.6927  0.1581 -0.5416
   92SAPS  C317 9070   1.662   6.338   8.623 -0.8446  1.3787 -0.1694
   92SAPS  H17X 9071   1.680   6.419   8.550 -0.9308  1.1983 -0.3914
   92SAPS  H17Y 9072   1.743   6.355   8.698 -1.1785 -1.7963  1.0794
   92SAPS  C318 9073   1.544   6.350   8.719 -0.1335  0.1463  0.2603
   92SAPS  H18X 9074   1.543   6.446   8.774 -0.3835  1.6469 -2.1869
   92SAPS  H18Y 9075   1.534   6.259   8.782  1.0195 -0.0709  0.1409
   92SAPS  H18Z 9076   1.453   6.352   8.655  0.0920  0.7414 -0.0510
   93SAPS     N 9077   2.029   5.887   6.225 -0.2727  0.2189  1.1553
   93SAPS   HN1 9078   1.993   5.925   6.135 -0.0445  1.8353  1.7163
   93SAPS   HN2 9079   1.985   5.946   6.299 -1.2879  3.4561 -1.7462
   93SAPS   HN3 9080   2.130   5.911   6.216 -0.5539  0.7880 -0.8731
   93SAPS   C12 9081   1.996   5.742   6.232 -0.3771  0.4388  0.3857
   93SAPS  H12A 9082   1.892   5.728   6.209  0.3567 -0.6197 -3.0143
   93SAPS   C13 9083   2.063   5.653   6.122 -0.6019 -0.4172  0.1420
   93SAPS  O13A 9084   2.107   5.711   6.019 -0.1922  0.1724 -0.9756
   93SAPS  O13B 9085   2.052   5.530   6.126  0.0763  0.3444 -0.3032
   93SAPS   C11 9086   2.037   5.691   6.378  0.5071  0.2898  0.3293
   93SAPS  H11A 9087   2.148   5.701   6.387  0.5471 -1.2204  1.9761
   93SAPS  H11B 9088   2.022   5.582   6.393  1.9926 -0.0739 -0.5890
   93SAPS     P 9089   1.823   5.723   6.508 -0.1368  0.3717 -0.0419
   93SAPS   O13 9090   1.732   5.803   6.422 -0.1088 -0.3284 -0.5269
   93SAPS   O14 9091   1.814   5.573   6.499 -0.3506  0.1312 -0.4549
   93SAPS   O12 9092   1.972   5.763   6.481 -0.1688 -0.0255 -0.0019
   93SAPS   O11 9093   1.816   5.759   6.655  0.7304 -0.4031 -0.2657
   93SAPS    C1 9094   1.917   5.729   6.748 -0.0985 -0.3850  0.0659
   93SAPS    HA 9095   1.955   5.625   6.740 -1.1855 -0.9373  1.5368
   93SAPS    HB 9096   2.009   5.791   6.745 -0.5756  0.3289 -0.0416
   93SAPS    C2 9097   1.862   5.720   6.897 -0.2719  0.2102 -0.6838
   93SAPS    HS 9098   1.767   5.663   6.886  1.3218 -2.5436 -1.0871
   93SAPS   O21 9099   1.837   5.858   6.937  0.0372 -0.0493  0.5996
   93SAPS   C21 9100   1.745   5.872   7.036  0.8661  0.1864  1.0393
   93SAPS   O22 9101   1.686   5.778   7.085 -0.1386 -0.7667 -0.0644
   93SAPS   C22 9102   1.701   6.017   7.061 -0.5669 -0.3346  0.3425
   93SAPS   H2R 9103   1.792   6.078   7.044  0.2436 -0.6312  3.1895
   93SAPS   H2S 9104   1.633   6.041   6.976 -0.3834  2.7607  0.9466
   93SAPS    C3 9105   1.951   5.632   6.994 -1.4602  0.3005 -0.2081
   93SAPS    HX 9106   1.992   5.540   6.946  1.3072  2.3020 -2.0289
   93SAPS    HY 9107   1.882   5.609   7.078  0.5537  0.3705  1.5773
   93SAPS   O31 9108   2.059   5.704   7.052 -0.4607 -0.0504  0.1566
   93SAPS   C31 9109   2.173   5.687   6.989 -0.2714 -0.4492 -0.3703
   93SAPS   O32 9110   2.195   5.639   6.880  0.6200  0.2213  0.0302
   93SAPS   C32 9111   2.282   5.732   7.090 -0.3893  0.0683  1.0738
   93SAPS   H2X 9112   2.282   5.843   7.090  1.2168  0.1334 -0.9805
   93SAPS   H2Y 9113   2.381   5.689   7.064  0.4785 -0.3804  4.5793
   93SAPS   C23 9114   1.639   6.053   7.194  0.6702 -0.1117  0.2852
   93SAPS   H3R 9115   1.657   6.160   7.216 -0.0796  0.0249  0.2750
   93SAPS   H3S 9116   1.670   5.998   7.285 -1.2393  2.2955  2.5553
   93SAPS   C24 9117   1.485   6.037   7.197  0.1393 -0.1781  0.1783
   93SAPS   H4R 9118   1.470   5.927   7.190 -2.0134 -0.0954  2.2904
   93SAPS   H4S 9119   1.449   6.089   7.105 -1.3748 -1.5571 -0.0545
   93SAPS   C25 9120   1.424   6.105   7.312 -0.3029  0.2193  0.0561
   93SAPS   H5R 9121   1.421   6.214   7.302  0.6116  0.2863  0.4454
   93SAPS   C26 9122   1.390   6.040   7.424 -0.0607  0.1009 -0.2754
   93SAPS   H6R 9123   1.354   6.099   7.510 -0.5328  0.6647 -0.8480
   93SAPS   C27 9124   1.396   5.889   7.449  0.9542 -0.5824  0.3469
   93SAPS   H7R 9125   1.472   5.866   7.526 -0.7432 -4.0139  1.2027
   93SAPS   H7S 9126   1.434   5.845   7.354 -1.2715  1.1698 -1.4934
   93SAPS   C28 9127   1.273   5.815   7.486 -0.0685  0.4841  0.3298
   93SAPS   H8R 9128   1.238   5.743   7.411  2.9868 -1.2492  0.4054
   93SAPS   C29 9129   1.212   5.830   7.601 -0.5968  0.1858 -0.6569
   93SAPS   H9R 9130   1.125   5.762   7.614 -0.7283  0.4487 -0.1194
   93SAPS  C210 9131   1.246   5.924   7.715  0.3744  0.0661  0.0138
   93SAPS  H10R 9132   1.170   6.004   7.721 -0.4958 -0.6460 -0.9824
   93SAPS  H10S 9133   1.353   5.950   7.700  0.0610  0.2528 -2.2739
   93SAPS  C211 9134   1.225   5.858   7.847 -0.8280 -0.5479  0.3840
   93SAPS  H11R 9135   1.123   5.873   7.886 -0.5754 -0.4114  1.0032
   93SAPS  C212 9136   1.321   5.796   7.916  0.0461 -0.3409 -0.0707
   93SAPS  H12R 9137   1.304   5.767   8.020  0.5476 -2.6127 -0.5737
   93SAPS  C213 9138   1.467   5.774   7.873  0.1152 -0.3045 -0.4608
   93SAPS  H13R 9139   1.540   5.838   7.927  1.5203 -1.3639 -1.0478
   93SAPS  H13S 9140   1.472   5.807   7.767 -4.7763  1.9873 -0.2647
   93SAPS  C214 9141   1.492   5.625   7.883 -0.1827 -0.1943 -0.5365
   93SAPS  H14R 9142   1.400   5.566   7.882  0.8230 -1.8265 -0.0698
   93SAPS  C215 9143   1.613   5.562   7.886  0.1098  0.8153 -0.2726
   93SAPS  H15R 9144   1.625   5.453   7.888  1.1234  0.9125  1.6966
   93SAPS  C216 9145   1.746   5.638   7.888 -0.2148  0.4656 -0.5933
   93SAPS  H16R 9146   1.798   5.604   7.981 -1.3563  1.7362  0.5491
   93SAPS  H16S 9147   1.741   5.749   7.881 -2.4852  0.3059 -2.4452
   93SAPS  C217 9148   1.822   5.597   7.761 -0.4333 -0.8074 -0.6188
   93SAPS  H17R 9149   1.851   5.490   7.755  0.7438 -0.5315 -0.2323
   93SAPS  H17S 9150   1.924   5.640   7.772 -1.8399  2.3065  1.8705
   93SAPS  C218 9151   1.749   5.637   7.630 -0.2293 -0.1878 -0.0134
   93SAPS  H18R 9152   1.702   5.738   7.637 -0.3882 -0.2842  0.3173
   93SAPS  H18S 9153   1.660   5.573   7.616  0.0605 -0.3804 -1.0984
   93SAPS  C219 9154   1.835   5.628   7.509  0.3304 -0.1040 -0.1339
   93SAPS  H19R 9155   1.861   5.521   7.493 -3.0466 -0.7959 -1.8636
   93SAPS  H19S 9156   1.927   5.689   7.519 -0.4943  0.9321  1.8051
   93SAPS  C220 9157   1.760   5.679   7.379 -0.6223 -0.9708  0.0060
   93SAPS  H20R 9158   1.703   5.772   7.396  0.6945  0.3575 -2.3213
   93SAPS  H20S 9159   1.682   5.606   7.347  1.1129 -2.1613 -1.7591
   93SAPS  H20T 9160   1.826   5.699   7.292 -2.0095 -0.7806 -1.0485
   93SAPS   C33 9161   2.265   5.672   7.226  0.1807  0.0361  0.0578
   93SAPS   H3X 9162   2.296   5.565   7.227  1.2961  0.3430  0.7160
   93SAPS   H3Y 9163   2.158   5.692   7.246  0.2540  0.2474  0.2368
   93SAPS   C34 9164   2.355   5.741   7.335  1.0282  0.0149 -0.1439
   93SAPS   H4X 9165   2.327   5.847   7.352 -1.8145 -0.6486 -0.0820
   93SAPS   H4Y 9166   2.458   5.736   7.293  1.3888  0.1683  0.7235
   93SAPS   C35 9167   2.336   5.662   7.463 -0.0847  0.4300 -0.3509
   93SAPS   H5X 9168   2.378   5.559   7.464  0.5498  0.6544  2.2426
   93SAPS   H5Y 9169   2.225   5.654   7.463 -0.0168 -1.3535 -2.0497
   93SAPS   C36 9170   2.392   5.737   7.583 -0.3867  0.6330  0.2600
   93SAPS   H6X 9171   2.359   5.842   7.588  0.5319  0.9815 -0.5578
   93SAPS   H6Y 9172   2.502   5.745   7.570 -0.4811  1.7558  0.0565
   93SAPS   C37 9173   2.369   5.669   7.716  0.3977  0.0388  0.3498
   93SAPS   H7X 9174   2.421   5.570   7.713  0.1850 -0.1790  2.3736
   93SAPS   H7Y 9175   2.262   5.649   7.739  0.7962 -0.6478  1.7382
   93SAPS   C38 9176   2.437   5.746   7.828  0.3331  0.3261  0.2026
   93SAPS   H8X 9177   2.378   5.835   7.860  2.2911  1.5308  0.5880
   93SAPS   H8Y 9178   2.530   5.798   7.795 -0.0162 -0.0177 -1.4534
   93SAPS   C39 9179   2.467   5.670   7.951 -0.5532  0.1462  0.0086
   93SAPS   H9X 9180   2.546   5.595   7.927 -1.2126 -0.6070  0.1345
   93SAPS   H9Y 9181   2.379   5.611   7.986 -0.1740  0.3680  1.3946
   93SAPS  C310 9182   2.497   5.757   8.070 -0.2341  0.0175  0.3097
   93SAPS  H10X 9183   2.408   5.819   8.092 -0.7417 -0.0054 -1.5312
   93SAPS  H10Y 9184   2.570   5.837   8.046  0.3200  0.5859  3.3750
   93SAPS  C311 9185   2.543   5.674   8.188  0.3101  0.0274 -0.0960
   93SAPS  H11X 9186   2.639   5.623   8.165  0.4274  0.5501 -0.7958
   93SAPS  H11Y 9187   2.457   5.606   8.205 -1.0310  1.2854 -1.5245
   93SAPS  C312 9188   2.547   5.759   8.316  0.1495  0.5043 -0.0556
   93SAPS  H12X 9189   2.448   5.808   8.326  0.6278  1.7963 -1.3245
   93SAPS  H12Y 9190   2.616   5.845   8.300 -2.2154  2.6342  0.4832
   93SAPS  C313 9191   2.567   5.670   8.436 -0.1987 -0.2444  1.0526
   93SAPS  H13X 9192   2.662   5.614   8.424 -1.1827 -1.4214 -2.1358
   93SAPS  H13Y 9193   2.488   5.593   8.432 -2.1560  1.7219 -0.6867
   93SAPS  C314 9194   2.578   5.738   8.571  0.8963  0.5494 -0.8568
   93SAPS  H14X 9195   2.519   5.667   8.634  1.6122  2.5378  2.2898
   93SAPS  H14Y 9196   2.528   5.837   8.573 -1.0881 -0.3930  0.8750
   93SAPS  C315 9197   2.717   5.754   8.634 -0.3706  0.1101  0.1585
   93SAPS  H15X 9198   2.777   5.815   8.563 -0.9237  1.5414  0.8676
   93SAPS  H15Y 9199   2.773   5.658   8.636 -1.1533 -0.4027 -1.2663
   93SAPS  C316 9200   2.708   5.816   8.780 -0.5466  0.0989  0.9022
   93SAPS  H16X 9201   2.646   5.746   8.839 -1.2743 -0.8935 -0.9296
   93SAPS  H16Y 9202   2.666   5.918   8.766 -1.8405 -0.6554 -1.3438
   93SAPS  C317 9203   2.842   5.825   8.851 -0.0677  0.4517  0.1290
   93SAPS  H17X 9204   2.809   5.847   8.955 -2.9875 -3.2082  0.2082
   93SAPS  H17Y 9205   2.900   5.906   8.802 -1.7717  1.8472  0.3217
   93SAPS  C318 9206   2.918   5.687   8.863  0.1264  0.6561 -0.3263
   93SAPS  H18X 9207   2.971   5.669   8.767  2.1296  4.1955 -0.0311
   93SAPS  H18Y 9208   2.837   5.613   8.881  3.3283 -3.0209  0.1681
   93SAPS  H18Z 9209   2.990   5.684   8.947 -0.1834 -1.2936 -0.0890
   94SAPS     N 9210   1.950   1.585   5.710 -0.0985  0.2420 -0.3945
   94SAPS   HN1 9211   2.008   1.500   5.727  1.4676  1.0219 -1.6212
   94SAPS   HN2 9212   1.894   1.576   5.622 -0.9487  1.9941 -0.0623
   94SAPS   HN3 9213   2.009   1.669   5.699  1.5642 -0.9060 -0.6432
   94SAPS   C12 9214   1.850   1.597   5.819 -0.1095  0.4439 -0.1734
   94SAPS  H12A 9215   1.789   1.685   5.804  1.0218  1.3190  0.1888
   94SAPS   C13 9216   1.768   1.464   5.854  0.0747 -0.2249 -0.1105
   94SAPS  O13A 9217   1.814   1.351   5.819  0.0325 -0.1223  0.6658
   94SAPS  O13B 9218   1.662   1.474   5.926  0.1129  0.9339 -0.0719
   94SAPS   C11 9219   1.927   1.612   5.945 -1.2268  0.3790 -0.4627
   94SAPS  H11A 9220   2.003   1.532   5.948 -0.2514  1.3008  0.1924
   94SAPS  H11B 9221   1.871   1.595   6.040 -0.5756 -0.3198 -0.1984
   94SAPS     P 9222   1.959   1.869   6.012  0.1331  0.2348 -0.0250
   94SAPS   O13 9223   2.066   1.968   6.022  0.3578  0.4185 -0.3638
   94SAPS   O14 9224   1.838   1.905   5.935  0.0413  0.8105  0.4116
   94SAPS   O12 9225   2.009   1.731   5.947 -0.2020  0.5835  0.2674
   94SAPS   O11 9226   1.919   1.827   6.160 -0.1227  0.0058  0.0856
   94SAPS    C1 9227   1.998   1.749   6.247  0.0443 -0.1581 -0.0557
   94SAPS    HA 9228   1.968   1.643   6.244  0.3923 -0.3258  1.4750
   94SAPS    HB 9229   2.103   1.759   6.211 -0.2394  2.4962 -0.4031
   94SAPS    C2 9230   1.985   1.808   6.386 -0.1694 -0.2234 -0.2877
   94SAPS    HS 9231   2.059   1.754   6.449 -0.7248  1.2145  1.6942
   94SAPS   O21 9232   1.851   1.803   6.437  0.7651  0.2691  0.3573
   94SAPS   C21 9233   1.808   1.683   6.464  0.3227  0.0041 -0.5194
   94SAPS   O22 9234   1.851   1.575   6.432 -0.2111  0.3078  0.2474
   94SAPS   C22 9235   1.674   1.701   6.544 -0.1503 -0.2152 -0.8499
   94SAPS   H2R 9236   1.621   1.775   6.480 -1.0509 -1.6946 -1.8729
   94SAPS   H2S 9237   1.621   1.603   6.543 -2.4378  0.9207  0.4788
   94SAPS    C3 9238   2.031   1.952   6.385  0.1678 -0.1242 -0.5395
   94SAPS    HX 9239   1.936   2.008   6.371 -1.6663 -2.8806  0.1134
   94SAPS    HY 9240   2.093   1.981   6.297 -1.7692  2.4554 -1.1861
   94SAPS   O31 9241   2.098   1.979   6.511  1.2205 -0.3525 -0.1083
   94SAPS   C31 9242   2.154   2.094   6.539 -0.1970  0.4287 -0.4393
   94SAPS   O32 9243   2.154   2.186   6.464 -0.5586  0.1284 -0.2203
   94SAPS   C32 9244   2.224   2.076   6.674  0.2792  0.0707  1.1994
   94SAPS   H2X 9245   2.268   2.176   6.691 -1.1229  0.6970  1.3063
   94SAPS   H2Y 9246   2.318   2.019   6.659 -0.2942 -0.4800 -0.5796
   94SAPS   C23 9247   1.696   1.758   6.682  0.3734 -0.0494 -1.0962
   94SAPS   H3R 9248   1.601   1.792   6.730  1.2391 -0.1827  0.8229
   94SAPS   H3S 9249   1.763   1.847   6.684 -0.0021  0.2244 -0.2010
   94SAPS   C24 9250   1.750   1.661   6.791 -0.1281 -0.6285  0.6422
   94SAPS   H4R 9251   1.849   1.621   6.761  1.5677  1.6224  2.7901
   94SAPS   H4S 9252   1.683   1.573   6.788 -0.7481 -0.1857  1.1206
   94SAPS   C25 9253   1.757   1.726   6.925 -0.5833 -0.0443  0.6581
   94SAPS   H5R 9254   1.849   1.786   6.937 -0.7141 -0.0418  1.7670
   94SAPS   C26 9255   1.684   1.693   7.031  0.1736 -0.6451  0.2332
   94SAPS   H6R 9256   1.706   1.732   7.131 -4.5662  2.3186  0.4087
   94SAPS   C27 9257   1.575   1.590   7.042 -0.1848  0.0223  1.0685
   94SAPS   H7R 9258   1.527   1.567   6.945  2.1894  0.5796 -0.3288
   94SAPS   H7S 9259   1.480   1.620   7.092 -1.7307 -0.3666 -1.4461
   94SAPS   C28 9260   1.616   1.459   7.096 -0.3241  0.1097 -0.5215
   94SAPS   H8R 9261   1.618   1.377   7.023  3.3451 -1.1567  0.7388
   94SAPS   C29 9262   1.642   1.424   7.226  0.8327  0.3582  0.1019
   94SAPS   H9R 9263   1.690   1.326   7.237  0.8909  0.0245 -2.4084
   94SAPS  C210 9264   1.648   1.514   7.346 -0.0047  0.1924  0.0456
   94SAPS  H10R 9265   1.560   1.496   7.411 -0.0731  1.4537  0.3254
   94SAPS  H10S 9266   1.644   1.618   7.308 -1.8856 -0.1178 -0.7091
   94SAPS  C211 9267   1.775   1.500   7.422 -0.2912  0.4642 -0.7352
   94SAPS  H11R 9268   1.852   1.436   7.377  2.5308  0.8938  2.9452
   94SAPS  C212 9269   1.804   1.559   7.535  0.2549 -0.3050  0.3676
   94SAPS  H12R 9270   1.908   1.557   7.570  1.2651  0.7927 -2.2855
   94SAPS  C213 9271   1.704   1.654   7.604  0.4783 -0.2706 -0.5212
   94SAPS  H13R 9272   1.657   1.613   7.696 -0.9956 -0.9333 -1.5323
   94SAPS  H13S 9273   1.618   1.673   7.537 -1.5983 -1.3882  1.6941
   94SAPS  C214 9274   1.780   1.780   7.639  0.3346  1.2200  0.1539
   94SAPS  H14R 9275   1.783   1.854   7.557 -0.8298  0.7661 -0.3126
   94SAPS  C215 9276   1.826   1.810   7.758 -0.0901  0.2320  0.5864
   94SAPS  H15R 9277   1.868   1.911   7.771 -1.7666  0.7452  2.4123
   94SAPS  C216 9278   1.809   1.725   7.882  0.1284 -0.6319 -0.2396
   94SAPS  H16R 9279   1.874   1.635   7.872  0.3570 -0.4119 -0.7340
   94SAPS  H16S 9280   1.703   1.692   7.888 -1.0379  2.2039 -2.6943
   94SAPS  C217 9281   1.852   1.801   8.005 -0.6516  0.1984 -0.2734
   94SAPS  H17R 9282   1.783   1.887   8.017  1.1457  1.7280 -0.3593
   94SAPS  H17S 9283   1.954   1.845   7.999 -0.6812  0.2014 -0.7320
   94SAPS  C218 9284   1.849   1.718   8.140  0.5107  0.8790 -0.4281
   94SAPS  H18R 9285   1.753   1.662   8.141  0.6253  0.6934  0.2084
   94SAPS  H18S 9286   1.847   1.784   8.229 -1.9306 -1.4785  1.4316
   94SAPS  C219 9287   1.957   1.614   8.134  0.1264  0.0943 -0.4138
   94SAPS  H19R 9288   2.050   1.673   8.117  0.2203  0.0099 -0.1981
   94SAPS  H19S 9289   1.940   1.548   8.047 -2.3116  0.6881 -0.4504
   94SAPS  C220 9290   1.957   1.528   8.262  0.3656 -0.0906  0.1392
   94SAPS  H20R 9291   1.867   1.464   8.276  0.8487 -0.8357 -0.1014
   94SAPS  H20S 9292   1.973   1.590   8.353  2.3936  0.6842 -0.6813
   94SAPS  H20T 9293   2.046   1.463   8.249  0.8837  0.7576 -0.7413
   94SAPS   C33 9294   2.131   2.032   6.786  0.3678  0.5535 -0.4627
   94SAPS   H3X 9295   2.089   1.933   6.761 -1.7093  1.5015 -0.9686
   94SAPS   H3Y 9296   2.048   2.106   6.791 -0.5031 -0.2741 -2.0021
   94SAPS   C34 9297   2.209   2.032   6.916  0.3042 -0.3238  0.9667
   94SAPS   H4X 9298   2.263   2.128   6.924 -0.3023  0.1597 -0.4193
   94SAPS   H4Y 9299   2.281   1.947   6.927 -0.6115 -1.0370  1.6281
   94SAPS   C35 9300   2.111   2.020   7.034 -0.0599 -0.3636  0.1380
   94SAPS   H5X 9301   2.062   1.920   7.030  0.1951 -0.4664 -0.8900
   94SAPS   H5Y 9302   2.031   2.097   7.029 -0.9480 -1.2923 -0.7501
   94SAPS   C36 9303   2.194   2.038   7.165 -0.4188  0.2143 -0.2373
   94SAPS   H6X 9304   2.229   2.143   7.171  0.6640 -0.1393 -0.1298
   94SAPS   H6Y 9305   2.270   1.957   7.180 -1.1915 -0.0794  2.7941
   94SAPS   C37 9306   2.108   2.029   7.286  0.4166 -0.3606 -0.0390
   94SAPS   H7X 9307   2.058   1.929   7.289  1.8607 -1.0782  0.9794
   94SAPS   H7Y 9308   2.029   2.107   7.290  0.9778  0.1692  1.2392
   94SAPS   C38 9309   2.193   2.050   7.413 -0.7664 -0.1155  0.4111
   94SAPS   H8X 9310   2.259   2.139   7.401 -2.2618  1.0445  0.4625
   94SAPS   H8Y 9311   2.253   1.957   7.419 -0.6913 -0.3079 -2.3151
   94SAPS   C39 9312   2.115   2.058   7.544 -0.8674 -0.8736  0.4329
   94SAPS   H9X 9313   2.040   1.977   7.552 -2.3251  0.2494 -1.1604
   94SAPS   H9Y 9314   2.042   2.141   7.533 -0.7463 -0.4773  2.2307
   94SAPS  C310 9315   2.201   2.091   7.664  0.0002 -0.3985  1.0523
   94SAPS  H10X 9316   2.263   2.179   7.637 -1.0376 -0.3000 -1.1896
   94SAPS  H10Y 9317   2.273   2.006   7.662 -2.5692 -2.6985 -1.2766
   94SAPS  C311 9318   2.143   2.098   7.803 -0.1334  0.4847  0.2356
   94SAPS  H11X 9319   2.231   2.091   7.871 -0.2935  1.1723  0.5236
   94SAPS  H11Y 9320   2.072   2.014   7.800  0.6156 -0.1375 -1.2252
   94SAPS  C312 9321   2.072   2.226   7.830 -0.6599 -0.3067  0.5426
   94SAPS  H12X 9322   2.005   2.248   7.745 -2.1418  0.8706  1.9556
   94SAPS  H12Y 9323   2.142   2.312   7.832 -0.2781 -0.6031  2.1870
   94SAPS  C313 9324   1.992   2.220   7.958  0.7044 -0.1550 -0.2130
   94SAPS  H13X 9325   1.964   2.116   7.984  2.1553 -0.0900  1.9012
   94SAPS  H13Y 9326   1.911   2.296   7.952  0.2337 -0.6511 -0.2089
   94SAPS  C314 9327   2.070   2.258   8.086 -0.1063 -0.2897  0.4741
   94SAPS  H14X 9328   2.088   2.368   8.084  0.0919 -0.3252 -0.0517
   94SAPS  H14Y 9329   2.173   2.219   8.076  0.4015  0.9626  0.5813
   94SAPS  C315 9330   2.001   2.221   8.209  0.1490 -0.0682 -0.2322
   94SAPS  H15X 9331   1.985   2.111   8.216  1.6057 -0.4430 -1.8691
   94SAPS  H15Y 9332   1.902   2.271   8.214  0.7943  1.5351 -2.0052
   94SAPS  C316 9333   2.078   2.262   8.337  0.0581  0.0264 -0.7472
   94SAPS  H16X 9334   2.088   2.371   8.350  3.7520 -0.2097 -0.6445
   94SAPS  H16Y 9335   2.178   2.215   8.323 -1.1072 -3.1584  0.5639
   94SAPS  C317 9336   2.006   2.211   8.470 -0.2272 -0.4135 -0.1334
   94SAPS  H17X 9337   2.031   2.103   8.478 -0.2543 -0.5674 -1.9180
   94SAPS  H17Y 9338   1.896   2.219   8.467 -0.2955  0.5457  2.1755
   94SAPS  C318 9339   2.053   2.294   8.593  0.6111  0.4529 -0.0677
   94SAPS  H18X 9340   2.148   2.258   8.636  0.1870 -0.6568 -0.0037
   94SAPS  H18Y 9341   1.969   2.295   8.666  0.6759  0.7737  0.0008
   94SAPS  H18Z 9342   2.067   2.400   8.565  0.5121  0.8011  1.1649
   95SAPS     N 9343   5.071   6.321   6.413 -0.0358 -0.0017  0.5011
   95SAPS   HN1 9344   5.129   6.391   6.464  1.0087 -1.5530  1.5285
   95SAPS   HN2 9345   4.968   6.334   6.417 -0.0913  0.4307 -1.3245
   95SAPS   HN3 9346   5.107   6.230   6.447  1.6034  0.8456  1.1780
   95SAPS   C12 9347   5.109   6.324   6.273 -0.3638 -0.1869  0.5185
   95SAPS  H12A 9348   5.040   6.261   6.218  0.5218  0.6106 -1.6406
   95SAPS   C13 9349   5.105   6.455   6.204  0.4429  0.7082 -0.4377
   95SAPS  O13A 9350   5.064   6.556   6.264  0.6204  0.8246  0.0416
   95SAPS  O13B 9351   5.148   6.457   6.084  0.4629 -0.1996 -0.5112
   95SAPS   C11 9352   5.252   6.272   6.265 -0.0790  0.0695 -0.8961
   95SAPS  H11A 9353   5.280   6.260   6.158 -1.9974  1.0375 -1.5552
   95SAPS  H11B 9354   5.246   6.171   6.311 -2.3798 -1.0923 -3.4551
   95SAPS     P 9355   5.502   6.339   6.305  0.2419  0.4258 -0.4711
   95SAPS   O13 9356   5.547   6.202   6.346  0.2411  0.4403 -0.4195
   95SAPS   O14 9357   5.531   6.376   6.164 -0.7368  0.4181 -0.7950
   95SAPS   O12 9358   5.343   6.359   6.342  0.2242  0.3010 -0.3294
   95SAPS   O11 9359   5.581   6.431   6.397  0.3472  0.5070 -0.9744
   95SAPS    C1 9360   5.533   6.558   6.442 -0.0380 -0.1491  0.1736
   95SAPS    HA 9361   5.598   6.637   6.400 -1.1341  0.3372 -0.6554
   95SAPS    HB 9362   5.432   6.584   6.404 -0.9192 -1.9326  1.1399
   95SAPS    C2 9363   5.542   6.578   6.592 -0.1900 -0.0116  0.4045
   95SAPS    HS 9364   5.642   6.556   6.637  0.3166  0.5540 -0.4190
   95SAPS   O21 9365   5.430   6.508   6.655 -0.2889 -0.4168 -0.2953
   95SAPS   C21 9366   5.463   6.399   6.728  0.3496 -0.0254  0.5236
   95SAPS   O22 9367   5.576   6.355   6.741  0.1305 -0.1904  0.1051
   95SAPS   C22 9368   5.344   6.329   6.775 -0.5216  0.2640 -0.4570
   95SAPS   H2R 9369   5.281   6.284   6.696  0.3927 -4.4054  1.1241
   95SAPS   H2S 9370   5.371   6.247   6.845  0.7792  0.2664 -0.9371
   95SAPS    C3 9371   5.514   6.732   6.622  0.7429  1.1799 -0.9913
   95SAPS    HX 9372   5.412   6.756   6.587 -0.7926 -1.0801  1.5060
   95SAPS    HY 9373   5.585   6.798   6.568  0.2618  1.4602 -1.2912
   95SAPS   O31 9374   5.523   6.753   6.766  0.3257  0.3633  0.3021
   95SAPS   C31 9375   5.644   6.805   6.816  0.3140  0.0521  0.2423
   95SAPS   O32 9376   5.737   6.846   6.748  0.7149  0.6604  0.2525
   95SAPS   C32 9377   5.644   6.765   6.966  0.1966  0.1662  0.1423
   95SAPS   H2X 9378   5.744   6.718   6.982  0.7977  0.7379 -1.7060
   95SAPS   H2Y 9379   5.556   6.702   6.990 -1.4150  2.9811  2.1265
   95SAPS   C23 9380   5.248   6.430   6.856 -0.0687 -0.0546 -0.3863
   95SAPS   H3R 9381   5.157   6.370   6.879 -0.2468 -0.4685 -2.0747
   95SAPS   H3S 9382   5.214   6.513   6.790 -1.0970  0.3128  0.5534
   95SAPS   C24 9383   5.305   6.476   6.995  0.7933  0.1595  0.0332
   95SAPS   H4R 9384   5.225   6.515   7.062  0.7987 -1.5963  1.1573
   95SAPS   H4S 9385   5.378   6.553   6.963 -0.1527  0.0393 -2.5722
   95SAPS   C25 9386   5.373   6.373   7.081  0.0108  0.3952 -0.2012
   95SAPS   H5R 9387   5.364   6.268   7.050 -0.7552  0.3633  0.1121
   95SAPS   C26 9388   5.440   6.398   7.193 -0.1865  0.3185  0.4355
   95SAPS   H6R 9389   5.496   6.323   7.249 -0.2388  1.4941  2.1250
   95SAPS   C27 9390   5.455   6.531   7.257 -0.8987  0.3216 -0.4990
   95SAPS   H7R 9391   5.451   6.607   7.177  0.1552  2.1164  1.0718
   95SAPS   H7S 9392   5.558   6.541   7.298 -0.1400  0.6414 -2.3925
   95SAPS   C28 9393   5.354   6.572   7.361 -0.1485 -0.2975  0.3439
   95SAPS   H8R 9394   5.258   6.608   7.321  0.4622  0.2772 -0.6493
   95SAPS   C29 9395   5.372   6.564   7.496  0.3773 -0.1735 -0.8127
   95SAPS   H9R 9396   5.289   6.607   7.554 -0.8344  1.0831 -3.3345
   95SAPS  C210 9397   5.499   6.520   7.567  0.6119  0.0206 -0.6172
   95SAPS  H10R 9398   5.576   6.489   7.493  1.5696  1.5255 -0.2985
   95SAPS  H10S 9399   5.487   6.428   7.629  1.3883  0.1275 -0.2885
   95SAPS  C211 9400   5.550   6.618   7.669 -0.8671  0.4021  0.3513
   95SAPS  H11R 9401   5.623   6.681   7.617  0.2181 -0.3846  0.8943
   95SAPS  C212 9402   5.520   6.625   7.802  0.5734 -0.2303  0.1154
   95SAPS  H12R 9403   5.551   6.713   7.861 -1.0673 -0.7622  1.8800
   95SAPS  C213 9404   5.429   6.522   7.872  0.5006  0.0460  0.3898
   95SAPS  H13R 9405   5.470   6.420   7.851  0.6629  0.2166 -0.1360
   95SAPS  H13S 9406   5.327   6.526   7.829  0.9077  1.9014 -0.4954
   95SAPS  C214 9407   5.432   6.544   8.022  0.1964 -0.0248  0.2136
   95SAPS  H14R 9408   5.340   6.581   8.069  1.5624 -1.1051  4.1116
   95SAPS  C215 9409   5.532   6.521   8.104  0.2543  0.1934 -0.3731
   95SAPS  H15R 9410   5.514   6.525   8.213  0.2305  0.1410 -0.3750
   95SAPS  C216 9411   5.663   6.464   8.065 -0.6460 -1.6654 -0.6789
   95SAPS  H16R 9412   5.676   6.472   7.955 -0.0401 -0.8999 -0.5587
   95SAPS  H16S 9413   5.665   6.360   8.101 -2.6087 -1.2523  0.8214
   95SAPS  C217 9414   5.778   6.535   8.138  0.3527 -0.1224  0.5269
   95SAPS  H17R 9415   5.770   6.644   8.120 -2.8287 -0.0979  1.4613
   95SAPS  H17S 9416   5.881   6.515   8.104  1.0685  0.0732  2.4187
   95SAPS  C218 9417   5.767   6.504   8.289 -0.7126  0.2114  0.5272
   95SAPS  H18R 9418   5.770   6.393   8.300 -0.6001  0.2855  1.2580
   95SAPS  H18S 9419   5.674   6.538   8.340 -1.9219 -0.6872 -0.9667
   95SAPS  C219 9420   5.890   6.548   8.366 -0.1259  0.0558 -0.3575
   95SAPS  H19R 9421   5.887   6.658   8.356  1.1413  0.2235  0.8219
   95SAPS  H19S 9422   5.984   6.509   8.322  0.2645  0.0752  0.4506
   95SAPS  C220 9423   5.885   6.513   8.521  0.2019  0.1228  0.7538
   95SAPS  H20R 9424   5.854   6.413   8.556 -0.3556  0.4705  1.2777
   95SAPS  H20S 9425   5.820   6.585   8.575  0.2641  1.2835 -0.6493
   95SAPS  H20T 9426   5.986   6.528   8.566  1.3133 -0.0653 -1.5436
   95SAPS   C33 9427   5.626   6.896   7.046  0.8056 -0.5880 -0.0200
   95SAPS   H3X 9428   5.523   6.933   7.024  0.3774 -2.0064 -0.4669
   95SAPS   H3Y 9429   5.705   6.973   7.032 -0.7321  0.9790 -0.5380
   95SAPS   C34 9430   5.630   6.874   7.200  0.1886 -0.2638  0.2337
   95SAPS   H4X 9431   5.731   6.838   7.228 -0.3943 -0.3340  2.3579
   95SAPS   H4Y 9432   5.562   6.789   7.221 -0.3759  0.1445  0.0978
   95SAPS   C35 9433   5.584   6.998   7.280  0.0081  0.5269 -0.4224
   95SAPS   H5X 9434   5.491   7.040   7.236 -0.4235 -0.4430 -0.4671
   95SAPS   H5Y 9435   5.669   7.069   7.278 -1.4584  2.3203 -2.6904
   95SAPS   C36 9436   5.566   6.957   7.424  0.2886  0.8728 -0.5058
   95SAPS   H6X 9437   5.651   6.898   7.464 -1.2847 -1.8008 -0.8610
   95SAPS   H6Y 9438   5.480   6.887   7.435 -0.3632  1.9512  1.6522
   95SAPS   C37 9439   5.536   7.071   7.510 -0.3433 -0.0704 -0.2968
   95SAPS   H7X 9440   5.439   7.117   7.483 -1.1739 -1.4460  0.2104
   95SAPS   H7Y 9441   5.624   7.136   7.491 -0.4298 -0.6163 -2.8260
   95SAPS   C38 9442   5.538   7.029   7.661 -0.1269 -0.4601 -0.6198
   95SAPS   H8X 9443   5.617   6.952   7.676 -1.3885 -1.9852 -1.4381
   95SAPS   H8Y 9444   5.438   6.985   7.681 -1.2329  1.6292 -1.2244
   95SAPS   C39 9445   5.573   7.136   7.765  0.6880  0.2742 -0.5378
   95SAPS   H9X 9446   5.538   7.237   7.734 -0.8756 -0.6691 -2.0178
   95SAPS   H9Y 9447   5.684   7.146   7.764  0.7209 -0.0303 -1.6795
   95SAPS  C310 9448   5.504   7.101   7.899  0.7359  0.0278 -0.9070
   95SAPS  H10X 9449   5.531   6.997   7.926  2.7635  1.2836  2.5615
   95SAPS  H10Y 9450   5.395   7.097   7.881  0.8042  0.1314 -1.3655
   95SAPS  C311 9451   5.521   7.192   8.022  0.0611 -0.0476  0.2634
   95SAPS  H11X 9452   5.466   7.137   8.101 -0.4867 -0.8678 -0.6585
   95SAPS  H11Y 9453   5.478   7.293   8.002  0.5768 -0.2802 -2.5237
   95SAPS  C312 9454   5.672   7.202   8.055  0.0637 -0.7463 -0.7045
   95SAPS  H12X 9455   5.729   7.234   7.965  1.4578 -0.4957  0.2231
   95SAPS  H12Y 9456   5.700   7.097   8.079 -0.4072 -0.8535 -0.6134
   95SAPS  C313 9457   5.690   7.301   8.169 -0.9208 -0.2048  0.0120
   95SAPS  H13X 9458   5.626   7.386   8.137 -1.1904 -0.4123 -0.0043
   95SAPS  H13Y 9459   5.790   7.349   8.179 -1.9037  1.8436  0.6026
   95SAPS  C314 9460   5.648   7.260   8.311 -0.2638  0.1422  0.3472
   95SAPS  H14X 9461   5.708   7.173   8.345  0.4255  0.6747  0.5253
   95SAPS  H14Y 9462   5.547   7.215   8.314  0.3809 -1.2868  2.6709
   95SAPS  C315 9463   5.671   7.370   8.405  0.4314 -0.2568 -0.3010
   95SAPS  H15X 9464   5.627   7.465   8.367 -1.2094 -0.1665  1.5993
   95SAPS  H15Y 9465   5.777   7.391   8.430 -0.0901  0.6001  1.4132
   95SAPS  C316 9466   5.610   7.354   8.550  0.6886  0.2002  0.4409
   95SAPS  H16X 9467   5.663   7.274   8.606  2.9700  0.9975 -0.4808
   95SAPS  H16Y 9468   5.505   7.323   8.529  0.3718  0.5137  1.4697
   95SAPS  C317 9469   5.606   7.485   8.635  0.2074  0.0532  0.2690
   95SAPS  H17X 9470   5.547   7.567   8.589 -1.0429 -0.5219  0.7943
   95SAPS  H17Y 9471   5.711   7.522   8.636  0.8374 -1.5980 -0.8722
   95SAPS  C318 9472   5.564   7.474   8.785 -0.7942  0.2037 -0.3807
   95SAPS  H18X 9473   5.581   7.574   8.828  0.4056 -0.4139  0.6383
   95SAPS  H18Y 9474   5.631   7.406   8.842 -0.2246  0.8350 -0.2821
   95SAPS  H18Z 9475   5.456   7.451   8.794 -0.8957  1.0613  0.7417
   96SAPS     N 9476   5.810   1.718   6.243 -0.1899  0.5022  0.5453
   96SAPS   HN1 9477   5.805   1.789   6.318 -0.1211  0.5882  0.4690
   96SAPS   HN2 9478   5.773   1.761   6.155  0.0881  0.6697  0.5102
   96SAPS   HN3 9479   5.740   1.646   6.270  0.5165  0.6432  2.9492
   96SAPS   C12 9480   5.947   1.673   6.213  1.1289 -0.0344 -0.4890
   96SAPS  H12A 9481   5.937   1.587   6.148  0.2027  0.6252 -1.2377
   96SAPS   C13 9482   6.029   1.764   6.115  0.4069 -0.3193 -0.7353
   96SAPS  O13A 9483   5.982   1.879   6.080 -0.6697 -0.3759 -0.2160
   96SAPS  O13B 9484   6.150   1.748   6.121 -0.6688  0.4598 -0.4935
   96SAPS   C11 9485   6.017   1.643   6.348  0.0616  0.2222 -0.2943
   96SAPS  H11A 9486   6.043   1.736   6.403  1.0521 -1.0204  1.4454
   96SAPS  H11B 9487   6.108   1.593   6.307 -0.3336  0.8020 -1.9386
   96SAPS     P 9488   5.935   1.404   6.426  0.1026  0.1315 -0.2107
   96SAPS   O13 9489   5.884   1.359   6.298  0.3949 -0.5784  0.0743
   96SAPS   O14 9490   6.073   1.360   6.451 -0.6988  0.2440  0.4658
   96SAPS   O12 9491   5.938   1.565   6.439 -0.1105  0.3422  0.1162
   96SAPS   O11 9492   5.850   1.340   6.538 -0.1540 -0.2897 -0.2469
   96SAPS    C1 9493   5.703   1.333   6.526  0.3969  0.1898  0.4718
   96SAPS    HA 9494   5.667   1.348   6.422  1.1062  0.5754  0.2735
   96SAPS    HB 9495   5.664   1.237   6.565 -0.0315  0.0962 -0.1706
   96SAPS    C2 9496   5.630   1.449   6.605 -0.2150 -0.1910 -0.2942
   96SAPS    HS 9497   5.634   1.532   6.531 -1.3398 -3.1220 -3.9968
   96SAPS   O21 9498   5.698   1.467   6.732 -0.3665 -0.4837  0.1561
   96SAPS   C21 9499   5.737   1.597   6.765  0.2412 -0.1129  0.6849
   96SAPS   O22 9500   5.735   1.686   6.683 -0.2283 -0.1184 -0.1242
   96SAPS   C22 9501   5.785   1.602   6.912  0.0743  0.2506  0.0598
   96SAPS   H2R 9502   5.713   1.540   6.969  0.7295 -0.9145 -0.3483
   96SAPS   H2S 9503   5.885   1.553   6.919  0.3971  0.8696 -0.1866
   96SAPS    C3 9504   5.481   1.424   6.639 -0.8390  0.8014 -0.0678
   96SAPS    HX 9505   5.457   1.345   6.714 -1.6446  2.2246  1.2388
   96SAPS    HY 9506   5.434   1.387   6.545  0.3663  0.7475 -0.6616
   96SAPS   O31 9507   5.417   1.547   6.682  0.0380 -0.3295  0.0424
   96SAPS   C31 9508   5.350   1.623   6.596  0.2540 -0.4246  0.3373
   96SAPS   O32 9509   5.352   1.619   6.475 -0.1829  0.0850 -0.6739
   96SAPS   C32 9510   5.296   1.745   6.673  0.5341  0.1046 -0.4551
   96SAPS   H2X 9511   5.206   1.710   6.727  0.8381 -0.0398 -0.0453
   96SAPS   H2Y 9512   5.282   1.829   6.601  2.1869 -1.1072 -2.2795
   96SAPS   C23 9513   5.801   1.744   6.971  0.5521  0.3732  0.3723
   96SAPS   H3R 9514   5.710   1.802   6.944 -0.5434 -0.1773  2.6226
   96SAPS   H3S 9515   5.893   1.788   6.927  0.1582  0.4379 -0.4041
   96SAPS   C24 9516   5.805   1.756   7.127  0.1533 -0.7988  0.6794
   96SAPS   H4R 9517   5.704   1.721   7.159  0.4150  0.0453  2.5886
   96SAPS   H4S 9518   5.804   1.862   7.162  0.9021  0.1462 -1.9643
   96SAPS   C25 9519   5.908   1.670   7.192  0.8132  0.1267 -0.2556
   96SAPS   H5R 9520   5.943   1.583   7.134  1.2945  0.6266 -0.7349
   96SAPS   C26 9521   5.937   1.683   7.326  0.2378  0.4417 -0.0844
   96SAPS   H6R 9522   6.008   1.614   7.375  0.6384  1.0449  0.2041
   96SAPS   C27 9523   5.887   1.779   7.433  0.1804 -0.3145 -0.3820
   96SAPS   H7R 9524   5.862   1.711   7.517  2.3242  0.8234  1.2739
   96SAPS   H7S 9525   5.794   1.836   7.412 -1.6387 -2.7494  0.6370
   96SAPS   C28 9526   6.000   1.864   7.480  0.3415 -0.4446  0.4016
   96SAPS   H8R 9527   6.036   1.931   7.400 -0.8839  1.0100  1.0358
   96SAPS   C29 9528   6.072   1.844   7.591 -0.4598  0.2831 -0.5378
   96SAPS   H9R 9529   6.157   1.912   7.608  0.8777 -1.7970  1.9671
   96SAPS  C210 9530   6.052   1.741   7.702 -0.0409  0.2242  0.0878
   96SAPS  H10R 9531   6.155   1.711   7.734 -0.5996 -0.8134  0.9913
   96SAPS  H10S 9532   6.011   1.642   7.673 -1.7730  0.6879  0.8541
   96SAPS  C211 9533   5.975   1.797   7.816 -0.0114  0.0663  0.4114
   96SAPS  H11R 9534   5.888   1.854   7.780  0.4638  1.3214  1.1645
   96SAPS  C212 9535   6.012   1.781   7.947  0.3674 -0.2603 -0.0855
   96SAPS  H12R 9536   5.948   1.830   8.021 -0.5699 -0.8219 -0.5091
   96SAPS  C213 9537   6.131   1.706   7.999  0.4360  0.2876 -0.3636
   96SAPS  H13R 9538   6.210   1.777   8.029  1.4651 -1.3961  1.0861
   96SAPS  H13S 9539   6.174   1.646   7.917 -3.4575 -1.0063 -1.7092
   96SAPS  C214 9540   6.110   1.609   8.107 -0.4573  0.1015  0.0298
   96SAPS  H14R 9541   6.012   1.560   8.098 -1.1369  1.3419  0.5115
   96SAPS  C215 9542   6.190   1.573   8.211 -1.0104  0.5591 -0.2550
   96SAPS  H15R 9543   6.161   1.491   8.278 -2.4339  1.0693 -0.2210
   96SAPS  C216 9544   6.327   1.638   8.235 -0.0469  0.4694  0.6130
   96SAPS  H16R 9545   6.356   1.701   8.148  0.6211 -0.0175  0.4704
   96SAPS  H16S 9546   6.406   1.560   8.223  0.9421  1.5751 -0.3182
   96SAPS  C217 9547   6.344   1.710   8.370 -0.4447  0.4811  0.6397
   96SAPS  H17R 9548   6.303   1.639   8.445  0.8737  0.4742  1.3844
   96SAPS  H17S 9549   6.284   1.802   8.387  1.7448  2.0766  0.0991
   96SAPS  C218 9550   6.488   1.751   8.413  0.5124 -0.0734  0.6460
   96SAPS  H18R 9551   6.517   1.840   8.354 -0.7426 -1.0811 -1.6474
   96SAPS  H18S 9552   6.561   1.670   8.393  0.6892  0.0272  0.8866
   96SAPS  C219 9553   6.497   1.802   8.560 -0.8057 -0.0869  0.3503
   96SAPS  H19R 9554   6.486   1.715   8.629 -1.5599  0.2592  0.6734
   96SAPS  H19S 9555   6.411   1.869   8.582  1.1154  1.8227  2.6441
   96SAPS  C220 9556   6.618   1.878   8.598  0.3778  0.0717 -0.2896
   96SAPS  H20R 9557   6.618   1.917   8.703 -0.2022  0.2756 -0.3616
   96SAPS  H20S 9558   6.638   1.964   8.530  2.2027  1.5221  1.9095
   96SAPS  H20T 9559   6.705   1.809   8.594 -0.9781 -1.8466  1.4834
   96SAPS   C33 9560   5.396   1.805   6.776  0.0679  0.6802  0.0470
   96SAPS   H3X 9561   5.491   1.822   6.721 -0.1286  0.4789 -0.3623
   96SAPS   H3Y 9562   5.411   1.739   6.865  1.3275 -0.2897 -0.8395
   96SAPS   C34 9563   5.365   1.949   6.828  0.1103 -0.1978 -0.3865
   96SAPS   H4X 9564   5.298   2.013   6.766  2.9054  3.2513 -0.1593
   96SAPS   H4Y 9565   5.465   1.996   6.821  0.3003 -0.5558 -0.1144
   96SAPS   C35 9566   5.324   1.965   6.977 -0.9713 -0.3688  0.1717
   96SAPS   H5X 9567   5.248   1.890   7.008 -0.1166 -2.2219 -1.9188
   96SAPS   H5Y 9568   5.283   2.067   6.990 -2.4406 -0.4275 -2.9235
   96SAPS   C36 9569   5.447   1.951   7.067  0.3279  0.4246  0.1165
   96SAPS   H6X 9570   5.527   2.021   7.038 -0.1594  0.9900  0.1187
   96SAPS   H6Y 9571   5.490   1.848   7.070 -0.4368  0.1106  0.6012
   96SAPS   C37 9572   5.410   1.985   7.213  0.7624  0.5053  0.8653
   96SAPS   H7X 9573   5.312   1.936   7.234  0.4643  0.6056 -0.2582
   96SAPS   H7Y 9574   5.378   2.090   7.228 -1.3923  0.0529 -0.2107
   96SAPS   C38 9575   5.510   1.939   7.313 -0.2971  0.2704  0.1378
   96SAPS   H8X 9576   5.608   1.980   7.285  1.3567 -3.2076  0.2440
   96SAPS   H8Y 9577   5.512   1.828   7.303 -7.2490 -0.1190 -2.3045
   96SAPS   C39 9578   5.481   2.000   7.448  1.1674  0.0823  0.2300
   96SAPS   H9X 9579   5.388   1.958   7.492 -0.7356  2.1702 -1.5461
   96SAPS   H9Y 9580   5.474   2.109   7.427 -0.0005  0.1148  0.7462
   96SAPS  C310 9581   5.588   1.974   7.553 -0.0906 -0.0053  0.3977
   96SAPS  H10X 9582   5.686   2.008   7.512 -0.8475  0.2639 -1.2411
   96SAPS  H10Y 9583   5.580   1.864   7.546  0.6434  0.0144 -0.9738
   96SAPS  C311 9584   5.545   2.029   7.691 -0.3376 -0.9255  0.6224
   96SAPS  H11X 9585   5.434   2.021   7.696 -0.3172 -2.0060 -0.3144
   96SAPS  H11Y 9586   5.594   2.128   7.700  1.2926 -1.7970  1.8841
   96SAPS  C312 9587   5.602   1.944   7.806 -0.0538 -0.0936  0.4910
   96SAPS  H12X 9588   5.712   1.957   7.795 -0.1614 -1.0868 -2.7092
   96SAPS  H12Y 9589   5.578   1.836   7.796 -0.9491  0.2796 -2.2063
   96SAPS  C313 9590   5.556   2.002   7.943 -0.3032 -0.0214  0.7535
   96SAPS  H13X 9591   5.447   2.023   7.952 -0.0591  0.8963  1.7094
   96SAPS  H13Y 9592   5.600   2.104   7.940  1.7738 -0.7898  2.6034
   96SAPS  C314 9593   5.613   1.918   8.059  0.7083  0.4300 -0.4343
   96SAPS  H14X 9594   5.723   1.914   8.044  0.5834  0.2441 -1.3786
   96SAPS  H14Y 9595   5.555   1.824   8.049 -0.1741  0.8362  0.6386
   96SAPS  C315 9596   5.583   1.987   8.196  0.4212  0.2829 -0.1381
   96SAPS  H15X 9597   5.480   1.962   8.227  0.5804 -1.1576 -0.6704
   96SAPS  H15Y 9598   5.582   2.096   8.179 -2.3596  0.1708 -1.1159
   96SAPS  C316 9599   5.693   1.948   8.298 -0.5418  0.0934  0.9331
   96SAPS  H16X 9600   5.787   2.004   8.282 -0.0916 -1.0744 -0.7653
   96SAPS  H16Y 9601   5.718   1.840   8.286  0.2674  0.5050 -1.6724
   96SAPS  C317 9602   5.644   1.972   8.441  0.2454 -0.2714  0.0688
   96SAPS  H17X 9603   5.576   1.888   8.466  0.8786 -0.2728  1.9347
   96SAPS  H17Y 9604   5.585   2.066   8.450  1.0596  0.2665 -0.1083
   96SAPS  C318 9605   5.765   1.969   8.535  0.5839 -0.1400  0.0286
   96SAPS  H18X 9606   5.812   2.069   8.525  0.5164 -0.2914 -2.1855
   96SAPS  H18Y 9607   5.838   1.897   8.491  0.3726 -0.4459  0.1694
   96SAPS  H18Z 9608   5.747   1.948   8.643 -0.6816 -0.0312 -0.1459
   97SAPS     N 9609   0.528   5.811   6.491  0.3976 -0.6719  0.7717
   97SAPS   HN1 9610   0.436   5.860   6.490 -0.4333 -2.1839  0.2322
   97SAPS   HN2 9611   0.518   5.723   6.546 -0.3066  0.1390  2.0208
   97SAPS   HN3 9612   0.602   5.871   6.532 -0.2818 -0.4054  1.6687
   97SAPS   C12 9613   0.558   5.782   6.349  0.0182 -0.4178 -0.2127
   97SAPS  H12A 9614   0.478   5.729   6.298 -0.7482  1.3468 -0.9210
   97SAPS   C13 9615   0.572   5.911   6.259 -0.1540  0.2417 -0.3787
   97SAPS  O13A 9616   0.546   6.026   6.309 -0.1977 -0.3407  0.0314
   97SAPS  O13B 9617   0.600   5.895   6.139 -0.4106 -0.0684  0.2904
   97SAPS   C11 9618   0.686   5.706   6.337 -0.2326  0.4144 -0.2173
   97SAPS  H11A 9619   0.780   5.747   6.378 -0.5410  0.2552  0.6643
   97SAPS  H11B 9620   0.709   5.695   6.229 -1.3511 -0.0623 -0.4213
   97SAPS     P 9621   0.754   5.450   6.383  0.3482  0.1626  0.2008
   97SAPS   O13 9622   0.662   5.336   6.362  0.3713 -0.0358  0.7436
   97SAPS   O14 9623   0.851   5.477   6.275  0.1785 -0.3625 -0.1276
   97SAPS   O12 9624   0.668   5.573   6.400  0.2777 -0.2973 -0.0225
   97SAPS   O11 9625   0.826   5.435   6.519  0.1330  0.1924 -0.2126
   97SAPS    C1 9626   0.783   5.495   6.638  0.2159 -0.5282  0.5603
   97SAPS    HA 9627   0.870   5.497   6.708 -0.3373  0.0561  1.2582
   97SAPS    HB 9628   0.742   5.597   6.620  1.6867  0.0711  0.4148
   97SAPS    C2 9629   0.669   5.413   6.694 -0.2534 -0.6979 -0.7571
   97SAPS    HS 9630   0.585   5.416   6.621  1.4379 -0.9926 -2.7990
   97SAPS   O21 9631   0.627   5.467   6.825  0.1098 -0.0210 -0.4466
   97SAPS   C21 9632   0.536   5.556   6.816 -0.4198 -0.7266 -0.3567
   97SAPS   O22 9633   0.518   5.624   6.714 -0.2933 -0.2626  0.2178
   97SAPS   C22 9634   0.448   5.562   6.940 -0.2671  0.1566 -0.0537
   97SAPS   H2R 9635   0.477   5.652   6.999 -0.3090  0.2866 -0.2274
   97SAPS   H2S 9636   0.341   5.568   6.908 -0.7414 -0.2347  1.3923
   97SAPS    C3 9637   0.703   5.255   6.708  0.7301  0.2335  0.8460
   97SAPS    HX 9638   0.789   5.244   6.777  0.7815 -0.8787  0.6226
   97SAPS    HY 9639   0.737   5.230   6.605  0.2955  0.6576  0.5938
   97SAPS   O31 9640   0.587   5.179   6.750  0.7663  0.3455 -0.3609
   97SAPS   C31 9641   0.570   5.058   6.699 -0.2969 -0.5963  0.3420
   97SAPS   O32 9642   0.656   5.007   6.630  0.1421 -0.0013  0.7063
   97SAPS   C32 9643   0.439   5.001   6.744 -0.7404  0.4985 -0.2546
   97SAPS   H2X 9644   0.423   4.902   6.697  1.4693  0.8115 -1.8017
   97SAPS   H2Y 9645   0.359   5.070   6.710 -0.3246  0.4778 -1.3076
   97SAPS   C23 9646   0.467   5.446   7.047 -1.6996  0.2859  0.4941
   97SAPS   H3R 9647   0.565   5.460   7.098 -2.5488  0.3530  2.1822
   97SAPS   H3S 9648   0.455   5.345   7.002 -1.2859  0.1734  0.6374
   97SAPS   C24 9649   0.347   5.448   7.138  0.2119  0.7527 -0.6947
   97SAPS   H4R 9650   0.339   5.351   7.191  0.7680  0.2439 -1.5221
   97SAPS   H4S 9651   0.246   5.462   7.093 -1.8431 -0.6852  2.9922
   97SAPS   C25 9652   0.362   5.554   7.234 -0.3131  0.0951  0.4973
   97SAPS   H5R 9653   0.325   5.653   7.204  0.3809  0.8875  2.1169
   97SAPS   C26 9654   0.418   5.541   7.361 -0.2458 -0.1663 -0.5988
   97SAPS   H6R 9655   0.441   5.628   7.425  0.2983 -0.8944  0.2224
   97SAPS   C27 9656   0.460   5.416   7.436 -0.2879  0.6002  0.9017
   97SAPS   H7R 9657   0.557   5.431   7.490  2.2357 -0.4596 -2.9529
   97SAPS   H7S 9658   0.472   5.330   7.368 -2.3784 -0.2681  1.5460
   97SAPS   C28 9659   0.346   5.354   7.518  0.2426 -0.2706  0.0977
   97SAPS   H8R 9660   0.257   5.318   7.465 -0.6695  0.9941  0.7240
   97SAPS   C29 9661   0.333   5.342   7.652 -0.4533  0.4527  0.2065
   97SAPS   H9R 9662   0.236   5.300   7.685 -1.9323  0.7891 -3.2623
   97SAPS  C210 9663   0.430   5.377   7.763  0.4161 -0.5064  0.2012
   97SAPS  H10R 9664   0.370   5.417   7.848  2.0531 -0.0645  1.1951
   97SAPS  H10S 9665   0.491   5.462   7.727  1.6508 -1.3722  0.1787
   97SAPS  C211 9666   0.539   5.273   7.795 -0.5991  0.1783  0.1975
   97SAPS  H11R 9667   0.558   5.196   7.719 -0.6285 -0.8519  1.2071
   97SAPS  C212 9668   0.607   5.276   7.914 -0.0214 -0.0201  0.4367
   97SAPS  H12R 9669   0.669   5.186   7.930  0.9481  0.5119 -0.2007
   97SAPS  C213 9670   0.586   5.383   8.018 -0.4119 -0.2276 -0.0149
   97SAPS  H13R 9671   0.523   5.467   7.983 -1.3701 -0.6628  0.6140
   97SAPS  H13S 9672   0.684   5.433   8.030 -0.8222  0.7200 -0.5054
   97SAPS  C214 9673   0.549   5.339   8.159 -1.0573 -0.1886 -0.3153
   97SAPS  H14R 9674   0.440   5.327   8.176 -1.2321 -0.8710 -1.7742
   97SAPS  C215 9675   0.636   5.317   8.258 -0.3330  0.7676 -0.0962
   97SAPS  H15R 9676   0.597   5.271   8.351  0.5920  0.3886  0.1152
   97SAPS  C216 9677   0.784   5.319   8.255 -0.0568  0.2657  0.3219
   97SAPS  H16R 9678   0.816   5.425   8.250 -0.3240  0.3490  0.3647
   97SAPS  H16S 9679   0.817   5.281   8.157 -0.2195  1.2733 -0.1362
   97SAPS  C217 9680   0.860   5.243   8.368  0.1118 -0.4151  0.3381
   97SAPS  H17R 9681   0.967   5.235   8.338  0.1510 -1.1758  0.6651
   97SAPS  H17S 9682   0.807   5.146   8.380 -3.5211  0.9798 -2.5223
   97SAPS  C218 9683   0.857   5.319   8.505 -0.6978 -1.0581 -0.3689
   97SAPS  H18R 9684   0.762   5.369   8.534 -0.0167 -0.3462  0.7111
   97SAPS  H18S 9685   0.926   5.405   8.494  0.7673 -2.2981 -1.3262
   97SAPS  C219 9686   0.899   5.224   8.613 -0.0726 -0.0426  0.1064
   97SAPS  H19R 9687   0.988   5.166   8.582 -0.7822 -0.9669 -0.2494
   97SAPS  H19S 9688   0.816   5.153   8.634  0.0789  0.2102  1.6665
   97SAPS  C220 9689   0.940   5.286   8.751 -0.0770 -0.0660 -0.1319
   97SAPS  H20R 9690   1.037   5.341   8.751 -0.0659 -0.0748  0.9291
   97SAPS  H20S 9691   0.942   5.212   8.834 -0.2559 -0.5939 -0.5963
   97SAPS  H20T 9692   0.858   5.354   8.782 -0.1164 -1.1660  2.4763
   97SAPS   C33 9693   0.432   4.995   6.900  0.4640 -1.0332  0.1271
   97SAPS   H3X 9694   0.406   5.097   6.934 -2.2481 -1.4155 -0.5119
   97SAPS   H3Y 9695   0.527   4.974   6.952  1.5951 -0.9899 -1.8235
   97SAPS   C34 9696   0.322   4.902   6.963  0.1067 -0.4552  0.7042
   97SAPS   H4X 9697   0.345   4.798   6.931  1.0831  0.3979 -1.6336
   97SAPS   H4Y 9698   0.235   4.935   6.902 -0.1464  2.5732  2.5000
   97SAPS   C35 9699   0.294   4.917   7.114  0.4496 -0.5264 -0.4484
   97SAPS   H5X 9700   0.195   4.867   7.121  0.3910 -0.4025 -0.3935
   97SAPS   H5Y 9701   0.296   5.025   7.138 -0.1392 -0.6572  0.1960
   97SAPS   C36 9702   0.390   4.834   7.208  0.3384  0.2437  0.0969
   97SAPS   H6X 9703   0.359   4.855   7.312 -0.0055 -1.4611  0.3713
   97SAPS   H6Y 9704   0.496   4.858   7.187  0.6425 -1.3598 -0.4007
   97SAPS   C37 9705   0.394   4.677   7.200 -0.4380  0.0835 -0.1172
   97SAPS   H7X 9706   0.438   4.642   7.104  3.2371 -2.0016  2.1014
   97SAPS   H7Y 9707   0.294   4.630   7.214  0.2299 -1.2869  0.2908
   97SAPS   C38 9708   0.483   4.612   7.296  0.5317  0.1003  0.0153
   97SAPS   H8X 9709   0.457   4.662   7.392  1.2774 -0.4605  0.5277
   97SAPS   H8Y 9710   0.593   4.621   7.280  0.2310  0.1830 -2.4056
   97SAPS   C39 9711   0.461   4.463   7.321 -0.4800  0.7125 -0.3817
   97SAPS   H9X 9712   0.360   4.442   7.362 -0.8700  2.1642 -0.5471
   97SAPS   H9Y 9713   0.539   4.422   7.389 -0.0233  0.5773 -0.9762
   97SAPS  C310 9714   0.466   4.379   7.192 -0.3261  0.4671  0.2599
   97SAPS  H10X 9715   0.569   4.388   7.151 -0.7686  2.3930 -0.5824
   97SAPS  H10Y 9716   0.401   4.438   7.123 -3.7872  1.0540  3.7146
   97SAPS  C311 9717   0.409   4.240   7.210  0.0836  0.0134  0.6018
   97SAPS  H11X 9718   0.332   4.233   7.289 -0.1609 -0.2496  0.3418
   97SAPS  H11Y 9719   0.499   4.185   7.246  0.6914 -0.6957 -1.8181
   97SAPS  C312 9720   0.364   4.192   7.066  0.2880 -0.3278 -0.8494
   97SAPS  H12X 9721   0.438   4.211   6.986  3.9740 -2.7723  1.6599
   97SAPS  H12Y 9722   0.270   4.247   7.042  1.0551  2.0752  1.1149
   97SAPS  C313 9723   0.338   4.037   7.076 -0.2556 -0.2450  0.0368
   97SAPS  H13X 9724   0.266   4.020   7.159  2.0347 -0.1111  2.1749
   97SAPS  H13Y 9725   0.432   3.980   7.092 -0.8629 -1.6702 -1.1919
   97SAPS  C314 9726   0.291   3.986   6.937  1.0119 -0.2198  0.4322
   97SAPS  H14X 9727   0.219   4.057   6.891 -1.5955 -1.4282  2.4186
   97SAPS  H14Y 9728   0.232   3.894   6.956 -0.4617  0.8367  1.1956
   97SAPS  C315 9729   0.414   3.973   6.836  0.3352  0.4852 -0.1160
   97SAPS  H15X 9730   0.479   3.897   6.885  1.4648  0.0067 -2.2354
   97SAPS  H15Y 9731   0.471   4.068   6.826  2.0035 -0.3386  1.1042
   97SAPS  C316 9732   0.360   3.913   6.709 -0.9174  0.3033 -0.4047
   97SAPS  H16X 9733   0.273   3.843   6.707  0.4753 -1.5410 -3.1195
   97SAPS  H16Y 9734   0.437   3.847   6.665 -1.8345 -0.9891 -0.1481
   97SAPS  C317 9735   0.325   4.017   6.601  0.2061 -0.9791 -0.0732
   97SAPS  H17X 9736   0.347   4.122   6.631  0.6041 -1.0272 -0.1876
   97SAPS  H17Y 9737   0.214   4.013   6.598 -0.0440  2.8840 -1.8829
   97SAPS  C318 9738   0.377   3.974   6.466 -0.3987 -0.3597  0.1581
   97SAPS  H18X 9739   0.355   3.868   6.440  2.4701 -1.6946  2.5927
   97SAPS  H18Y 9740   0.487   3.992   6.461 -0.0053 -2.5895 -0.6279
   97SAPS  H18Z 9741   0.334   4.039   6.387  1.4007 -1.0874 -1.5110
   98SAPS     N 9742   3.703   6.453   6.267  0.1539 -0.1657  0.0694
   98SAPS   HN1 9743   3.747   6.490   6.354 -0.6100 -0.0615  0.4144
   98SAPS   HN2 9744   3.646   6.529   6.224  1.0062  0.0602 -0.7100
   98SAPS   HN3 9745   3.651   6.367   6.291 -0.0717 -0.1037 -0.1881
   98SAPS   C12 9746   3.807   6.426   6.165 -1.1082 -0.3391  0.0779
   98SAPS  H12A 9747   3.904   6.408   6.210 -0.6099  0.7262 -0.5315
   98SAPS   C13 9748   3.777   6.304   6.073  0.1861  0.5243 -0.3161
   98SAPS  O13A 9749   3.659   6.247   6.082 -0.3343 -0.4375  0.2785
   98SAPS  O13B 9750   3.858   6.272   5.981  0.2357 -0.4957  0.1059
   98SAPS   C11 9751   3.816   6.551   6.077 -0.3978 -0.0052  0.8498
   98SAPS  H11A 9752   3.722   6.547   6.018 -1.0589 -2.4548  1.9329
   98SAPS  H11B 9753   3.896   6.544   6.000  0.5893 -0.0231  1.8621
   98SAPS     P 9754   3.942   6.769   6.143  0.3586  0.4325  0.3890
   98SAPS   O13 9755   4.059   6.697   6.198 -0.5232 -0.5639 -0.7248
   98SAPS   O14 9756   3.954   6.831   6.007  0.2268 -0.3217 -0.1966
   98SAPS   O12 9757   3.817   6.672   6.151  0.2611 -0.5024 -0.1901
   98SAPS   O11 9758   3.889   6.881   6.241  0.0501  0.0285 -0.2560
   98SAPS    C1 9759   3.819   6.867   6.365 -0.0769  0.0728  0.5586
   98SAPS    HA 9760   3.769   6.964   6.390  1.2243  0.1925  3.0312
   98SAPS    HB 9761   3.741   6.790   6.348 -1.0736  1.3574 -1.0152
   98SAPS    C2 9762   3.917   6.817   6.478  0.0476  0.8441  0.5002
   98SAPS    HS 9763   3.985   6.741   6.434  0.5910  1.8542 -0.4479
   98SAPS   O21 9764   3.845   6.784   6.587  0.3003  0.1220 -0.5511
   98SAPS   C21 9765   3.792   6.659   6.588 -0.0974 -0.0025 -0.0621
   98SAPS   O22 9766   3.796   6.584   6.493 -0.1047 -0.3134 -0.3542
   98SAPS   C22 9767   3.757   6.628   6.728  0.4399  0.0526 -0.6300
   98SAPS   H2R 9768   3.745   6.723   6.784 -0.4942  0.0933 -0.8713
   98SAPS   H2S 9769   3.650   6.599   6.736  0.3955  0.3813  0.0030
   98SAPS    C3 9770   4.016   6.928   6.527 -0.1520 -0.5615 -0.6329
   98SAPS    HX 9771   3.959   7.014   6.567  2.6946  1.2852 -0.2883
   98SAPS    HY 9772   4.072   6.973   6.441 -1.6331  0.5267 -1.0631
   98SAPS   O31 9773   4.107   6.883   6.629  1.0000  0.0355 -0.4133
   98SAPS   C31 9774   4.220   6.826   6.588  0.2962 -1.1245 -0.3312
   98SAPS   O32 9775   4.240   6.782   6.475  0.2772 -0.0723  0.0462
   98SAPS   C32 9776   4.315   6.820   6.713 -0.5529 -0.5191 -0.0630
   98SAPS   H2X 9777   4.243   6.789   6.792 -0.2294  0.8248  0.7941
   98SAPS   H2Y 9778   4.354   6.923   6.732 -1.8475 -0.2775  1.5199
   98SAPS   C23 9779   3.851   6.533   6.802  0.1096  0.5419  0.0216
   98SAPS   H3R 9780   3.884   6.451   6.735 -1.7590  0.6502 -1.1130
   98SAPS   H3S 9781   3.787   6.487   6.879 -2.3249 -0.2559 -2.3463
   98SAPS   C24 9782   3.980   6.600   6.850  0.1092  0.0214 -0.7753
   98SAPS   H4R 9783   3.951   6.689   6.910 -1.5358  0.4141 -2.0744
   98SAPS   H4S 9784   4.035   6.649   6.768 -2.0706  3.2252 -0.4901
   98SAPS   C25 9785   4.067   6.502   6.925  0.3647  0.1406 -0.9546
   98SAPS   H5R 9786   4.096   6.407   6.878  2.4486 -0.2612  0.9727
   98SAPS   C26 9787   4.121   6.526   7.050 -0.1735 -0.0198  0.4089
   98SAPS   H6R 9788   4.177   6.443   7.095  0.5377  1.1526  1.7702
   98SAPS   C27 9789   4.122   6.655   7.121 -0.0088 -0.2955 -0.2828
   98SAPS   H7R 9790   4.118   6.638   7.231  2.7369  1.1626  0.1223
   98SAPS   H7S 9791   4.033   6.719   7.101 -1.4110 -2.2523 -0.7075
   98SAPS   C28 9792   4.257   6.728   7.103  0.7867 -0.2223  0.4201
   98SAPS   H8R 9793   4.247   6.810   7.029 -0.6704  0.0462  0.8731
   98SAPS   C29 9794   4.381   6.716   7.168  0.4177  0.2066  1.1311
   98SAPS   H9R 9795   4.446   6.805   7.168 -1.3727  1.7060 -2.3231
   98SAPS  C210 9796   4.408   6.608   7.269 -0.1221 -0.1076  0.3803
   98SAPS  H10R 9797   4.462   6.531   7.211  2.5475 -0.4785  3.1105
   98SAPS  H10S 9798   4.312   6.558   7.295 -0.5899  1.2706  1.4512
   98SAPS  C211 9799   4.483   6.637   7.393 -0.0839  0.1199 -0.0849
   98SAPS  H11R 9800   4.587   6.600   7.392  0.0693  0.5242 -1.5047
   98SAPS  C212 9801   4.435   6.712   7.496  0.3510 -0.2152 -0.0436
   98SAPS  H12R 9802   4.491   6.728   7.590  0.9728 -0.1054 -0.4257
   98SAPS  C213 9803   4.302   6.773   7.502  0.3108 -0.3981  1.0621
   98SAPS  H13R 9804   4.224   6.719   7.445 -0.3382  1.5495 -0.0187
   98SAPS  H13S 9805   4.307   6.864   7.438 -1.1571 -0.1322  1.2665
   98SAPS  C214 9806   4.249   6.813   7.640 -0.3145 -0.7098 -0.4304
   98SAPS  H14R 9807   4.283   6.913   7.672 -1.2605 -0.4062 -0.3471
   98SAPS  C215 9808   4.187   6.727   7.727  0.9487 -0.1897 -0.0042
   98SAPS  H15R 9809   4.145   6.762   7.822 -1.5784 -2.0707 -0.3408
   98SAPS  C216 9810   4.138   6.589   7.693  0.3743 -0.0095  0.3265
   98SAPS  H16R 9811   4.149   6.519   7.778  0.5556 -1.7251 -1.0423
   98SAPS  H16S 9812   4.201   6.556   7.608  0.7414 -0.8364  0.9098
   98SAPS  C217 9813   3.991   6.568   7.647  0.3989  0.3766  0.5955
   98SAPS  H17R 9814   3.930   6.632   7.713 -0.5604  1.3758 -1.1780
   98SAPS  H17S 9815   3.966   6.463   7.671 -0.3914  0.6124  0.8298
   98SAPS  C218 9816   3.969   6.598   7.495 -0.7880  0.3658 -0.7996
   98SAPS  H18R 9817   4.042   6.549   7.427 -0.4653 -1.2796  0.6590
   98SAPS  H18S 9818   3.988   6.705   7.471  0.7630 -0.3121 -2.8510
   98SAPS  C219 9819   3.827   6.568   7.454 -0.2174 -0.2372 -0.3399
   98SAPS  H19R 9820   3.762   6.652   7.487  1.3906  0.4308  1.2599
   98SAPS  H19S 9821   3.796   6.476   7.509  1.8402 -0.2091  0.9640
   98SAPS  C220 9822   3.810   6.536   7.304 -0.2342  0.2240 -0.1998
   98SAPS  H20R 9823   3.894   6.469   7.276 -0.6599  0.5113 -2.2502
   98SAPS  H20S 9824   3.817   6.629   7.243 -0.4770 -0.3717 -1.1338
   98SAPS  H20T 9825   3.712   6.489   7.287 -0.4399  0.1556  1.0344
   98SAPS   C33 9826   4.422   6.711   6.694 -0.6143 -0.3488  0.4827
   98SAPS   H3X 9827   4.497   6.754   6.625  0.5677 -1.1349  1.2342
   98SAPS   H3Y 9828   4.376   6.627   6.637  1.6579 -0.7858 -0.8164
   98SAPS   C34 9829   4.484   6.668   6.824  0.3047  0.7308 -0.0239
   98SAPS   H4X 9830   4.414   6.595   6.871  0.2625  0.1261 -0.9823
   98SAPS   H4Y 9831   4.508   6.743   6.901  0.7434 -0.5476  1.1260
   98SAPS   C35 9832   4.615   6.597   6.821  0.4787 -0.6134 -0.1153
   98SAPS   H5X 9833   4.694   6.668   6.789 -2.0843  1.6659 -1.8329
   98SAPS   H5Y 9834   4.620   6.509   6.754  1.1151 -1.2443  0.7246
   98SAPS   C36 9835   4.657   6.541   6.959  0.8755 -1.2668 -0.4790
   98SAPS   H6X 9836   4.580   6.465   6.984  1.0901 -1.7927 -1.3757
   98SAPS   H6Y 9837   4.647   6.630   7.025  0.2053  0.1146 -2.3576
   98SAPS   C37 9838   4.807   6.512   6.951  0.3690  0.7228  0.1745
   98SAPS   H7X 9839   4.863   6.606   6.931  0.7861  0.9299  2.1426
   98SAPS   H7Y 9840   4.807   6.453   6.856 -3.6728 -0.9266  1.0135
   98SAPS   C38 9841   4.861   6.430   7.070 -0.1015  0.0291  0.4728
   98SAPS   H8X 9842   4.972   6.419   7.068 -0.0479  0.1388  2.0758
   98SAPS   H8Y 9843   4.816   6.329   7.069 -1.6221  0.6905 -0.2475
   98SAPS   C39 9844   4.833   6.499   7.197 -0.3740  0.3179 -0.0116
   98SAPS   H9X 9845   4.728   6.510   7.233 -0.4185 -0.2807  0.0517
   98SAPS   H9Y 9846   4.859   6.607   7.191  0.0535  0.2393  0.3916
   98SAPS  C310 9847   4.909   6.444   7.322  0.1307  0.1380  0.6317
   98SAPS  H10X 9848   5.017   6.468   7.325 -0.1608  1.4255  2.7350
   98SAPS  H10Y 9849   4.909   6.333   7.316  0.4417  0.0712  1.7166
   98SAPS  C311 9850   4.853   6.479   7.467  0.1848 -0.8757 -0.1765
   98SAPS  H11X 9851   4.769   6.414   7.500  1.3395 -0.8817  3.1477
   98SAPS  H11Y 9852   4.824   6.586   7.464 -0.0368 -0.9138  0.4380
   98SAPS  C312 9853   4.956   6.477   7.577 -1.1467  0.0893 -0.4217
   98SAPS  H12X 9854   5.038   6.548   7.551 -1.7988  0.7229 -0.7754
   98SAPS  H12Y 9855   4.995   6.373   7.589 -2.0610 -0.0668  1.5506
   98SAPS  C313 9856   4.905   6.504   7.718  0.0170 -0.5336 -0.6261
   98SAPS  H13X 9857   4.827   6.431   7.748 -0.8767  0.4803 -0.4448
   98SAPS  H13Y 9858   4.867   6.608   7.730  0.6528 -0.5734  2.2689
   98SAPS  C314 9859   5.007   6.471   7.822  0.0826  0.3456  0.6392
   98SAPS  H14X 9860   5.105   6.518   7.799 -0.1041 -0.2863 -1.6603
   98SAPS  H14Y 9861   5.025   6.362   7.816 -2.2368 -0.0693  0.2537
   98SAPS  C315 9862   4.939   6.486   7.958 -0.4320  0.1850 -0.9896
   98SAPS  H15X 9863   4.866   6.404   7.973  1.5537 -1.4434  0.3732
   98SAPS  H15Y 9864   4.881   6.581   7.959 -1.7253 -0.5527 -2.1262
   98SAPS  C316 9865   5.046   6.506   8.064 -0.5607  0.0769 -0.3377
   98SAPS  H16X 9866   5.115   6.591   8.046 -0.5486  0.1066 -0.1480
   98SAPS  H16Y 9867   5.119   6.423   8.069 -0.0476  0.4655 -1.2003
   98SAPS  C317 9868   4.975   6.509   8.194 -0.7003 -0.3812 -0.7252
   98SAPS  H17X 9869   4.928   6.410   8.208 -2.9734  0.9046  1.4735
   98SAPS  H17Y 9870   4.886   6.575   8.193 -0.9161 -0.6701 -0.5284
   98SAPS  C318 9871   5.058   6.548   8.316  0.3662  0.7988 -0.1427
   98SAPS  H18X 9872   5.166   6.562   8.297  0.6419  0.3104  0.9933
   98SAPS  H18Y 9873   5.057   6.457   8.380  2.4033  1.9227  1.6060
   98SAPS  H18Z 9874   5.005   6.624   8.377 -1.4702  0.1243 -0.8160
   99SAPS     N 9875   3.711   3.898   5.782 -0.7157 -0.2162  0.2148
   99SAPS   HN1 9876   3.646   3.914   5.702 -0.7081 -1.9315 -0.1624
   99SAPS   HN2 9877   3.744   3.992   5.811 -0.7703 -0.3715  0.7862
   99SAPS   HN3 9878   3.793   3.847   5.746  0.3077 -0.1225  2.2788
   99SAPS   C12 9879   3.639   3.823   5.882 -0.1232  0.4626 -0.1194
   99SAPS  H12A 9880   3.551   3.875   5.916 -1.1061 -1.0793 -0.2031
   99SAPS   C13 9881   3.581   3.684   5.842 -0.1923  0.7155 -0.6978
   99SAPS  O13A 9882   3.616   3.635   5.728  0.5885  0.4187 -0.5203
   99SAPS  O13B 9883   3.496   3.631   5.920 -0.5914  0.4428 -0.2707
   99SAPS   C11 9884   3.733   3.801   6.005  0.2513  0.1634 -0.3070
   99SAPS  H11A 9885   3.824   3.743   5.982  0.3321 -0.6363  1.7837
   99SAPS  H11B 9886   3.673   3.746   6.081 -2.2651  0.5867 -1.8701
   99SAPS     P 9887   3.686   3.982   6.184  0.5965 -0.0240  0.2274
   99SAPS   O13 9888   3.763   4.102   6.229 -0.0230 -0.1040 -0.1772
   99SAPS   O14 9889   3.556   4.018   6.129  0.0122  0.1101  0.3279
   99SAPS   O12 9890   3.773   3.920   6.065  0.2897  0.1867  0.3428
   99SAPS   O11 9891   3.673   3.873   6.300 -0.6392 -0.1906 -0.2296
   99SAPS    C1 9892   3.787   3.804   6.342 -0.6124 -0.6598  0.0067
   99SAPS    HA 9893   3.871   3.811   6.269 -1.5937  3.2903 -0.9808
   99SAPS    HB 9894   3.809   3.826   6.448 -1.2959  0.7335 -0.1306
   99SAPS    C2 9895   3.748   3.650   6.349 -0.0077  0.6852 -0.7466
   99SAPS    HS 9896   3.706   3.618   6.252  0.8143 -3.1288  0.0163
   99SAPS   O21 9897   3.646   3.630   6.452 -0.2024 -0.1725  0.2732
   99SAPS   C21 9898   3.600   3.507   6.459 -0.3954 -0.4297  0.3427
   99SAPS   O22 9899   3.612   3.423   6.371  0.0677 -0.0334  0.4950
   99SAPS   C22 9900   3.533   3.493   6.590 -0.2756  0.4585 -0.3156
   99SAPS   H2R 9901   3.542   3.591   6.641  0.6773  1.4747 -2.2997
   99SAPS   H2S 9902   3.426   3.463   6.584 -0.0216 -0.7296  0.8004
   99SAPS    C3 9903   3.879   3.564   6.362  0.7801  0.0017  0.7192
   99SAPS    HX 9904   3.944   3.603   6.281 -0.1917 -1.4115 -0.7947
   99SAPS    HY 9905   3.856   3.459   6.336  1.3036  0.3522 -1.3546
   99SAPS   O31 9906   3.940   3.581   6.492  0.7638 -0.0134  0.2149
   99SAPS   C31 9907   4.034   3.497   6.525  0.0178  0.0056  0.1851
   99SAPS   O32 9908   4.076   3.410   6.459 -0.0529  0.3713  0.2685
   99SAPS   C32 9909   4.075   3.537   6.661  0.3079  0.1867 -0.1493
   99SAPS   H2X 9910   4.024   3.476   6.738  1.6783 -1.9575 -0.8639
   99SAPS   H2Y 9911   4.037   3.640   6.679 -2.1824 -0.4956 -1.1160
   99SAPS   C23 9912   3.585   3.374   6.686  0.5183 -0.0228  0.3905
   99SAPS   H3R 9913   3.568   3.277   6.635  1.1238 -0.2061  0.5337
   99SAPS   H3S 9914   3.509   3.357   6.765 -0.3694  0.0856 -0.4120
   99SAPS   C24 9915   3.732   3.380   6.735 -0.0109 -0.4648 -0.2693
   99SAPS   H4R 9916   3.795   3.374   6.643  1.0180 -0.0876  0.3921
   99SAPS   H4S 9917   3.751   3.286   6.791 -1.0253 -1.1444 -1.0285
   99SAPS   C25 9918   3.760   3.502   6.814  0.1257  0.3466  0.4405
   99SAPS   H5R 9919   3.746   3.593   6.753 -0.9992 -0.2758 -0.2838
   99SAPS   C26 9920   3.778   3.506   6.945  0.0847  0.0378 -0.5463
   99SAPS   H6R 9921   3.810   3.596   6.999 -0.3302 -1.1391  1.7629
   99SAPS   C27 9922   3.780   3.382   7.036 -0.3541 -0.1390 -0.2500
   99SAPS   H7R 9923   3.685   3.329   7.014 -0.2877 -0.6229  0.5623
   99SAPS   H7S 9924   3.772   3.414   7.142 -1.2067  0.7994 -0.5822
   99SAPS   C28 9925   3.900   3.293   7.024 -0.2943 -0.1740 -0.3880
   99SAPS   H8R 9926   3.924   3.277   6.918 -0.1600  2.0075 -0.7296
   99SAPS   C29 9927   3.959   3.234   7.126 -0.0117  0.0618  0.8398
   99SAPS   H9R 9928   4.053   3.183   7.098 -0.7401 -0.4746 -0.7397
   99SAPS  C210 9929   3.917   3.236   7.270  0.0006  0.3343 -0.6357
   99SAPS  H10R 9930   3.928   3.140   7.326 -2.1628  0.6570  0.4457
   99SAPS  H10S 9931   3.807   3.246   7.267 -0.0572  0.1865  0.5105
   99SAPS  C211 9932   3.971   3.359   7.337 -0.0951  0.2703  0.4256
   99SAPS  H11R 9933   4.014   3.433   7.268  1.0563 -0.5353  0.2485
   99SAPS  C212 9934   3.964   3.380   7.472 -0.4332  0.5590  0.2800
   99SAPS  H12R 9935   4.001   3.477   7.511  1.7313 -0.7246  1.6071
   99SAPS  C213 9936   3.904   3.290   7.579  0.1483  0.9842  0.6376
   99SAPS  H13R 9937   3.847   3.211   7.527  0.5172  0.3702  1.1509
   99SAPS  H13S 9938   3.822   3.341   7.634  0.4356  2.6000 -0.3662
   99SAPS  C214 9939   4.000   3.220   7.667  0.6567 -0.0983  0.1014
   99SAPS  H14R 9940   4.060   3.143   7.617  0.3796 -0.7927  0.8176
   99SAPS  C215 9941   4.012   3.237   7.797 -0.1721 -0.1467  0.1472
   99SAPS  H15R 9942   4.078   3.174   7.858  1.4971  0.8289 -0.5919
   99SAPS  C216 9943   3.934   3.342   7.877  0.4740 -0.3380 -0.5012
   99SAPS  H16R 9944   3.862   3.296   7.947 -0.6414  0.2794 -1.2271
   99SAPS  H16S 9945   3.883   3.419   7.816  0.4790  0.6821  0.7432
   99SAPS  C217 9946   4.029   3.419   7.969  0.1838 -0.1654  0.7240
   99SAPS  H17R 9947   3.986   3.518   7.997  0.4370  0.9720 -2.5285
   99SAPS  H17S 9948   4.129   3.444   7.927 -0.5940  1.5680 -0.1872
   99SAPS  C218 9949   4.060   3.335   8.095 -0.2150  0.1305  0.2149
   99SAPS  H18R 9950   4.119   3.242   8.079  0.2160  0.5340 -0.5942
   99SAPS  H18S 9951   3.967   3.305   8.149  0.3974 -1.5688  0.4004
   99SAPS  C219 9952   4.121   3.419   8.210 -0.2625 -0.3625 -0.0193
   99SAPS  H19R 9953   4.045   3.501   8.205  0.4142  0.2675 -0.1911
   99SAPS  H19S 9954   4.219   3.467   8.188  0.7636  0.3610  4.8949
   99SAPS  C220 9955   4.102   3.351   8.347 -0.3932 -0.7507  0.5061
   99SAPS  H20R 9956   3.996   3.319   8.358 -0.3254 -2.2331 -2.1582
   99SAPS  H20S 9957   4.134   3.419   8.428  2.9564  0.6808 -1.7719
   99SAPS  H20T 9958   4.167   3.261   8.344  0.9423  0.2029 -0.9128
   99SAPS   C33 9959   4.228   3.536   6.670  0.1468 -0.8069 -0.4535
   99SAPS   H3X 9960   4.269   3.631   6.629 -1.2997  0.6038  1.2163
   99SAPS   H3Y 9961   4.263   3.447   6.613  0.3773 -0.7739 -0.3633
   99SAPS   C34 9962   4.271   3.520   6.820 -0.7026 -0.5605  0.5276
   99SAPS   H4X 9963   4.380   3.542   6.814 -0.2421 -2.9225 -1.0124
   99SAPS   H4Y 9964   4.247   3.430   6.881 -1.1909 -0.0019  1.1780
   99SAPS   C35 9965   4.218   3.642   6.902  0.0934  0.3466 -0.2224
   99SAPS   H5X 9966   4.109   3.648   6.880  0.2499 -0.7927 -1.4987
   99SAPS   H5Y 9967   4.276   3.731   6.871  1.1805  0.1079  1.0547
   99SAPS   C36 9968   4.226   3.620   7.056  0.2119  0.4091 -0.4777
   99SAPS   H6X 9969   4.329   3.582   7.069 -0.2497 -0.7101 -0.0080
   99SAPS   H6Y 9970   4.162   3.532   7.079  2.7786 -1.0665  1.5817
   99SAPS   C37 9971   4.181   3.741   7.145  0.5573  0.6499  0.3799
   99SAPS   H7X 9972   4.071   3.740   7.127  0.4336  0.2834  1.1089
   99SAPS   H7Y 9973   4.223   3.836   7.105 -0.9891  2.4287  2.7026
   99SAPS   C38 9974   4.199   3.732   7.299 -0.9423 -0.3493 -0.2682
   99SAPS   H8X 9975   4.165   3.635   7.342 -0.9225 -0.8548 -1.3718
   99SAPS   H8Y 9976   4.120   3.800   7.338 -0.4275 -0.4709  1.0592
   99SAPS   C39 9977   4.338   3.768   7.339 -0.9297  0.3785  0.1048
   99SAPS   H9X 9978   4.374   3.838   7.261 -2.3812  0.1431 -0.8135
   99SAPS   H9Y 9979   4.407   3.681   7.343 -0.0825  0.9963 -0.6870
   99SAPS  C310 9980   4.348   3.844   7.480 -0.2106 -0.1844 -0.0943
   99SAPS  H10X 9981   4.300   3.944   7.467  1.8757  0.8314 -0.3682
   99SAPS  H10Y 9982   4.452   3.873   7.507  0.2678  0.0770 -2.1051
   99SAPS  C311 9983   4.275   3.785   7.597  0.2588  0.6936  0.6140
   99SAPS  H11X 9984   4.287   3.677   7.575  0.8472  0.9695 -0.5558
   99SAPS  H11Y 9985   4.172   3.820   7.579  0.1588 -0.3600 -1.0363
   99SAPS  C312 9986   4.331   3.823   7.734 -0.0540  0.0904 -0.0274
   99SAPS  H12X 9987   4.365   3.928   7.717  0.5119 -0.4309 -2.5645
   99SAPS  H12Y 9988   4.428   3.770   7.750 -0.1338  0.2860  1.2294
   99SAPS  C313 9989   4.232   3.807   7.843 -0.1140 -0.3395  0.6463
   99SAPS  H13X 9990   4.195   3.702   7.839  1.1969 -0.7806 -2.2532
   99SAPS  H13Y 9991   4.147   3.874   7.819 -0.9059 -1.1351  1.1357
   99SAPS  C314 9992   4.282   3.845   7.985 -0.7593 -0.0559 -0.3309
   99SAPS  H14X 9993   4.283   3.956   7.990  0.8460 -0.1001  1.5740
   99SAPS  H14Y 9994   4.388   3.816   8.001 -0.7230  0.9980  1.5834
   99SAPS  C315 9995   4.193   3.785   8.098 -0.8636 -0.1306  0.5177
   99SAPS  H15X 9996   4.211   3.676   8.114 -2.3466 -0.6357 -0.9138
   99SAPS  H15Y 9997   4.088   3.804   8.065  0.5195  1.3239 -3.6996
   99SAPS  C316 9998   4.223   3.837   8.243  0.1508  0.1688 -0.4925
   99SAPS  H16X 9999   4.220   3.948   8.246  1.8852  0.2361  0.2201
   99SAPS  H16Y10000   4.319   3.797   8.282  0.2109 -0.5864 -1.3726
   99SAPS  C31710001   4.115   3.789   8.342 -0.0639 -0.5943  0.1061
   99SAPS  H17X10002   4.101   3.679   8.341 -0.0939 -0.5981  0.5753
   99SAPS  H17Y10003   4.017   3.831   8.313  0.3715  0.5521  0.2396
   99SAPS  C31810004   4.158   3.838   8.485 -0.0398 -0.1244 -0.6155
   99SAPS  H18X10005   4.213   3.935   8.487 -2.0212  1.0480  0.6620
   99SAPS  H18Y10006   4.225   3.762   8.532  0.2139 -0.2533 -1.1832
   99SAPS  H18Z10007   4.070   3.847   8.552 -0.1003 -1.2379 -0.5246
  100SAPS     N10008   6.469   5.163   6.077 -0.4966  0.3256  0.0007
  100SAPS   HN110009   6.417   5.225   6.012  1.3431  0.8639 -1.0372
  100SAPS   HN210010   6.409   5.078   6.073  1.0463 -0.9121  1.7120
  100SAPS   HN310011   6.472   5.208   6.170  0.6152 -2.0757  1.2334
  100SAPS   C1210012   6.599   5.135   6.015  0.4501  0.0986 -0.8856
  100SAPS  H12A10013   6.578   5.084   5.922 -1.1584 -1.9779  0.5142
  100SAPS   C1310014   6.689   5.253   5.979  0.4870 -0.3883  0.4116
  100SAPS  O13A10015   6.644   5.371   6.002 -0.5404 -0.0512  0.3689
  100SAPS  O13B10016   6.803   5.239   5.924 -0.0857  0.2570 -0.1069
  100SAPS   C1110017   6.690   5.041   6.104  0.3313 -0.8685  0.5666
  100SAPS  H11A10018   6.731   5.109   6.182 -1.0706  1.5007 -0.6329
  100SAPS  H11B10019   6.780   5.001   6.051  0.3664 -0.1087  0.0329
  100SAPS     P10020   6.663   4.833   6.269  0.4256  0.1096 -0.0017
  100SAPS   O1310021   6.568   4.721   6.276  0.2923 -0.7282 -0.3648
  100SAPS   O1410022   6.811   4.805   6.263  1.1160 -0.2910  0.1516
  100SAPS   O1210023   6.613   4.930   6.159 -0.0968  0.8549  0.4471
  100SAPS   O1110024   6.648   4.935   6.388 -0.0959  0.1127  0.0781
  100SAPS    C110025   6.522   4.995   6.422  0.5075 -0.1299  0.2514
  100SAPS    HA10026   6.536   5.104   6.403 -0.5647 -0.1819 -0.9440
  100SAPS    HB10027   6.445   4.959   6.351 -0.3066  1.9705  0.0027
  100SAPS    C210028   6.493   4.975   6.574 -0.7306 -0.1864 -0.1672
  100SAPS    HS10029   6.424   5.052   6.613  1.5138  0.7928  2.1625
  100SAPS   O2110030   6.617   4.982   6.648  0.8487  0.3390  0.4165
  100SAPS   C2110031   6.670   5.098   6.670 -0.0756  0.5279 -0.0881
  100SAPS   O2210032   6.619   5.208   6.645  0.1438 -0.5168  0.0017
  100SAPS   C2210033   6.797   5.079   6.746  0.2263  0.1133  0.8536
  100SAPS   H2R10034   6.814   4.980   6.794  2.1232 -0.3520 -0.6399
  100SAPS   H2S10035   6.876   5.076   6.668 -0.6393 -0.5383 -0.0227
  100SAPS    C310036   6.413   4.851   6.605 -0.3015 -0.7068  0.4999
  100SAPS    HX10037   6.483   4.767   6.588  1.5361  1.0203 -0.9804
  100SAPS    HY10038   6.330   4.858   6.531  0.6381 -1.2815 -0.6442
  100SAPS   O3110039   6.376   4.833   6.741  0.3640 -0.2201  0.4431
  100SAPS   C3110040   6.250   4.864   6.776  0.3384  0.2362  0.2742
  100SAPS   O3210041   6.161   4.909   6.708  0.0917  0.2620  0.3980
  100SAPS   C3210042   6.245   4.829   6.925  0.0330 -0.4602  0.3543
  100SAPS   H2X10043   6.310   4.900   6.982 -2.0385  0.5913  1.5391
  100SAPS   H2Y10044   6.291   4.730   6.948  0.6516 -0.1873  0.3147
  100SAPS   C2310045   6.843   5.190   6.835  0.2171  0.2446 -0.1235
  100SAPS   H3R10046   6.860   5.281   6.774  0.4652  2.1496  2.6144
  100SAPS   H3S10047   6.944   5.173   6.877  0.9317 -1.7027 -2.3972
  100SAPS   C2410048   6.738   5.228   6.951 -0.1675  0.2138  0.3286
  100SAPS   H4R10049   6.648   5.265   6.899 -0.7212  0.1171  1.2065
  100SAPS   H4S10050   6.790   5.314   6.999  2.2486 -0.5857 -0.6871
  100SAPS   C2510051   6.695   5.109   7.037 -0.3818  0.8754  0.4446
  100SAPS   H5R10052   6.634   5.030   6.990  0.1756  0.0004  1.1642
  100SAPS   C2610053   6.742   5.088   7.159 -0.2522 -0.1087 -0.1101
  100SAPS   H6R10054   6.715   5.003   7.224  2.1078 -1.5228 -0.8655
  100SAPS   C2710055   6.842   5.167   7.243 -0.3159 -0.3414 -0.1634
  100SAPS   H7R10056   6.906   5.232   7.180  0.0042 -0.0716  0.4350
  100SAPS   H7S10057   6.915   5.094   7.284  0.7611  0.5914 -0.3722
  100SAPS   C2810058   6.776   5.252   7.345 -0.4791 -0.4303  0.4796
  100SAPS   H8R10059   6.749   5.350   7.303 -2.9423 -1.9511 -1.7844
  100SAPS   C2910060   6.741   5.231   7.472 -0.0161  0.5828  0.2077
  100SAPS   H9R10061   6.700   5.317   7.526  0.2851  0.8184  0.0640
  100SAPS  C21010062   6.754   5.099   7.550  0.3494 -0.2430  0.0140
  100SAPS  H10R10063   6.848   5.114   7.609  0.6115  0.3260 -0.5329
  100SAPS  H10S10064   6.778   5.011   7.486 -0.6214  0.3607 -1.2138
  100SAPS  C21110065   6.629   5.090   7.638 -0.8489 -0.1932  0.2098
  100SAPS  H11R10066   6.535   5.065   7.587 -0.2247 -1.0951 -0.5439
  100SAPS  C21210067   6.623   5.112   7.774  0.7632  0.1117 -0.4368
  100SAPS  H12R10068   6.526   5.110   7.826 -0.2627 -0.7179 -2.2608
  100SAPS  C21310069   6.743   5.131   7.851 -0.6305 -0.1479 -0.4816
  100SAPS  H13R10070   6.822   5.060   7.818 -0.2850 -0.2726  0.5777
  100SAPS  H13S10071   6.722   5.089   7.952  4.4288  1.5263  1.5696
  100SAPS  C21410072   6.795   5.273   7.864  0.2548 -0.3910  0.1140
  100SAPS  H14R10073   6.765   5.331   7.775  0.5932 -2.6898 -1.5894
  100SAPS  C21510074   6.854   5.327   7.968  0.1377 -1.2985 -0.1184
  100SAPS  H15R10075   6.893   5.429   7.962 -0.9772 -0.8870 -0.6547
  100SAPS  C21610076   6.885   5.257   8.094  0.1017 -0.6496 -0.7911
  100SAPS  H16R10077   6.993   5.234   8.103  0.1653 -0.2356 -0.4870
  100SAPS  H16S10078   6.849   5.151   8.090  1.7945 -1.2735 -0.0681
  100SAPS  C21710079   6.816   5.315   8.211  0.7833 -0.3478 -0.7894
  100SAPS  H17R10080   6.839   5.423   8.209 -0.0827 -0.1645 -1.7573
  100SAPS  H17S10081   6.874   5.278   8.298  1.6071  2.0570 -0.2707
  100SAPS  C21810082   6.662   5.288   8.223 -0.5388  0.5032 -0.2549
  100SAPS  H18R10083   6.656   5.178   8.206  0.3638  0.4920 -0.5225
  100SAPS  H18S10084   6.593   5.337   8.151 -1.2636 -1.5563 -1.0363
  100SAPS  C21910085   6.612   5.313   8.365 -0.3235 -0.4892  0.4001
  100SAPS  H19R10086   6.584   5.419   8.384  1.0112 -0.0434 -0.0177
  100SAPS  H19S10087   6.696   5.290   8.434  0.1675 -0.8386 -0.3011
  100SAPS  C22010088   6.487   5.234   8.404  0.2251 -0.0461 -0.2301
  100SAPS  H20R10089   6.461   5.264   8.508  1.5887  2.0107 -0.4221
  100SAPS  H20S10090   6.516   5.126   8.401  1.9421  0.3556  0.4132
  100SAPS  H20T10091   6.408   5.256   8.330  0.5432  2.0307  0.0011
  100SAPS   C3310092   6.106   4.839   6.989  0.6476  0.0433 -0.2155
  100SAPS   H3X10093   6.027   4.876   6.920  0.9946 -0.1188 -0.7047
  100SAPS   H3Y10094   6.117   4.911   7.073 -1.1106 -0.0976  0.1878
  100SAPS   C3410095   6.052   4.707   7.045  0.2746  0.9041 -0.2365
  100SAPS   H4X10096   6.140   4.657   7.091  0.8214 -0.2890 -2.4318
  100SAPS   H4Y10097   6.035   4.639   6.959  0.6610  1.2029 -0.5533
  100SAPS   C3510098   5.923   4.710   7.126  0.1972 -0.6623  0.4546
  100SAPS   H5X10099   5.884   4.607   7.112  0.0728 -0.3314 -2.1593
  100SAPS   H5Y10100   5.847   4.783   7.091  0.7539  1.1055  2.7089
  100SAPS   C3610101   5.941   4.743   7.276  0.4747 -0.2151  0.0736
  100SAPS   H6X10102   5.972   4.850   7.278 -2.3732  0.6858  0.6974
  100SAPS   H6Y10103   6.019   4.681   7.324  0.6736  0.0030  0.0328
  100SAPS   C3710104   5.808   4.721   7.353  0.2968 -0.1251 -0.1520
  100SAPS   H7X10105   5.766   4.631   7.302  0.2839  0.4159 -1.1084
  100SAPS   H7Y10106   5.739   4.800   7.316 -0.3890 -0.1777  0.9439
  100SAPS   C3810107   5.802   4.712   7.500 -0.1186 -0.0883  0.7474
  100SAPS   H8X10108   5.730   4.780   7.551  0.0453 -0.9241  2.1612
  100SAPS   H8Y10109   5.902   4.734   7.544 -0.0841  0.2460  0.5003
  100SAPS   C3910110   5.751   4.570   7.539  0.1052 -0.2694 -0.2715
  100SAPS   H9X10111   5.717   4.506   7.454 -1.5860 -0.3844  0.4544
  100SAPS   H9Y10112   5.658   4.578   7.599  0.5470 -0.9006  0.5048
  100SAPS  C31010113   5.864   4.490   7.616  0.4423 -0.3592  0.7955
  100SAPS  H10X10114   5.882   4.541   7.714 -0.3100 -0.0566  0.7852
  100SAPS  H10Y10115   5.953   4.494   7.550 -0.6218  2.9740 -0.6719
  100SAPS  C31110116   5.818   4.344   7.655 -0.7346 -0.3624 -0.0321
  100SAPS  H11X10117   5.772   4.284   7.573 -2.6440  1.0440 -0.0521
  100SAPS  H11Y10118   5.740   4.355   7.733 -1.8318  0.4886 -1.2065
  100SAPS  C31210119   5.926   4.248   7.709 -0.4670 -0.0649  1.0404
  100SAPS  H12X10120   6.022   4.297   7.682 -0.2066 -0.8625  0.4931
  100SAPS  H12Y10121   5.908   4.151   7.659 -1.5204 -0.9349  2.9807
  100SAPS  C31310122   5.908   4.215   7.853 -0.1020 -0.0356 -0.5954
  100SAPS  H13X10123   5.812   4.160   7.864 -0.1525  0.4583  2.0585
  100SAPS  H13Y10124   5.904   4.301   7.923 -1.5701 -2.0348  1.9526
  100SAPS  C31410125   6.015   4.125   7.901 -0.3663  0.7961 -0.6152
  100SAPS  H14X10126   6.110   4.183   7.895 -0.9029  2.1353  2.1899
  100SAPS  H14Y10127   6.040   4.045   7.828 -1.0603 -0.6148  0.6453
  100SAPS  C31510128   5.990   4.068   8.042 -0.0716 -0.1444 -0.1976
  100SAPS  H15X10129   6.066   3.988   8.054 -0.2271 -0.3981 -0.8635
  100SAPS  H15Y10130   5.885   4.031   8.037 -1.1679  2.4129  1.7873
  100SAPS  C31610131   5.996   4.171   8.153  0.0916  0.4032  0.0607
  100SAPS  H16X10132   5.909   4.241   8.150  0.5480  0.9875 -2.6941
  100SAPS  H16Y10133   6.085   4.235   8.136  1.5777 -1.5072  0.3227
  100SAPS  C31710134   5.986   4.106   8.289  0.4498  0.2744 -0.3753
  100SAPS  H17X10135   6.061   4.025   8.300  0.8173  0.8307  1.7133
  100SAPS  H17Y10136   5.885   4.060   8.283  0.2191  0.7417 -0.1446
  100SAPS  C31810137   5.989   4.202   8.406  0.3649 -0.0539 -0.4784
  100SAPS  H18X10138   6.091   4.232   8.438  0.4497 -0.6608 -0.1577
  100SAPS  H18Y10139   5.940   4.170   8.501 -0.5339 -0.0175 -0.9176
  100SAPS  H18Z10140   5.927   4.289   8.374 -0.4344 -1.0605 -1.7428
  101OSM      N10141   6.763   4.152  11.042  0.9332  0.5662 -0.0321
  101OSM    C1510142   6.884   4.234  11.010 -0.8254 -0.0868 -0.1902
  101OSM   H15A10143   6.850   4.323  10.959  0.5121  0.3260 -0.4245
  101OSM   H15B10144   6.949   4.178  10.944 -0.6641 -0.0979 -0.0225
  101OSM   H15C10145   6.940   4.264  11.097 -0.6451 -2.2860  0.5051
  101OSM    C1410146   6.803   4.021  11.108  0.4374  0.2295 -0.1950
  101OSM   H14A10147   6.720   3.965  11.149  0.4767 -0.0315 -0.4699
  101OSM   H14B10148   6.869   4.046  11.190  2.5399 -2.1921 -1.0288
  101OSM   H14C10149   6.851   3.957  11.036  2.7840  0.6038  0.9568
  101OSM    C1310150   6.670   4.237  11.131  0.0423  0.0278  0.3750
  101OSM   H13A10151   6.573   4.193  11.143  0.7098 -1.2025  1.6383
  101OSM   H13B10152   6.649   4.330  11.080  0.6629 -0.7994 -1.4575
  101OSM   H13C10153   6.724   4.248  11.224 -0.6698 -0.1048  0.8080
  101OSM    C1210154   6.685   4.124  10.907 -0.3485  0.3755 -0.6654
  101OSM   H12A10155   6.751   4.081  10.832 -0.8000 -0.5830 -0.5339
  101OSM   H12B10156   6.645   4.217  10.870 -1.6621 -0.2094 -0.7644
  101OSM    C1110157   6.559   4.036  10.908 -0.5662 -0.0561 -0.8958
  101OSM   H11A10158   6.503   4.087  10.989  0.1832  0.0318 -0.4189
  101OSM   H11B10159   6.574   3.929  10.933 -1.1173  0.6279  3.0319
  101OSM      P10160   6.518   3.949  10.672 -0.1292  0.0656  0.0456
  101OSM    O1310161   6.657   3.914  10.656 -0.3984 -0.2696 -0.7125
  101OSM    O1410162   6.423   3.839  10.695 -0.6171 -0.7264 -0.0307
  101OSM    O1110163   6.483   4.027  10.540 -0.4997  0.1036  0.5048
  101OSM    O1210164   6.496   4.056  10.791 -0.3133 -0.7759 -0.1130
  101OSM    C1S10165   6.460   4.165  10.544  0.0095  0.4873 -0.4995
  101OSM    H1S10166   6.552   4.226  10.550 -0.0689  0.5699 -0.1175
  101OSM    H1T10167   6.420   4.202  10.641  0.0769 -2.2715  0.6807
  101OSM     NF10168   6.352   4.342  10.416 -0.5318  0.2619 -1.0629
  101OSM    HNF10169   6.266   4.385  10.444 -1.1432 -2.1817  1.2456
  101OSM    C2S10170   6.371   4.197  10.425 -0.2812  0.0163  0.2496
  101OSM    H2S10171   6.433   4.170  10.337 -1.4824  1.7128 -1.2005
  101OSM    C3S10172   6.228   4.119  10.437 -0.4876  0.1341  0.6109
  101OSM    H3S10173   6.170   4.162  10.521 -0.2391  1.5074  0.1045
  101OSM     O310174   6.223   3.982  10.475 -0.3762 -0.2869  0.6427
  101OSM    HO310175   6.305   3.957  10.519 -1.8259 -3.2918  1.9745
  101OSM    C4S10176   6.158   4.144  10.309 -0.4011 -0.0801 -0.0685
  101OSM    H4S10177   6.076   4.216  10.321 -0.4690 -0.1173 -0.3180
  101OSM    C5S10178   6.193   4.093  10.193 -0.0650  0.2014  0.3917
  101OSM    H5S10179   6.266   4.012  10.190 -1.9635 -1.7697  2.6770
  101OSM    C6S10180   6.118   4.113  10.059  0.0338 -0.4850  0.0769
  101OSM    H6S10181   6.029   4.178  10.068  0.1519 -0.2093 -0.6410
  101OSM    H6T10182   6.076   4.021  10.014 -2.8029  1.6546 -2.0138
  101OSM    C7S10183   6.203   4.187   9.954 -0.0284 -0.2032  0.7834
  101OSM    H7S10184   6.256   4.273  10.002 -0.8456  0.9085 -0.2359
  101OSM    H7T10185   6.136   4.229   9.876  1.8102 -0.6747 -1.1382
  101OSM    C8S10186   6.293   4.095   9.871  0.0471 -1.3262  0.5297
  101OSM    H8S10187   6.273   3.988   9.894 -1.2543 -1.1734  0.1689
  101OSM    H8T10188   6.396   4.117   9.906 -0.1449 -0.2534  0.4573
  101OSM    C9S10189   6.285   4.132   9.725  0.0803  0.0600  0.3117
  101OSM    H9S10190   6.180   4.113   9.694 -0.3465  1.0221  1.1107
  101OSM    H9T10191   6.349   4.054   9.678  0.2860 -1.8291  3.4462
  101OSM   C10S10192   6.317   4.277   9.685  0.6794 -0.5093 -0.7013
  101OSM   H10S10193   6.421   4.297   9.717  0.2713 -1.7945  1.6177
  101OSM   H10T10194   6.249   4.340   9.746 -0.6962 -3.6642  1.3074
  101OSM   C11S10195   6.288   4.298   9.530 -0.4307 -0.2126 -0.0078
  101OSM   H11S10196   6.384   4.272   9.481  0.5637 -1.9452  2.6055
  101OSM   H11T10197   6.282   4.408   9.518 -1.1224 -0.3103 -0.6474
  101OSM   C12S10198   6.164   4.222   9.477 -0.6655  0.1959 -0.3625
  101OSM   H12S10199   6.077   4.253   9.539 -0.2213  1.6264 -0.4011
  101OSM   H12T10200   6.172   4.113   9.492  1.2466  0.2109 -1.0299
  101OSM   C13S10201   6.132   4.243   9.322  0.1432  0.0894  0.0359
  101OSM   H13S10202   6.138   4.354   9.320  2.2152  0.1091  2.3581
  101OSM   H13T10203   6.029   4.217   9.291 -0.3847 -0.3907  2.0471
  101OSM   C14S10204   6.245   4.199   9.224  0.3563 -0.4780 -0.2217
  101OSM   H14S10205   6.269   4.092   9.243  1.4678  0.0675  1.8107
  101OSM   H14T10206   6.341   4.248   9.250  0.6891 -1.0516 -0.3403
  101OSM   C15S10207   6.215   4.221   9.074 -0.3292  0.1245 -0.7066
  101OSM   H15S10208   6.316   4.230   9.030  1.2240 -1.3006  2.2606
  101OSM   H15T10209   6.161   4.319   9.071  0.2792  0.4614 -0.8151
  101OSM   C16S10210   6.142   4.103   9.005 -0.0718 -0.2212 -0.0586
  101OSM   H16S10211   6.036   4.093   9.038 -0.4624  0.0021 -1.1995
  101OSM   H16T10212   6.186   4.006   9.037  0.6507  0.0347 -0.2684
  101OSM   C17S10213   6.169   4.114   8.852 -0.0322 -0.1693  0.1663
  101OSM   H17S10214   6.269   4.159   8.835  0.4570 -0.8906  1.0380
  101OSM   H17T10215   6.096   4.188   8.814 -1.1712 -0.8192  1.0100
  101OSM   C18S10216   6.166   3.981   8.780 -0.3034  0.0723  0.1424
  101OSM   H18S10217   6.069   3.936   8.810 -0.4706 -0.0164 -0.5282
  101OSM   H18T10218   6.257   3.919   8.794 -0.0049  0.3576 -0.5164
  101OSM   H18U10219   6.153   4.004   8.672 -1.6570  2.3655  0.7194
  101OSM    C1F10220   6.455   4.420  10.373 -0.0268 -0.1620 -0.2309
  101OSM     OF10221   6.567   4.375  10.346 -0.2294 -0.0979 -0.1105
  101OSM    C2F10222   6.427   4.569  10.362  0.1343  0.3980 -0.3268
  101OSM    H2F10223   6.442   4.622  10.458  3.0406 -0.0602 -0.4329
  101OSM    H2G10224   6.319   4.579  10.339  0.3469  0.8239 -1.1727
  101OSM    C3F10225   6.495   4.658  10.253 -0.0131 -0.2366 -0.9791
  101OSM    H3F10226   6.605   4.647  10.260  0.0099 -0.5099 -1.6242
  101OSM    H3G10227   6.470   4.756  10.299  2.1636 -0.7168  1.4241
  101OSM    C4F10228   6.447   4.636  10.115  0.3201  0.5395  0.1644
  101OSM    H4F10229   6.340   4.664  10.110 -0.1120 -0.8450  1.0679
  101OSM    H4G10230   6.450   4.527  10.092  1.9319  0.5366  0.2627
  101OSM    C5F10231   6.517   4.714  10.008  0.0102  0.4792  1.1235
  101OSM    H5F10232   6.625   4.689  10.005  0.1708  1.0430  1.9792
  101OSM    H5G10233   6.501   4.822  10.028 -2.7454  0.6059 -1.1044
  101OSM    C6F10234   6.466   4.675   9.869 -0.4201  0.2986  0.4956
  101OSM    H6F10235   6.383   4.749   9.867 -0.1376  0.6421  1.1918
  101OSM    H6G10236   6.426   4.572   9.873  1.3396 -0.3868  2.7784
  101OSM    C7F10237   6.568   4.702   9.756  0.3309 -0.3081 -0.5852
  101OSM    H7F10238   6.649   4.630   9.779 -0.1178 -0.8812 -0.7659
  101OSM    H7G10239   6.608   4.805   9.754 -1.5852  0.4943  0.4473
  101OSM    C8F10240   6.517   4.677   9.616  1.0977 -0.3638 -0.1648
  101OSM    H8F10241   6.430   4.742   9.593  1.4392  0.5173  0.9256
  101OSM    H8G10242   6.481   4.573   9.603  0.2090  0.0097 -0.7751
  101OSM    C9F10243   6.631   4.683   9.517  0.4583 -0.1466 -0.3908
  101OSM    H9F10244   6.733   4.691   9.559  1.0363 -1.3783 -1.4695
  101OSM   C10F10245   6.616   4.701   9.388  0.0687  0.1576  0.4359
  101OSM   H10F10246   6.703   4.712   9.322 -0.4666 -0.6115 -0.4188
  101OSM   C11F10247   6.488   4.708   9.309  0.1100 -0.3038  0.9621
  101OSM   H11F10248   6.478   4.804   9.254 -2.2941 -0.2933  1.2729
  101OSM   H11G10249   6.400   4.714   9.377 -0.5063  0.0352  0.1495
  101OSM   C12F10250   6.489   4.592   9.210  0.4778  0.2354 -0.0886
  101OSM   H12F10251   6.467   4.494   9.258  0.3548 -0.5289 -1.6505
  101OSM   H12G10252   6.584   4.592   9.153 -0.4920  0.0348 -1.7431
  101OSM   C13F10253   6.374   4.613   9.105 -0.5046 -0.5672 -0.3051
  101OSM   H13F10254   6.365   4.720   9.077 -1.8126 -1.0141 -1.7278
  101OSM   H13G10255   6.279   4.583   9.154 -0.5504  0.3931  0.2104
  101OSM   C14F10256   6.401   4.534   8.982  0.0187  0.7249  0.6631
  101OSM   H14F10257   6.396   4.426   9.007  0.7140  0.4797 -0.2147
  101OSM   H14G10258   6.509   4.539   8.955  0.0894 -2.2755  0.0995
  101OSM   C15F10259   6.303   4.547   8.862 -0.3850  0.7095 -0.2421
  101OSM   H15F10260   6.199   4.540   8.900 -0.2298 -0.5342 -0.0060
  101OSM   H15G10261   6.338   4.469   8.791  4.3878  2.9737 -0.7963
  101OSM   C16F10262   6.303   4.691   8.804 -0.0189 -0.2466  0.2888
  101OSM   H16F10263   6.276   4.756   8.889  0.6233  0.0332  0.2886
  101OSM   H16G10264   6.224   4.693   8.726  1.0812 -0.9942 -0.8939
  101OSM   C17F10265   6.427   4.739   8.731 -1.0067  0.6372  0.1035
  101OSM   H17F10266   6.417   4.685   8.634  1.2062 -0.0453  0.2077
  101OSM   H17G10267   6.513   4.681   8.772 -0.6892 -1.4287 -3.1209
  101OSM   C18F10268   6.455   4.883   8.729  0.4858 -0.0297 -0.4028
  101OSM   H18F10269   6.362   4.943   8.716 -0.9007 -0.7492  4.3116
  101OSM   H18G10270   6.526   4.906   8.647  0.7052  2.2552  0.3643
  101OSM   H18H10271   6.495   4.921   8.825  0.7968 -0.4786 -0.3530
  102OSM      N10272   4.836   5.041  11.252 -0.0133 -0.1543 -0.1913
  102OSM    C1510273   4.771   4.915  11.195  0.5377  0.6090 -0.3888
  102OSM   H15A10274   4.729   4.935  11.098 -0.3434 -1.2964 -0.4328
  102OSM   H15B10275   4.704   4.879  11.272  1.0901 -0.0672 -0.2145
  102OSM   H15C10276   4.841   4.836  11.173  0.7825  0.7214 -0.0353
  102OSM    C1410277   4.734   5.134  11.295  1.0029  0.3071  0.2132
  102OSM   H14A10278   4.691   5.099  11.388  1.5313  0.1421  0.4002
  102OSM   H14B10279   4.670   5.173  11.217  1.0478  0.0185  0.0306
  102OSM   H14C10280   4.780   5.223  11.335 -2.5463  1.6900  1.5896
  102OSM    C1310281   4.921   4.985  11.372  0.7300 -0.7563  0.3407
  102OSM   H13A10282   4.990   5.060  11.410  1.8190  0.1485 -3.1092
  102OSM   H13B10283   4.968   4.890  11.354  1.2177 -0.4424 -0.0612
  102OSM   H13C10284   4.849   4.975  11.452 -0.9027  0.5290 -0.9073
  102OSM    C1210285   4.938   5.105  11.160  0.1252  0.1834 -0.0526
  102OSM   H12A10286   5.004   5.025  11.131 -1.1911 -1.5717  1.5010
  102OSM   H12B10287   4.999   5.179  11.209  0.8269 -1.0339  0.9668
  102OSM    C1110288   4.875   5.168  11.026  0.0246 -0.3725  0.1762
  102OSM   H11A10289   4.934   5.250  10.980 -2.4920  0.0939 -2.5122
  102OSM   H11B10290   4.777   5.212  11.051  0.6770  2.3369 -1.6286
  102OSM      P10291   4.983   4.981  10.876  0.5417  0.0470 -0.0490
  102OSM    O1310292   5.108   5.036  10.935 -0.0948  0.6948 -0.1483
  102OSM    O1410293   4.966   4.832  10.886 -0.1897 -0.5779  0.2679
  102OSM    O1110294   4.978   5.013  10.724 -1.0668  0.3957 -0.1511
  102OSM    O1210295   4.856   5.052  10.935  0.2767  0.8629  0.2805
  102OSM    C1S10296   5.005   5.149  10.685  0.4464 -0.5871 -0.2342
  102OSM    H1S10297   5.111   5.178  10.702  0.6616 -0.7827 -1.1900
  102OSM    H1T10298   4.941   5.225  10.734  1.1482  1.2071 -1.9905
  102OSM     NF10299   5.062   5.276  10.482 -0.5019 -0.3469  0.1059
  102OSM    HNF10300   5.034   5.367  10.451  3.0305  0.6749 -0.5217
  102OSM    C2S10301   4.983   5.165  10.528  0.0015 -0.4641  0.1281
  102OSM    H2S10302   5.024   5.080  10.469  0.4520  0.1862 -0.5151
  102OSM    C3S10303   4.826   5.175  10.512 -0.1615 -0.3591 -0.0074
  102OSM    H3S10304   4.806   5.271  10.564  1.9955 -1.9451  4.2692
  102OSM     O310305   4.745   5.078  10.589  0.1270  0.1988  0.6002
  102OSM    HO310306   4.815   5.035  10.639  1.0696  1.8529  0.7787
  102OSM    C4S10307   4.791   5.181  10.368  0.6445 -0.2202 -0.0324
  102OSM    H4S10308   4.850   5.113  10.304  1.6328  0.4249  0.1652
  102OSM    C5S10309   4.694   5.254  10.319  0.3615  0.4684  1.0347
  102OSM    H5S10310   4.631   5.321  10.379  0.3176  0.4737  0.9818
  102OSM    C6S10311   4.651   5.247  10.176  0.6139  0.0676  0.0368
  102OSM    H6S10312   4.597   5.337  10.138  1.1599 -0.5737 -2.4361
  102OSM    H6T10313   4.578   5.166  10.155 -0.0498  0.5968  0.2614
  102OSM    C7S10314   4.758   5.230  10.071 -0.4653 -0.2782 -0.2601
  102OSM    H7S10315   4.851   5.181  10.107  0.4041  0.6356 -1.1930
  102OSM    H7T10316   4.789   5.334  10.049 -0.2029 -0.4452 -0.6820
  102OSM    C8S10317   4.709   5.154   9.947  0.2687  0.2926 -0.1011
  102OSM    H8S10318   4.612   5.190   9.906 -0.0193 -1.0342 -0.6258
  102OSM    H8T10319   4.699   5.048   9.978 -1.0440  0.3723 -0.1644
  102OSM    C9S10320   4.802   5.169   9.821  0.3403  0.3608 -0.4932
  102OSM    H9S10321   4.773   5.085   9.754  0.7765 -0.3880  0.2490
  102OSM    H9T10322   4.906   5.147   9.853 -0.3971 -0.4510  1.4951
  102OSM   C10S10323   4.810   5.295   9.732  0.3784 -0.8608 -0.2570
  102OSM   H10S10324   4.873   5.263   9.647  1.5189 -0.2588  0.3477
  102OSM   H10T10325   4.862   5.375   9.789 -1.0974 -0.0688  0.0346
  102OSM   C11S10326   4.671   5.333   9.677  0.1840 -0.2911  0.2765
  102OSM   H11S10327   4.683   5.422   9.611 -0.5748 -0.7422 -0.4907
  102OSM   H11T10328   4.614   5.371   9.764  1.7023 -1.3018  1.7520
  102OSM   C12S10329   4.581   5.232   9.601 -0.6114 -0.4578 -0.1821
  102OSM   H12S10330   4.499   5.284   9.546  0.3677  1.3768  0.0102
  102OSM   H12T10331   4.535   5.161   9.673 -0.4616 -0.9871 -0.6009
  102OSM   C13S10332   4.658   5.161   9.487  0.0507 -0.1391  0.5378
  102OSM   H13S10333   4.590   5.094   9.431 -0.6682  1.9024 -1.1776
  102OSM   H13T10334   4.736   5.098   9.535 -0.8853  1.1157  3.9913
  102OSM   C14S10335   4.713   5.263   9.389 -0.3010  0.0128  0.1759
  102OSM   H14S10336   4.786   5.323   9.447 -1.3426 -0.8631  2.5313
  102OSM   H14T10337   4.639   5.332   9.343 -1.0887 -0.8951  0.0344
  102OSM   C15S10338   4.800   5.193   9.282  0.5684  0.5243 -0.0493
  102OSM   H15S10339   4.869   5.130   9.342 -1.9344 -1.7230  0.6582
  102OSM   H15T10340   4.875   5.247   9.221  1.8103 -1.6171 -0.5293
  102OSM   C16S10341   4.721   5.107   9.182 -0.1214 -0.6164 -0.6168
  102OSM   H16S10342   4.650   5.176   9.132 -0.2651 -1.4214 -1.5552
  102OSM   H16T10343   4.662   5.029   9.233  0.8236 -0.8736  0.1235
  102OSM   C17S10344   4.816   5.051   9.062  0.1585 -0.1810  0.0720
  102OSM   H17S10345   4.900   4.997   9.112 -0.1274 -0.7053 -0.0082
  102OSM   H17T10346   4.852   5.139   9.004 -3.0957  0.3845 -1.3123
  102OSM   C18S10347   4.742   4.960   8.971 -0.2097  0.0837  0.0308
  102OSM   H18S10348   4.645   5.002   8.936 -0.1525  0.3439  0.1781
  102OSM   H18T10349   4.732   4.856   9.008  0.0593  0.4825  1.2664
  102OSM   H18U10350   4.809   4.953   8.883  1.0371 -0.6497  1.0155
  102OSM    C1F10351   5.194   5.276  10.474  0.1814  0.1638 -0.3032
  102OSM     OF10352   5.259   5.171  10.485  0.2439  0.5983 -0.2618
  102OSM    C2F10353   5.271   5.406  10.443  0.1022  0.1350 -0.5311
  102OSM    H2F10354   5.220   5.494  10.488 -1.1827 -0.0214 -1.6039
  102OSM    H2G10355   5.270   5.425  10.333  0.1330  0.7239 -0.4336
  102OSM    C3F10356   5.413   5.404  10.498  0.0919 -0.1222  0.4007
  102OSM    H3F10357   5.467   5.351  10.417  2.3647  2.2274  0.2321
  102OSM    H3G10358   5.436   5.359  10.597  1.1774 -0.3130  0.0724
  102OSM    C4F10359   5.474   5.548  10.495 -0.0781 -0.2828 -0.4357
  102OSM    H4F10360   5.585   5.549  10.505 -0.0282  2.0334 -0.8601
  102OSM    H4G10361   5.424   5.599  10.580  0.5085 -1.0048  0.3665
  102OSM    C5F10362   5.457   5.625  10.363  0.4323  0.2878 -0.2141
  102OSM    H5F10363   5.353   5.615  10.325 -0.2586 -0.3584  1.7338
  102OSM    H5G10364   5.521   5.570  10.291  0.2543  0.2164 -0.3212
  102OSM    C6F10365   5.492   5.775  10.361 -0.2774 -0.4475  0.1227
  102OSM    H6F10366   5.585   5.797  10.419 -0.5949 -1.7349  1.1568
  102OSM    H6G10367   5.409   5.817  10.422 -1.4297 -1.5059 -0.6855
  102OSM    C7F10368   5.505   5.824  10.217  0.4494  0.4668  0.0360
  102OSM    H7F10369   5.403   5.818  10.173  0.1571  2.6486  0.2789
  102OSM    H7G10370   5.571   5.755  10.160  0.0044 -0.7696  0.9858
  102OSM    C8F10371   5.563   5.969  10.201 -0.1537 -0.0809  0.1716
  102OSM    H8F10372   5.598   5.966  10.096  0.5083  3.5250  0.1613
  102OSM    H8G10373   5.650   5.988  10.267 -1.8109  1.5353  1.9858
  102OSM    C9F10374   5.461   6.076  10.204  0.6258  0.0434 -0.2853
  102OSM    H9F10375   5.421   6.088  10.306 -0.6384 -0.9494 -0.6368
  102OSM   C10F10376   5.403   6.135  10.095  0.2445 -0.1381 -0.5412
  102OSM   H10F10377   5.326   6.211  10.116 -0.3341 -0.7199 -0.5075
  102OSM   C11F10378   5.432   6.103   9.949 -0.5811 -0.2271 -0.4657
  102OSM   H11F10379   5.530   6.054   9.929 -1.0114 -0.3440 -2.4862
  102OSM   H11G10380   5.434   6.191   9.881 -0.0669 -1.5829 -2.2927
  102OSM   C12F10381   5.317   6.022   9.898 -0.0439  0.2736 -0.8945
  102OSM   H12F10382   5.216   6.059   9.925  0.0718  1.3223 -1.8451
  102OSM   H12G10383   5.331   5.920   9.940  2.3872  1.2125  0.8490
  102OSM   C13F10384   5.312   6.005   9.746  0.1705  0.2461  0.6237
  102OSM   H13F10385   5.408   5.994   9.691 -1.4313  1.2745 -2.6545
  102OSM   H13G10386   5.254   6.090   9.704 -3.7746 -1.3664  2.3082
  102OSM   C14F10387   5.238   5.870   9.724  0.4226 -0.3820 -0.1402
  102OSM   H14F10388   5.141   5.878   9.778  0.4694  0.0412 -0.1154
  102OSM   H14G10389   5.296   5.793   9.779  2.5452  1.5483  0.4929
  102OSM   C15F10390   5.214   5.835   9.577  0.2038 -0.2136 -0.7836
  102OSM   H15F10391   5.174   5.731   9.575  0.0542 -0.2323 -4.8507
  102OSM   H15G10392   5.316   5.828   9.535  0.3542 -1.8571 -0.2439
  102OSM   C16F10393   5.125   5.937   9.505  0.1424  0.1323 -0.7353
  102OSM   H16F10394   5.175   6.036   9.502  0.3200  0.0992  0.5984
  102OSM   H16G10395   5.035   5.941   9.570  1.4666 -1.9361  1.3665
  102OSM   C17F10396   5.102   5.896   9.357  0.1672 -0.8362  0.2331
  102OSM   H17F10397   5.064   5.792   9.347 -0.3758 -0.5062 -1.4667
  102OSM   H17G10398   5.200   5.912   9.308 -0.3688  1.2993 -0.2408
  102OSM   C18F10399   4.993   5.985   9.292  0.6338  0.1120  0.1503
  102OSM   H18F10400   4.966   5.954   9.189 -2.6419 -0.6498  1.1414
  102OSM   H18G10401   5.034   6.089   9.296 -1.5677  1.0453 -0.4282
  102OSM   H18H10402   4.898   5.992   9.349  0.0709  0.4786 -0.8109
  103OSM      N10403   1.002   0.915  11.278 -0.2637  1.1449  0.4694
  103OSM    C1510404   1.066   0.833  11.169 -0.3481 -0.1132 -0.0105
  103OSM   H15A10405   1.121   0.751  11.213  1.1931  1.1479  0.5753
  103OSM   H15B10406   1.137   0.887  11.108  2.0449 -0.2001  2.4590
  103OSM   H15C10407   0.990   0.795  11.104 -0.3841  1.5549 -1.0213
  103OSM    C1410408   0.904   1.008  11.225  0.3441  0.1249  0.8203
  103OSM   H14A10409   0.855   1.057  11.308  0.9199  0.9163  0.7067
  103OSM   H14B10410   0.827   0.950  11.175 -1.4037  2.5773  0.4851
  103OSM   H14C10411   0.943   1.086  11.162 -3.1429  0.3397 -1.2830
  103OSM    C1310412   0.937   0.807  11.363 -0.0579 -0.4238 -0.1333
  103OSM   H13A10413   0.896   0.847  11.454 -0.0584 -0.6780 -0.0232
  103OSM   H13B10414   1.006   0.725  11.378 -0.4750 -0.5792  0.9652
  103OSM   H13C10415   0.853   0.771  11.306 -0.6934 -1.7461  1.5905
  103OSM    C1210416   1.098   0.986  11.365  0.7609 -1.1340 -0.2196
  103OSM   H12A10417   1.145   0.905  11.419 -1.8734 -2.3267  0.4730
  103OSM   H12B10418   1.049   1.031  11.450 -1.3006 -1.2020 -1.2963
  103OSM    C1110419   1.189   1.094  11.297  0.8019 -0.1506 -0.5495
  103OSM   H11A10420   1.259   1.039  11.231  0.3229 -0.5184 -0.7580
  103OSM   H11B10421   1.251   1.129  11.382  0.1222  1.5326 -0.7218
  103OSM      P10422   1.200   1.271  11.115 -0.0127  0.0710  0.7945
  103OSM    O1310423   1.108   1.358  11.043  0.3415  0.3554  0.4118
  103OSM    O1410424   1.332   1.328  11.150 -0.1286 -0.4568  0.0046
  103OSM    O1110425   1.220   1.151  11.008 -0.1320 -0.0271  0.9465
  103OSM    O1210426   1.126   1.206  11.235  0.4590  0.1712  0.0047
  103OSM    C1S10427   1.117   1.084  10.940  0.5520  0.6411  0.9593
  103OSM    H1S10428   1.021   1.073  10.996 -0.7931  1.6757 -1.0290
  103OSM    H1T10429   1.138   0.977  10.916 -2.2747  0.1765  0.1653
  103OSM     NF10430   0.974   1.073  10.745  0.6499  0.2862  0.0207
  103OSM    HNF10431   0.995   1.036  10.655  0.2010 -0.6350  0.2838
  103OSM    C2S10432   1.077   1.149  10.802  0.5065 -0.3991 -0.1406
  103OSM    H2S10433   1.024   1.244  10.822 -0.2904 -0.6774 -0.8584
  103OSM    C3S10434   1.193   1.165  10.709  0.2699  0.0764  0.5085
  103OSM    H3S10435   1.241   1.070  10.678  1.6783  0.4311  1.5302
  103OSM     O310436   1.309   1.226  10.766  0.3499 -0.2234  0.0219
  103OSM    HO310437   1.290   1.232  10.860 -0.2644 -1.3642 -0.0087
  103OSM    C4S10438   1.138   1.234  10.581 -0.1774 -0.6263  0.7204
  103OSM    H4S10439   1.088   1.330  10.603 -2.0413 -1.6563  1.2250
  103OSM    C5S10440   1.155   1.196  10.451  0.2489 -1.2021  0.1903
  103OSM    H5S10441   1.217   1.107  10.433  2.0864  0.3830 -1.9454
  103OSM    C6S10442   1.111   1.271  10.331  0.3609  0.2565  0.8152
  103OSM    H6S10443   1.051   1.360  10.360  1.8891  1.4614  0.3762
  103OSM    H6T10444   1.041   1.207  10.273  0.7187  2.1874 -1.9181
  103OSM    C7S10445   1.222   1.320  10.239  0.3183  0.0515 -0.1602
  103OSM    H7S10446   1.287   1.397  10.286  2.3277 -0.3782 -2.0681
  103OSM    H7T10447   1.173   1.368  10.151 -1.3582 -0.7650  0.2836
  103OSM    C8S10448   1.319   1.222  10.181  0.4797  0.0030 -0.7321
  103OSM    H8S10449   1.261   1.145  10.125 -1.7251  1.7658 -1.0375
  103OSM    H8T10450   1.375   1.165  10.259  0.4008  1.3913  0.3768
  103OSM    C9S10451   1.415   1.296  10.091  0.0294 -0.1241 -0.1155
  103OSM    H9S10452   1.499   1.226  10.068 -0.4419 -0.6784 -0.1783
  103OSM    H9T10453   1.451   1.383  10.150  1.3014 -1.5671  1.3344
  103OSM   C10S10454   1.347   1.342   9.959  0.3055  0.1026  0.1256
  103OSM   H10S10455   1.417   1.408   9.903  2.1131 -1.0755  0.8707
  103OSM   H10T10456   1.258   1.404   9.982  0.4892 -0.9266  4.3697
  103OSM   C11S10457   1.288   1.224   9.866 -0.7618  0.8126 -0.7241
  103OSM   H11S10458   1.207   1.174   9.922  0.3741 -1.5094 -1.0335
  103OSM   H11T10459   1.367   1.146   9.868 -0.2925  1.2844  0.4452
  103OSM   C12S10460   1.231   1.276   9.735 -0.1394 -0.1540  0.3417
  103OSM   H12S10461   1.315   1.333   9.689 -1.8611  2.5199  0.3003
  103OSM   H12T10462   1.151   1.349   9.759 -1.1077 -0.9481 -0.3850
  103OSM   C13S10463   1.173   1.174   9.640  0.0362 -0.1730  0.1481
  103OSM   H13S10464   1.098   1.104   9.684  1.1749 -1.1647  0.5545
  103OSM   H13T10465   1.261   1.113   9.611  1.2468  1.5482  0.1299
  103OSM   C14S10466   1.111   1.234   9.514 -0.1030  0.1993 -0.1776
  103OSM   H14S10467   1.195   1.263   9.447 -0.7594  0.4235 -0.9090
  103OSM   H14T10468   1.048   1.324   9.524  0.6254  0.4554  3.2863
  103OSM   C15S10469   1.034   1.126   9.434  0.1657  0.0150 -0.1689
  103OSM   H15S10470   0.938   1.095   9.481  0.5813 -2.0177 -0.5448
  103OSM   H15T10471   1.086   1.029   9.451 -0.0824 -0.1705 -0.4635
  103OSM   C16S10472   1.002   1.175   9.287  0.1130  0.2152  0.2293
  103OSM   H16S10473   1.087   1.229   9.240 -0.3778 -1.0527 -2.2803
  103OSM   H16T10474   0.921   1.250   9.297 -0.1939 -0.4073  3.2463
  103OSM   C17S10475   0.942   1.074   9.191 -0.2849 -0.1274  0.5227
  103OSM   H17S10476   0.851   1.025   9.232 -0.2824  1.5740  2.7893
  103OSM   H17T10477   1.033   1.011   9.178  0.6238  1.2195  0.2056
  103OSM   C18S10478   0.904   1.131   9.055  0.0256  0.5903 -0.3595
  103OSM   H18S10479   0.960   1.224   9.029  0.8515  0.8809  2.1956
  103OSM   H18T10480   0.797   1.162   9.062  0.3215  1.2540  2.9204
  103OSM   H18U10481   0.915   1.053   8.977  1.0400 -0.6790  1.0099
  103OSM    C1F10482   0.844   1.053  10.784 -0.6961 -0.5547  0.5756
  103OSM     OF10483   0.805   1.060  10.897  0.2880  0.0472  0.0849
  103OSM    C2F10484   0.741   1.016  10.672  0.0777 -0.3199 -0.5334
  103OSM    H2F10485   0.640   1.026  10.715 -1.5220 -2.4047 -3.4611
  103OSM    H2G10486   0.752   0.905  10.669 -1.5337 -0.5505  0.9651
  103OSM    C3F10487   0.766   1.093  10.541  0.4197 -0.4166  0.1171
  103OSM    H3F10488   0.862   1.056  10.501  0.4032  0.6264 -0.9304
  103OSM    H3G10489   0.773   1.197  10.581 -1.6277 -1.1557  2.7022
  103OSM    C4F10490   0.650   1.090  10.435 -0.7075  0.0574  0.4870
  103OSM    H4F10491   0.624   0.986  10.405 -0.8001 -0.0944  1.0762
  103OSM    H4G10492   0.689   1.141  10.344  0.4939 -1.2959  0.2028
  103OSM    C5F10493   0.529   1.172  10.487 -0.2160 -0.4552 -0.6350
  103OSM    H5F10494   0.567   1.276  10.482 -1.0204 -0.2153 -2.0695
  103OSM    H5G10495   0.512   1.140  10.592 -2.7424 -0.0859 -0.8846
  103OSM    C6F10496   0.396   1.177  10.403  0.2103  0.8079 -0.2101
  103OSM    H6F10497   0.353   1.075  10.399  0.5024  0.6756  0.0004
  103OSM    H6G10498   0.450   1.195  10.307 -0.8144  1.7637 -0.6233
  103OSM    C7F10499   0.307   1.293  10.446 -0.3587  0.1458 -0.3728
  103OSM    H7F10500   0.370   1.384  10.452  1.4851 -1.0858  0.2887
  103OSM    H7G10501   0.279   1.274  10.552  1.0933 -3.0708 -0.4487
  103OSM    C8F10502   0.182   1.301  10.360  0.4907  0.0603 -0.4800
  103OSM    H8F10503   0.133   1.202  10.371 -2.7189  1.7631  2.3623
  103OSM    H8G10504   0.207   1.311  10.252  1.0921 -1.2159 -0.4771
  103OSM    C9F10505   0.083   1.400  10.417  0.5049 -0.2369 -0.0867
  103OSM    H9F10506   0.097   1.411  10.525  0.3436  0.7895 -0.1606
  103OSM   C10F10507  -0.019   1.462  10.358  0.2949  0.3285  0.5113
  103OSM   H10F10508  -0.049   1.558  10.403  1.8045  1.2822 -0.4338
  103OSM   C11F10509  -0.058   1.452  10.216  0.0020  0.6188  0.2896
  103OSM   H11F10510  -0.165   1.424  10.210  0.0784  0.5332 -0.9085
  103OSM   H11G10511   0.004   1.379  10.159  1.4097  3.1248 -1.6033
  103OSM   C12F10512  -0.036   1.590  10.149  0.2592 -0.0742  0.6872
  103OSM   H12F10513   0.068   1.630  10.144 -0.1984  1.2749  1.4500
  103OSM   H12G10514  -0.100   1.664  10.202  0.0183  0.2089  0.0021
  103OSM   C13F10515  -0.078   1.595  10.004 -0.2306 -0.5166 -0.2118
  103OSM   H13F10516  -0.189   1.592  10.006 -0.2412 -0.1837  2.4972
  103OSM   H13G10517  -0.038   1.688   9.959 -0.9816 -0.7046 -1.3186
  103OSM   C14F10518  -0.019   1.478   9.916 -0.8342  0.5324 -0.6744
  103OSM   H14F10519  -0.057   1.377   9.945 -1.8900  0.4342 -2.2770
  103OSM   H14G10520   0.091   1.471   9.925 -0.7949  1.0838 -0.7147
  103OSM   C15F10521  -0.041   1.512   9.772  0.3572 -0.3028  0.1544
  103OSM   H15F10522   0.035   1.589   9.747  1.6178 -1.2776  0.8298
  103OSM   H15G10523  -0.136   1.567   9.758  1.0079  0.2262 -2.9696
  103OSM   C16F10524  -0.052   1.387   9.679  0.3654 -0.3508  0.2947
  103OSM   H16F10525  -0.144   1.334   9.710  0.5173  0.0077  1.4012
  103OSM   H16G10526   0.037   1.322   9.697  0.1066 -0.3932  1.4814
  103OSM   C17F10527  -0.053   1.424   9.528  0.6505 -0.7573 -0.2224
  103OSM   H17F10528   0.042   1.478   9.508  0.2501  0.6067  1.3655
  103OSM   H17G10529  -0.142   1.489   9.515 -0.0920 -1.5653  0.6545
  103OSM   C18F10530  -0.056   1.305   9.434  0.4189 -0.2794 -0.1275
  103OSM   H18F10531  -0.142   1.242   9.464 -0.8112  1.5813  0.4517
  103OSM   H18G10532   0.035   1.246   9.457  0.8324 -0.6483 -2.5107
  103OSM   H18H10533  -0.063   1.347   9.331  0.9193 -1.2843 -0.5809
  104OSM      N10534   5.286   0.505  11.144  0.5378  0.6288  0.0259
  104OSM    C1510535   5.397   0.420  11.203 -0.4143 -0.8194 -0.5713
  104OSM   H15A10536   5.360   0.342  11.268 -1.1631 -0.2093 -0.2487
  104OSM   H15B10537   5.467   0.475  11.265 -1.7460 -1.0651  1.2445
  104OSM   H15C10538   5.464   0.384  11.126 -0.6408  0.5586 -1.4287
  104OSM    C1410539   5.204   0.413  11.065  0.3483 -0.5419  0.4430
  104OSM   H14A10540   5.112   0.451  11.021  0.9623  0.5179  0.0258
  104OSM   H14B10541   5.174   0.331  11.128  0.8038 -0.7740  0.3591
  104OSM   H14C10542   5.260   0.370  10.984  0.0167 -1.2759  0.6010
  104OSM    C1310543   5.203   0.549  11.256  0.6134  0.4416 -0.2311
  104OSM   H13A10544   5.107   0.575  11.215 -0.1475  0.5457  1.5138
  104OSM   H13B10545   5.243   0.625  11.322 -0.8569  0.5367  0.5952
  104OSM   H13C10546   5.178   0.464  11.317  1.7968 -0.0653 -0.4188
  104OSM    C1210547   5.337   0.621  11.067  0.0321 -0.3275  0.1431
  104OSM   H12A10548   5.414   0.673  11.124  1.6271 -1.1232 -1.2029
  104OSM   H12B10549   5.260   0.694  11.045  1.3329  0.1006 -3.5978
  104OSM    C1110550   5.399   0.594  10.923  0.2404  0.5489  0.1605
  104OSM   H11A10551   5.420   0.694  10.878  4.4997 -0.2437 -0.0482
  104OSM   H11B10552   5.326   0.537  10.862  2.1117 -1.4592 -0.3225
  104OSM      P10553   5.536   0.382  10.845  0.0794 -0.0283 -0.1353
  104OSM    O1310554   5.677   0.334  10.843 -0.3398  0.0589  0.1883
  104OSM    O1410555   5.439   0.281  10.894 -0.8160 -0.1901  0.8128
  104OSM    O1110556   5.498   0.432  10.701  0.1563  0.3166 -0.1922
  104OSM    O1210557   5.522   0.522  10.925  0.3670 -0.3345 -0.0868
  104OSM    C1S10558   5.541   0.562  10.643  0.4754  0.0161  0.4437
  104OSM    H1S10559   5.622   0.606  10.705  0.4568 -0.6355  0.9418
  104OSM    H1T10560   5.465   0.643  10.636  2.0650  1.4152 -1.7608
  104OSM     NF10561   5.668   0.684  10.462 -0.3437 -0.0250 -0.0176
  104OSM    HNF10562   5.638   0.710  10.371 -0.0514 -4.2296 -1.5137
  104OSM    C2S10563   5.613   0.550  10.513 -0.2069  0.2440  1.2468
  104OSM    H2S10564   5.703   0.487  10.525 -0.5944 -0.1478  2.1119
  104OSM    C3S10565   5.522   0.490  10.400  0.6717  0.2195  0.0864
  104OSM    H3S10566   5.441   0.566  10.391  1.9364  1.8507  1.7366
  104OSM     O310567   5.460   0.365  10.436  0.3737 -0.0642  0.1853
  104OSM    HO310568   5.474   0.362  10.531 -0.6273  1.1966  0.3950
  104OSM    C4S10569   5.590   0.471  10.272  0.0799 -0.4487 -0.0598
  104OSM    H4S10570   5.653   0.381  10.262 -1.1383 -1.4053  0.5488
  104OSM    C5S10571   5.578   0.553  10.164 -0.3586  0.3869  0.0409
  104OSM    H5S10572   5.511   0.640  10.169  1.7734  2.0615  2.6217
  104OSM    C6S10573   5.646   0.536  10.035 -0.4621  0.1889  1.0178
  104OSM    H6S10574   5.695   0.633  10.013  1.1066 -1.0311 -1.3087
  104OSM    H6T10575   5.576   0.525   9.949  0.2627 -1.4869  0.5926
  104OSM    C7S10576   5.757   0.424  10.012  0.7309 -0.0067  0.4298
  104OSM    H7S10577   5.703   0.327  10.008 -0.6164  0.7472 -0.4992
  104OSM    H7T10578   5.829   0.420  10.096  0.0597  2.0304  1.1569
  104OSM    C8S10579   5.842   0.440   9.884 -0.4519 -0.0861  0.0177
  104OSM    H8S10580   5.937   0.495   9.907 -0.7349  0.1167  0.7225
  104OSM    H8T10581   5.781   0.493   9.808  1.2143 -1.4799 -2.4518
  104OSM    C9S10582   5.878   0.303   9.830  0.6219 -0.5193 -0.3094
  104OSM    H9S10583   5.782   0.250   9.808  0.1608  0.0856  0.1957
  104OSM    H9T10584   5.910   0.238   9.914  2.0903  0.0128 -0.4366
  104OSM   C10S10585   5.979   0.305   9.722  0.5959 -0.9836 -0.0097
  104OSM   H10S10586   6.054   0.379   9.757 -1.1810  1.9493 -2.0204
  104OSM   H10T10587   5.931   0.333   9.626  0.6536 -1.1329 -0.0833
  104OSM   C11S10588   6.044   0.167   9.698  0.5029 -0.0837 -0.4092
  104OSM   H11S10589   5.964   0.094   9.671  1.3027 -0.8884 -0.6616
  104OSM   H11T10590   6.084   0.126   9.793 -0.1101 -2.2943 -1.0462
  104OSM   C12S10591   6.143   0.173   9.590 -0.7703 -0.3018 -0.0960
  104OSM   H12S10592   6.197   0.077   9.604 -0.7782 -0.8044 -2.8815
  104OSM   H12T10593   6.221   0.249   9.612 -0.9336 -0.4811  1.1898
  104OSM   C13S10594   6.092   0.192   9.446  0.8289  0.4138  1.0016
  104OSM   H13S10595   6.028   0.283   9.442  1.6568  0.9764 -2.8857
  104OSM   H13T10596   6.030   0.102   9.430  0.4424  0.7659  0.4854
  104OSM   C14S10597   6.206   0.213   9.345 -0.0763  0.4096 -0.6678
  104OSM   H14S10598   6.276   0.128   9.357  1.3389  1.4311 -1.3898
  104OSM   H14T10599   6.258   0.311   9.361  0.2242  0.0772  0.5097
  104OSM   C15S10600   6.139   0.212   9.198  0.0723  0.1107  0.4035
  104OSM   H15S10601   6.046   0.273   9.190 -0.8606 -1.3344 -0.1519
  104OSM   H15T10602   6.114   0.106   9.176 -0.3460  0.0704  1.0605
  104OSM   C16S10603   6.239   0.267   9.089 -0.2611 -0.8651 -0.9206
  104OSM   H16S10604   6.327   0.199   9.095 -2.0248 -3.1970  0.3680
  104OSM   H16T10605   6.277   0.367   9.118  0.6960 -1.9503  1.9414
  104OSM   C17S10606   6.189   0.278   8.951  0.3912  0.1826  0.2560
  104OSM   H17S10607   6.104   0.349   8.955  0.0033 -0.1415 -1.2486
  104OSM   H17T10608   6.144   0.181   8.922 -0.5511  0.2116  1.5433
  104OSM   C18S10609   6.306   0.311   8.860 -0.2529 -0.4521  0.3184
  104OSM   H18S10610   6.344   0.409   8.895 -2.2489  1.2221 -1.9268
  104OSM   H18T10611   6.290   0.316   8.751 -2.8657  2.8462  0.6925
  104OSM   H18U10612   6.381   0.232   8.882  1.4220  0.4086 -1.9817
  104OSM    C1F10613   5.762   0.746  10.532 -0.6080  0.4089 -0.0003
  104OSM     OF10614   5.812   0.692  10.632 -0.2124  0.2400 -0.7202
  104OSM    C2F10615   5.794   0.885  10.498  0.5560 -0.6606 -0.4858
  104OSM    H2F10616   5.823   0.936  10.593  1.4877 -0.4489 -0.8669
  104OSM    H2G10617   5.710   0.926  10.438  0.0944  0.5603  0.9356
  104OSM    C3F10618   5.919   0.893  10.413  0.2077  0.7993  0.6298
  104OSM    H3F10619   5.997   0.850  10.479 -0.7266  2.1021  2.6758
  104OSM    H3G10620   5.953   0.997  10.391  0.4345  0.4374 -0.8462
  104OSM    C4F10621   5.917   0.818  10.286 -0.4285 -0.0190  0.3558
  104OSM    H4F10622   5.868   0.720  10.304 -1.2801  0.2991 -0.1272
  104OSM    H4G10623   6.021   0.796  10.255 -0.3968 -0.9271  1.0636
  104OSM    C5F10624   5.854   0.895  10.164 -0.0638  0.2983  0.1549
  104OSM    H5F10625   5.884   1.002  10.176 -0.3917  0.2244  1.8870
  104OSM    H5G10626   5.745   0.911  10.164 -0.6920 -3.1663 -0.8061
  104OSM    C6F10627   5.910   0.833  10.036  0.1335 -0.2447  0.1984
  104OSM    H6F10628   5.878   0.727  10.023  1.0566 -0.3269 -1.6230
  104OSM    H6G10629   6.021   0.837  10.041  0.1076  0.9999  0.0989
  104OSM    C7F10630   5.871   0.912   9.903  0.2005  0.3442  0.3062
  104OSM    H7F10631   5.887   1.021   9.918  1.7090  0.1848  0.1023
  104OSM    H7G10632   5.763   0.904   9.879 -0.1068  1.4049  1.2365
  104OSM    C8F10633   5.952   0.849   9.781  0.0704 -0.5073 -0.3700
  104OSM    H8F10634   5.941   0.738   9.787 -0.4652 -0.5528 -1.8737
  104OSM    H8G10635   6.058   0.869   9.805 -0.1011  1.5827 -1.2063
  104OSM    C9F10636   5.925   0.907   9.644  0.4202 -0.4531 -0.1467
  104OSM    H9F10637   5.934   1.017   9.652 -0.4966 -0.3054 -0.8874
  104OSM   C10F10638   5.880   0.849   9.533 -0.2259 -0.8644 -0.2926
  104OSM   H10F10639   5.873   0.914   9.445 -0.7447  0.7498  0.9006
  104OSM   C11F10640   5.848   0.697   9.513  0.4017 -0.1979 -0.3147
  104OSM   H11F10641   5.739   0.678   9.504  0.0737  0.5166  1.5867
  104OSM   H11G10642   5.883   0.640   9.602 -1.6121  0.5581  1.0407
  104OSM   C12F10643   5.917   0.651   9.382  0.1518 -0.5992  0.2810
  104OSM   H12F10644   5.917   0.540   9.371 -1.2755 -0.3535 -3.3918
  104OSM   H12G10645   6.023   0.684   9.383 -0.4943  1.6626  0.9408
  104OSM   C13F10646   5.857   0.709   9.249  0.0967  0.2467  0.6671
  104OSM   H13F10647   5.869   0.819   9.246  2.0303  0.0588 -0.3745
  104OSM   H13G10648   5.748   0.689   9.253 -0.7555  4.1857  0.8435
  104OSM   C14F10649   5.939   0.663   9.126  0.6744 -0.2193 -0.3943
  104OSM   H14F10650   5.916   0.554   9.120 -1.5438  0.1813 -0.1028
  104OSM   H14G10651   6.045   0.695   9.136 -0.0860  2.0459  1.2240
  104OSM   C15F10652   5.889   0.728   9.000  0.0986  0.1049  0.0102
  104OSM   H15F10653   5.915   0.835   9.011  0.5606 -0.0581  0.6138
  104OSM   H15G10654   5.779   0.730   8.989 -0.0106 -1.2847  0.5729
  104OSM   C16F10655   5.948   0.685   8.863 -0.3186 -0.1169  0.1165
  104OSM   H16F10656   5.871   0.713   8.788 -0.7173 -0.9143  0.2173
  104OSM   H16G10657   5.969   0.576   8.864  0.2358 -0.0111  0.7272
  104OSM   C17F10658   6.087   0.759   8.846 -0.2276 -0.3235  0.5548
  104OSM   H17F10659   6.154   0.725   8.928 -1.4084 -0.2146  1.6039
  104OSM   H17G10660   6.084   0.870   8.847 -0.4086 -0.3293  0.8029
  104OSM   C18F10661   6.145   0.721   8.710  0.1567  0.6465 -0.1151
  104OSM   H18F10662   6.239   0.780   8.699  2.1259 -1.9595  1.5361
  104OSM   H18G10663   6.070   0.749   8.633 -0.1326 -2.2387 -1.0009
  104OSM   H18H10664   6.168   0.613   8.709  0.6586  0.7403  0.6066
  105OSM      N10665   4.390   0.515  10.999  0.4076 -0.5897  0.6737
  105OSM    C1510666   4.533   0.549  11.030  0.2397  0.1374  0.4032
  105OSM   H15A10667   4.550   0.655  11.045 -1.0913  1.0448 -3.1705
  105OSM   H15B10668   4.587   0.521  10.940  0.8062 -0.3687  0.9005
  105OSM   H15C10669   4.580   0.502  11.114  1.6047  0.1651 -0.3192
  105OSM    C1410670   4.316   0.546  11.126  0.0379 -0.3034 -0.1547
  105OSM   H14A10671   4.309   0.650  11.155 -1.8666 -1.1277  2.9000
  105OSM   H14B10672   4.365   0.499  11.209  0.7582 -0.5149 -0.6948
  105OSM   H14C10673   4.213   0.514  11.129  0.1087 -0.6454  4.0749
  105OSM    C1310674   4.338   0.610  10.893  0.1189 -0.4799  0.1777
  105OSM   H13A10675   4.401   0.615  10.805  3.2439  2.0034  2.3643
  105OSM   H13B10676   4.334   0.712  10.927 -1.3482 -0.8154  1.0900
  105OSM   H13C10677   4.233   0.589  10.879  0.0879  0.4049 -1.1385
  105OSM    C1210678   4.378   0.371  10.948 -0.1692  0.1683  0.3796
  105OSM   H12A10679   4.277   0.334  10.962  0.5711 -1.8565  0.6938
  105OSM   H12B10680   4.447   0.313  11.008  1.5169 -0.6201 -2.1671
  105OSM    C1110681   4.423   0.350  10.804  1.3617  0.3073 -0.4649
  105OSM   H11A10682   4.375   0.427  10.740 -0.9963  0.1033  0.9452
  105OSM   H11B10683   4.370   0.258  10.769 -2.1881  2.2669 -0.6588
  105OSM      P10684   4.659   0.237  10.754 -0.6700  0.0916  0.2692
  105OSM    O1310685   4.795   0.265  10.795 -0.1046 -0.0555  0.4384
  105OSM    O1410686   4.600   0.111  10.809 -0.3414 -0.0300  0.2005
  105OSM    O1110687   4.659   0.224  10.597  0.0544  0.2241 -0.5564
  105OSM    O1210688   4.560   0.350  10.792 -0.4148  0.2568 -0.3541
  105OSM    C1S10689   4.556   0.147  10.534 -0.1026  0.5436  0.3022
  105OSM    H1S10690   4.454   0.172  10.571 -0.2523  0.2222  0.1121
  105OSM    H1T10691   4.568   0.038  10.555 -0.3409  0.6545  1.0557
  105OSM     NF10692   4.453   0.086  10.323 -0.4778  0.1226 -0.1732
  105OSM    HNF10693   4.467  -0.011  10.306 -1.9954 -0.3862  1.2066
  105OSM    C2S10694   4.566   0.155  10.382 -0.5351 -0.5819 -1.0643
  105OSM    H2S10695   4.569   0.262  10.354 -0.9962  0.0919  1.2172
  105OSM    C3S10696   4.708   0.094  10.343  0.2662  0.0040  0.1662
  105OSM    H3S10697   4.692  -0.010  10.379 -2.6790  0.1033 -0.5682
  105OSM     O310698   4.827   0.150  10.409 -0.2038 -0.3104  0.1153
  105OSM    HO310699   4.796   0.173  10.497 -0.7081 -0.6488  0.0322
  105OSM    C4S10700   4.728   0.078  10.195 -0.2572  0.7377  0.3206
  105OSM    H4S10701   4.711  -0.028  10.171  3.3912 -0.0187  0.5481
  105OSM    C5S10702   4.787   0.156  10.107  0.0936  0.1655 -1.1445
  105OSM    H5S10703   4.818   0.259  10.132 -0.6326  0.2842 -0.7070
  105OSM    C6S10704   4.814   0.130   9.966  0.1608  0.9631 -0.2679
  105OSM    H6S10705   4.917   0.162   9.938  0.0875 -0.3774 -2.2420
  105OSM    H6T10706   4.747   0.188   9.899  1.8254  1.2314 -1.7882
  105OSM    C7S10707   4.821  -0.021   9.917 -0.5658 -0.4189 -0.2367
  105OSM    H7S10708   4.727  -0.078   9.935 -1.3547  0.6291 -0.9260
  105OSM    H7T10709   4.906  -0.066   9.973 -0.3081 -0.0257 -0.3127
  105OSM    C8S10710   4.853  -0.029   9.764  0.4064  0.6192 -0.2927
  105OSM    H8S10711   4.775   0.024   9.704  0.5620  0.8909 -0.2577
  105OSM    H8T10712   4.845  -0.138   9.744  0.6602  0.2539  1.4201
  105OSM    C9S10713   4.996   0.013   9.719 -0.1436 -0.7829  1.0943
  105OSM    H9S10714   5.074  -0.019   9.791  1.1564  0.8037  0.4520
  105OSM    H9T10715   4.986   0.124   9.717  1.3324 -0.6309 -1.0467
  105OSM   C10S10716   5.044  -0.037   9.579  0.3883 -0.0691  0.3522
  105OSM   H10S10717   4.989  -0.130   9.551  0.9520  0.1592 -1.6527
  105OSM   H10T10718   5.154  -0.056   9.584  0.5292  0.4243 -0.7445
  105OSM   C11S10719   5.012   0.047   9.451 -0.2823 -0.4376 -0.4810
  105OSM   H11S10720   5.054   0.148   9.471  0.6049 -0.8252 -0.3740
  105OSM   H11T10721   4.902   0.063   9.438 -0.2611  0.0991 -0.0461
  105OSM   C12S10722   5.086   0.016   9.316  0.8288 -0.5394 -0.0213
  105OSM   H12S10723   5.074  -0.093   9.298 -0.4510 -0.5575  0.7694
  105OSM   H12T10724   5.191   0.050   9.327  1.1370  0.0564 -3.5767
  105OSM   C13S10725   5.034   0.100   9.201  0.3522  0.1423  0.5190
  105OSM   H13S10726   5.046   0.208   9.219  1.2170 -0.2756  2.7157
  105OSM   H13T10727   4.927   0.073   9.187  0.8760 -2.0159  0.1862
  105OSM   C14S10728   5.087   0.046   9.066  0.4407  0.1661 -0.0875
  105OSM   H14S10729   5.058  -0.061   9.060 -0.7521  0.4706  0.1429
  105OSM   H14T10730   5.198   0.057   9.062  0.5317  0.3627  1.8816
  105OSM   C15S10731   5.026   0.113   8.945  0.4364  0.2660  0.0499
  105OSM   H15S10732   4.915   0.105   8.946  0.4412  0.0600  1.5863
  105OSM   H15T10733   5.071   0.063   8.857 -1.9980 -2.0015 -0.0269
  105OSM   C16S10734   5.059   0.261   8.928  0.4513 -0.1225  0.5953
  105OSM   H16S10735   5.147   0.277   8.994  0.5050  3.1078 -0.0789
  105OSM   H16T10736   4.986   0.327   8.979  1.2785  0.4029  1.1178
  105OSM   C17S10737   5.099   0.288   8.777 -0.2547  0.7216  0.4748
  105OSM   H17S10738   5.017   0.254   8.711  1.2769 -1.3814 -0.4866
  105OSM   H17T10739   5.191   0.231   8.750  0.0584  0.0116  2.8112
  105OSM   C18S10740   5.120   0.435   8.746  0.0026 -0.0772 -0.5552
  105OSM   H18S10741   5.210   0.480   8.794  0.4810 -1.5077 -0.0606
  105OSM   H18T10742   5.036   0.482   8.801  0.8525 -2.4264  3.1047
  105OSM   H18U10743   5.113   0.462   8.639  0.2855 -0.6171 -0.7121
  105OSM    C1F10744   4.326   0.121  10.324 -0.4116 -0.7997 -0.5607
  105OSM     OF10745   4.291   0.231  10.370  0.0219  0.6111 -0.1931
  105OSM    C2F10746   4.225   0.028  10.259  0.0311 -0.0363  0.0183
  105OSM    H2F10747   4.138   0.097  10.257 -0.2294 -0.3730 -0.7121
  105OSM    H2G10748   4.216  -0.063  10.323  0.2461 -0.4432 -0.5169
  105OSM    C3F10749   4.276  -0.016  10.113 -0.2075  0.6690 -0.5763
  105OSM    H3F10750   4.192  -0.083  10.085 -0.5670 -0.4891  2.8428
  105OSM    H3G10751   4.362  -0.082  10.138  0.0230  1.3964  0.6549
  105OSM    C4F10752   4.327   0.090  10.014 -0.2923  0.1574  0.2187
  105OSM    H4F10753   4.421   0.138  10.050  0.1213  0.5869 -1.3345
  105OSM    H4G10754   4.261   0.179  10.002 -1.1663 -0.3863  0.8776
  105OSM    C5F10755   4.348   0.031   9.872 -0.2378  0.1469 -0.0207
  105OSM    H5F10756   4.252   0.030   9.815  0.0614 -0.3722 -0.5259
  105OSM    H5G10757   4.380  -0.074   9.890  3.5479  1.2824  0.7028
  105OSM    C6F10758   4.448   0.116   9.788 -0.7156  0.3187 -0.2950
  105OSM    H6F10759   4.532   0.143   9.855 -0.2576 -0.4204 -0.5575
  105OSM    H6G10760   4.401   0.213   9.760 -1.2385  0.6995  1.7490
  105OSM    C7F10761   4.512   0.052   9.665  0.0107  0.2711  0.4368
  105OSM    H7F10762   4.564  -0.045   9.685 -1.8077 -0.6501  0.8872
  105OSM    H7G10763   4.600   0.114   9.635  2.1652 -3.1757 -1.0122
  105OSM    C8F10764   4.415   0.046   9.547 -0.5647  0.4550  0.0916
  105OSM    H8F10765   4.381   0.148   9.520  1.9354  0.6242 -3.0159
  105OSM    H8G10766   4.324  -0.015   9.561 -0.8007  0.8457  0.2817
  105OSM    C9F10767   4.495  -0.010   9.428 -0.9046  0.0727  0.6865
  105OSM    H9F10768   4.474  -0.115   9.401 -1.1879  0.4440 -0.6104
  105OSM   C10F10769   4.581   0.053   9.341 -0.9482  0.2072 -0.3387
  105OSM   H10F10770   4.628  -0.001   9.257  1.6400  0.7054  0.7045
  105OSM   C11F10771   4.606   0.197   9.352 -0.8840  0.2959  0.5117
  105OSM   H11F10772   4.681   0.207   9.433  0.6290  1.0108 -0.9165
  105OSM   H11G10773   4.517   0.247   9.393 -1.3299  0.3710 -0.5099
  105OSM   C12F10774   4.640   0.268   9.220  0.6123 -0.2324  0.3161
  105OSM   H12F10775   4.734   0.227   9.178  0.2393 -1.3633  0.5442
  105OSM   H12G10776   4.645   0.373   9.257  1.3603  0.4141 -1.5276
  105OSM   C13F10777   4.520   0.261   9.122  0.1437 -0.1113 -0.8739
  105OSM   H13F10778   4.427   0.272   9.183  0.3777 -0.9028 -0.3660
  105OSM   H13G10779   4.518   0.157   9.083 -0.6648  0.5556 -2.7053
  105OSM   C14F10780   4.528   0.369   9.013 -0.1604  0.2989 -0.4030
  105OSM   H14F10781   4.528   0.473   9.052  0.4586  1.2963 -2.8710
  105OSM   H14G10782   4.435   0.357   8.952 -0.9764 -0.4379  0.9247
  105OSM   C15F10783   4.644   0.344   8.913 -0.0172 -0.4984 -0.0670
  105OSM   H15F10784   4.621   0.271   8.833 -3.7181 -0.6239  0.9672
  105OSM   H15G10785   4.731   0.325   8.980  0.7200 -0.5948 -1.0306
  105OSM   C16F10786   4.692   0.477   8.841 -0.1135 -0.2700 -0.3654
  105OSM   H16F10787   4.802   0.474   8.831 -0.1896  0.3703 -1.5945
  105OSM   H16G10788   4.669   0.570   8.898  2.2108 -0.3729  0.8599
  105OSM   C17F10789   4.629   0.499   8.702  0.4337 -0.2601 -0.0506
  105OSM   H17F10790   4.521   0.523   8.711  0.4917  0.0492 -0.1581
  105OSM   H17G10791   4.627   0.406   8.641 -0.6208 -0.1085 -0.2809
  105OSM   C18F10792   4.701   0.604   8.616  0.7901 -0.0294 -0.3359
  105OSM   H18F10793   4.807   0.574   8.601  0.5255  0.0967 -2.8595
  105OSM   H18G10794   4.688   0.709   8.650  0.5978  0.4417 -1.7744
  105OSM   H18H10795   4.671   0.590   8.510  0.3421 -2.0544  0.0178
  106OSM      N10796   4.284   5.848  10.928 -0.2905 -0.1411  0.4889
  106OSM    C1510797   4.368   5.775  11.033  0.2606 -0.0912  0.2187
  106OSM   H15A10798   4.330   5.801  11.131 -1.3747  0.1637 -0.4521
  106OSM   H15B10799   4.471   5.804  11.022 -0.0429  1.3630  0.8773
  106OSM   H15C10800   4.364   5.668  11.020 -1.3981 -0.1616  0.9597
  106OSM    C1410801   4.143   5.837  10.965  0.2270  0.4412  0.1155
  106OSM   H14A10802   4.113   5.887  11.056 -4.0662 -0.6597 -0.4761
  106OSM   H14B10803   4.112   5.734  10.956 -1.6292  1.0340 -0.5952
  106OSM   H14C10804   4.090   5.902  10.897 -1.2621 -2.7348 -1.9934
  106OSM    C1310805   4.315   5.995  10.932 -0.0953 -0.4649 -0.3617
  106OSM   H13A10806   4.420   6.021  10.940 -0.4615  1.0301 -0.2673
  106OSM   H13B10807   4.269   6.049  11.014 -3.1576 -0.8637 -1.6845
  106OSM   H13C10808   4.274   6.033  10.840 -0.7049 -0.2604 -0.0073
  106OSM    C1210809   4.312   5.790  10.788 -0.5592 -0.7109  0.7719
  106OSM   H12A10810   4.260   5.840  10.707 -0.1744  0.1731  1.0550
  106OSM   H12B10811   4.266   5.693  10.777 -0.6283 -0.4650 -1.9644
  106OSM    C1110812   4.467   5.786  10.744  0.8492 -0.3652  0.2152
  106OSM   H11A10813   4.517   5.866  10.802  0.8047 -0.1334 -0.0598
  106OSM   H11B10814   4.477   5.800  10.634  2.3987 -0.3755  0.3337
  106OSM      P10815   4.513   5.511  10.722 -0.1377  0.2440  0.1757
  106OSM    O1310816   4.614   5.422  10.787  0.9835  0.6233 -0.2346
  106OSM    O1410817   4.377   5.461  10.710  0.4920 -0.6256 -0.0386
  106OSM    O1110818   4.561   5.548  10.580 -0.2850 -0.5773 -0.5700
  106OSM    O1210819   4.516   5.660  10.786 -0.0965  0.5061 -0.6201
  106OSM    C1S10820   4.683   5.630  10.555  0.1895  0.2993 -0.3077
  106OSM    H1S10821   4.778   5.575  10.572  2.7461  2.9202 -4.5025
  106OSM    H1T10822   4.681   5.730  10.603 -0.5904  1.2357 -2.1874
  106OSM     NF10823   4.831   5.716  10.381 -0.4478 -0.1785 -0.0244
  106OSM    HNF10824   4.845   5.813  10.397 -0.5068 -0.3540  1.2335
  106OSM    C2S10825   4.698   5.655  10.394 -0.5023  0.6784 -0.6229
  106OSM    H2S10826   4.701   5.551  10.355 -0.1018 -1.2771  3.8985
  106OSM    C3S10827   4.578   5.735  10.337 -0.6875  1.1888  0.1552
  106OSM    H3S10828   4.592   5.842  10.364  0.7128  1.0364  0.1170
  106OSM     O310829   4.447   5.695  10.378  0.0352 -0.9465  0.0767
  106OSM    HO310830   4.468   5.619  10.433 -0.9411 -1.6035 -0.4246
  106OSM    C4S10831   4.600   5.738  10.187 -0.2340 -0.9524 -0.0969
  106OSM    H4S10832   4.638   5.837  10.157 -0.0616 -0.8534  0.4235
  106OSM    C5S10833   4.597   5.640  10.090 -0.4232  0.0589 -1.0310
  106OSM    H5S10834   4.575   5.541  10.131  1.6403  0.2552  0.7197
  106OSM    C6S10835   4.639   5.659   9.947 -0.3976  0.2587  0.1879
  106OSM    H6S10836   4.556   5.665   9.874  0.6089  0.9594 -0.9311
  106OSM    H6T10837   4.675   5.561   9.909  0.7489  0.7056  0.0891
  106OSM    C7S10838   4.730   5.777   9.902  0.5757 -0.8528 -0.0890
  106OSM    H7S10839   4.815   5.802   9.969  2.4032 -1.0909 -2.2203
  106OSM    H7T10840   4.658   5.861   9.892  2.9178  1.3572  0.3476
  106OSM    C8S10841   4.796   5.746   9.767 -0.4763  0.3704  0.3478
  106OSM    H8S10842   4.856   5.653   9.780  2.5169  1.7758 -2.0863
  106OSM    H8T10843   4.850   5.842   9.753 -1.4666  0.9072  0.1064
  106OSM    C9S10844   4.710   5.728   9.640 -1.4163  0.1745  0.2752
  106OSM    H9S10845   4.657   5.823   9.618  1.0897  1.2976 -1.3265
  106OSM    H9T10846   4.645   5.638   9.653 -0.9691 -0.1532  0.2399
  106OSM   C10S10847   4.804   5.717   9.514  0.4444  0.1697 -0.3995
  106OSM   H10S10848   4.883   5.643   9.536  1.2587  1.4096  1.1216
  106OSM   H10T10849   4.848   5.817   9.495  0.1615  0.6537  1.2670
  106OSM   C11S10850   4.720   5.675   9.390  0.0440  0.0872 -0.1351
  106OSM   H11S10851   4.670   5.764   9.347  1.0910  0.4546 -0.6265
  106OSM   H11T10852   4.641   5.599   9.408 -2.1535  2.5571  1.4843
  106OSM   C12S10853   4.809   5.638   9.274  0.3014  0.2546 -0.6621
  106OSM   H12S10854   4.880   5.555   9.294 -0.1574  0.0703  0.2932
  106OSM   H12T10855   4.870   5.731   9.270 -0.3668  0.9447  2.4498
  106OSM   C13S10856   4.737   5.603   9.147  0.1305 -0.2378 -0.3984
  106OSM   H13S10857   4.684   5.508   9.169  0.5501 -0.1725  0.9787
  106OSM   H13T10858   4.816   5.589   9.070  0.6525  0.6766 -0.0478
  106OSM   C14S10859   4.643   5.712   9.096 -0.4632 -0.0748 -0.2057
  106OSM   H14S10860   4.692   5.811   9.086 -2.3416  0.8169 -1.0754
  106OSM   H14T10861   4.563   5.720   9.172 -0.5869  0.5652 -0.3988
  106OSM   C15S10862   4.574   5.679   8.957  0.1296 -0.4405  0.4552
  106OSM   H15S10863   4.489   5.750   8.949  0.1203 -0.6003 -1.0005
  106OSM   H15T10864   4.522   5.581   8.972  0.4208 -0.5430  0.8274
  106OSM   C16S10865   4.667   5.670   8.830  0.1532  0.1287 -0.2391
  106OSM   H16S10866   4.619   5.656   8.731  1.6622  2.2441 -1.3460
  106OSM   H16T10867   4.746   5.592   8.843  0.4598  0.6444  1.1269
  106OSM   C17S10868   4.754   5.802   8.811 -0.1179 -0.1515 -0.0878
  106OSM   H17S10869   4.803   5.811   8.910 -1.1563 -0.3755  0.4612
  106OSM   H17T10870   4.686   5.886   8.785  0.9120  0.5286 -0.6261
  106OSM   C18S10871   4.856   5.784   8.703 -0.3956  0.0708 -0.3802
  106OSM   H18S10872   4.925   5.870   8.687  0.0726 -0.4496 -1.2016
  106OSM   H18T10873   4.813   5.753   8.605 -1.1021 -0.2934  0.0388
  106OSM   H18U10874   4.903   5.687   8.731 -0.8514  0.0814  0.4551
  106OSM    C1F10875   4.946   5.643  10.396  0.0354 -0.7237  1.1054
  106OSM     OF10876   4.947   5.527  10.422  0.5370  0.2014  0.6153
  106OSM    C2F10877   5.073   5.722  10.361  0.7837 -0.1376  0.5578
  106OSM    H2F10878   5.163   5.669  10.399 -0.2935 -2.3957  0.1456
  106OSM    H2G10879   5.064   5.826  10.398  0.5657  0.7712 -1.8616
  106OSM    C3F10880   5.079   5.725  10.209  0.0089 -0.2541  0.5285
  106OSM    H3F10881   5.154   5.804  10.185 -1.1190  0.3732 -1.1108
  106OSM    H3G10882   4.987   5.768  10.163  0.6243 -1.3079 -1.8172
  106OSM    C4F10883   5.100   5.594  10.133 -0.8356  0.2816  0.2774
  106OSM    H4F10884   5.003   5.540  10.130 -0.0678 -1.1368 -1.1830
  106OSM    H4G10885   5.178   5.528  10.176 -1.3982  1.1051  2.7675
  106OSM    C5F10886   5.140   5.621   9.987 -0.8312  0.1850  0.3388
  106OSM    H5F10887   5.237   5.672   9.973 -0.7264 -0.0089  0.3490
  106OSM    H5G10888   5.057   5.673   9.933  0.8432  1.8140 -0.7952
  106OSM    C6F10889   5.147   5.486   9.910 -0.6778  0.1624 -0.2353
  106OSM    H6F10890   5.069   5.411   9.935 -0.4167 -0.9677 -2.5413
  106OSM    H6G10891   5.244   5.448   9.949 -0.3892  1.5853  0.5130
  106OSM    C7F10892   5.148   5.501   9.758 -0.5129 -0.5177 -0.6550
  106OSM    H7F10893   5.236   5.561   9.726 -1.1924  0.0268 -1.5867
  106OSM    H7G10894   5.051   5.543   9.723 -1.5437 -2.3768 -0.1459
  106OSM    C8F10895   5.161   5.365   9.686 -0.2607  0.2767  0.4500
  106OSM    H8F10896   5.077   5.294   9.702  0.5902 -1.4143 -1.9989
  106OSM    H8G10897   5.257   5.325   9.724  0.2860 -0.0301 -1.1961
  106OSM    C9F10898   5.170   5.394   9.540 -0.5519  0.4880  0.2468
  106OSM    H9F10899   5.069   5.406   9.497 -0.5325  0.8838  0.3105
  106OSM   C10F10900   5.272   5.407   9.454 -0.2403  0.8036 -0.1891
  106OSM   H10F10901   5.259   5.426   9.346 -1.3319 -1.0242 -0.4071
  106OSM   C11F10902   5.426   5.388   9.489 -0.1910 -0.2567  0.9093
  106OSM   H11F10903   5.476   5.331   9.407 -0.5139 -0.2004  0.6712
  106OSM   H11G10904   5.447   5.319   9.573 -0.5475 -2.3308 -0.6031
  106OSM   C12F10905   5.485   5.526   9.516  0.1685  0.2137 -0.2160
  106OSM   H12F10906   5.593   5.519   9.540 -0.0084  0.3716  0.6781
  106OSM   H12G10907   5.411   5.571   9.586 -1.2416 -0.1316 -1.4411
  106OSM   C13F10908   5.487   5.617   9.391 -1.0733  0.1920  0.2173
  106OSM   H13F10909   5.553   5.702   9.418 -0.0901 -0.7838  0.9944
  106OSM   H13G10910   5.389   5.668   9.379 -0.6065  1.2923  0.8735
  106OSM   C14F10911   5.530   5.551   9.256  0.1746 -0.1930  0.1975
  106OSM   H14F10912   5.466   5.461   9.247 -0.4313  0.1018  1.3774
  106OSM   H14G10913   5.630   5.502   9.265  0.5918 -0.2070 -3.2772
  106OSM   C15F10914   5.505   5.630   9.131  0.1077 -0.0645 -0.2143
  106OSM   H15F10915   5.403   5.674   9.133 -1.9744 -4.4099  1.2446
  106OSM   H15G10916   5.513   5.560   9.046 -2.7733  0.1988 -0.7930
  106OSM   C16F10917   5.611   5.740   9.111 -0.3815  0.9979 -0.4980
  106OSM   H16F10918   5.606   5.819   9.189 -0.6903  1.9016 -1.4074
  106OSM   H16G10919   5.575   5.796   9.022  1.7604  1.1098 -1.3565
  106OSM   C17F10920   5.760   5.686   9.097  0.3297  0.6519 -0.0092
  106OSM   H17F10921   5.751   5.606   9.019 -1.1182 -0.0261  0.8161
  106OSM   H17G10922   5.794   5.638   9.191 -2.3030  2.7362  2.1551
  106OSM   C18F10923   5.865   5.785   9.047 -0.1255  0.4316 -0.7082
  106OSM   H18F10924   5.899   5.851   9.130 -1.4054 -0.4603  0.5725
  106OSM   H18G10925   5.818   5.845   8.967  0.0945 -0.1179 -1.2562
  106OSM   H18H10926   5.955   5.726   9.016  0.1626 -0.6558  1.9224
  107OSM      N10927   5.729   3.029  11.001  0.7891 -0.3793 -0.8325
  107OSM    C1510928   5.762   3.034  11.149 -0.1649  0.7814 -0.3721
  107OSM   H15A10929   5.855   2.987  11.175  0.1324  1.2082 -0.6643
  107OSM   H15B10930   5.681   2.983  11.200 -0.4513  0.5305 -1.0624
  107OSM   H15C10931   5.762   3.135  11.187  0.1662  0.4783  0.4506
  107OSM    C1410932   5.583   2.994  10.993  0.3872  0.6855  0.3304
  107OSM   H14A10933   5.561   2.893  11.022 -1.5442  0.2954 -2.1070
  107OSM   H14B10934   5.552   2.998  10.889 -0.5010  0.1365  0.5661
  107OSM   H14C10935   5.518   3.063  11.044 -0.1007  1.8736 -1.7538
  107OSM    C1310936   5.741   3.162  10.952  0.7054 -0.3240 -0.4427
  107OSM   H13A10937   5.843   3.199  10.954  1.2140 -1.4696  3.1770
  107OSM   H13B10938   5.686   3.226  11.019  0.4817 -1.4450  0.4851
  107OSM   H13C10939   5.695   3.179  10.856 -1.2272  0.2284  0.5461
  107OSM    C1210940   5.812   2.928  10.928  0.1177  0.8832 -0.4244
  107OSM   H12A10941   5.768   2.906  10.832  0.4910 -0.0208 -0.3968
  107OSM   H12B10942   5.789   2.833  10.973  0.1163  0.6140 -0.9892
  107OSM    C1110943   5.964   2.936  10.917 -0.2604 -0.5231  1.0218
  107OSM   H11A10944   5.994   3.032  10.870 -0.1154 -0.3418  1.4787
  107OSM   H11B10945   5.992   2.856  10.846 -2.9793  0.0509 -0.8346
  107OSM      P10946   6.108   2.787  11.078 -0.3062 -0.0527 -0.0472
  107OSM    O1310947   6.242   2.832  11.115  0.4103 -0.1498  0.4962
  107OSM    O1410948   6.036   2.710  11.180 -0.1979 -0.1436  0.2231
  107OSM    O1110949   6.114   2.701  10.942  0.0092  0.3638  0.0653
  107OSM    O1210950   6.024   2.916  11.042  0.2214 -0.0015  0.0693
  107OSM    C1S10951   6.190   2.577  10.949  0.5066  0.4078  0.1593
  107OSM    H1S10952   6.135   2.499  11.007  0.2554  1.7103  1.7689
  107OSM    H1T10953   6.293   2.593  10.988  1.1312 -1.2582 -0.7052
  107OSM     NF10954   6.292   2.403  10.797  0.0464 -0.0145 -0.4000
  107OSM    HNF10955   6.391   2.409  10.806 -0.0768  1.3755  0.3948
  107OSM    C2S10956   6.218   2.532  10.799  0.7736  0.2094 -0.2903
  107OSM    H2S10957   6.117   2.518  10.756 -0.0754  1.8892  1.0287
  107OSM    C3S10958   6.286   2.645  10.719  0.3362 -0.3430 -0.4085
  107OSM    H3S10959   6.373   2.688  10.773 -0.5650  1.1841 -0.1058
  107OSM     O310960   6.193   2.749  10.695 -0.1245 -0.4130  0.5055
  107OSM    HO310961   6.135   2.759  10.771 -0.9234  2.8394 -0.3785
  107OSM    C4S10962   6.331   2.596  10.589  0.1645  0.3307  0.5903
  107OSM    H4S10963   6.262   2.524  10.544 -0.2277  0.3364  1.1788
  107OSM    C5S10964   6.450   2.626  10.531  0.1714  0.2602 -0.8155
  107OSM    H5S10965   6.519   2.696  10.580 -0.7193  1.4382 -1.1897
  107OSM    C6S10966   6.497   2.559  10.407 -0.9850  0.9580  0.6962
  107OSM    H6S10967   6.602   2.526  10.416 -1.5404 -1.0769  0.3870
  107OSM    H6T10968   6.496   2.636  10.327  1.6500 -0.0513 -0.4107
  107OSM    C7S10969   6.420   2.430  10.366  0.4818 -0.2048 -0.4062
  107OSM    H7S10970   6.314   2.460  10.352 -0.1887 -2.1641  0.2327
  107OSM    H7T10971   6.426   2.359  10.451  0.2936  1.7549  1.3503
  107OSM    C8S10972   6.486   2.363  10.246 -0.0180  0.4115  0.1427
  107OSM    H8S10973   6.434   2.270  10.214  1.6803 -1.0000  1.2953
  107OSM    H8T10974   6.590   2.333  10.271  1.5428  2.7409 -2.7901
  107OSM    C9S10975   6.485   2.438  10.116  0.3662 -0.8606  0.1285
  107OSM    H9S10976   6.537   2.536  10.111 -0.9058 -0.0630  1.7395
  107OSM    H9T10977   6.381   2.465  10.089  0.7720  1.9078  1.0663
  107OSM   C10S10978   6.552   2.373   9.990  1.1936 -0.0975  0.0340
  107OSM   H10S10979   6.503   2.273   9.997 -1.6908  1.3180  3.5420
  107OSM   H10T10980   6.660   2.355  10.008  1.1713 -1.1215 -0.7544
  107OSM   C11S10981   6.530   2.453   9.861 -0.0775 -0.3313  0.0038
  107OSM   H11S10982   6.572   2.553   9.887 -0.5688  0.0849 -0.7909
  107OSM   H11T10983   6.420   2.459   9.850 -0.4425  0.2961  2.9892
  107OSM   C12S10984   6.589   2.395   9.735 -0.8411  0.5573 -0.2424
  107OSM   H12S10985   6.559   2.289   9.726  0.6178 -0.2867  3.0334
  107OSM   H12T10986   6.697   2.398   9.762 -0.8885  4.2658 -0.0068
  107OSM   C13S10987   6.545   2.467   9.603 -0.1978 -0.1440  0.3190
  107OSM   H13S10988   6.610   2.557   9.599  1.0223 -1.0017  0.4141
  107OSM   H13T10989   6.438   2.494   9.610 -0.0866  0.5344 -0.4517
  107OSM   C14S10990   6.566   2.388   9.476  0.1925  0.7198  0.5096
  107OSM   H14S10991   6.522   2.286   9.480  3.8563 -1.1119 -0.5771
  107OSM   H14T10992   6.676   2.373   9.480  0.0375 -0.4370  0.8669
  107OSM   C15S10993   6.525   2.462   9.347 -0.2070 -0.6486 -0.1184
  107OSM   H15S10994   6.563   2.566   9.345 -1.5138 -0.1076  1.1988
  107OSM   H15T10995   6.414   2.464   9.348 -0.2010  0.7824  1.0822
  107OSM   C16S10996   6.572   2.384   9.224  0.2450 -0.2943 -0.2889
  107OSM   H16S10997   6.531   2.281   9.218  0.1135 -0.2740  0.2049
  107OSM   H16T10998   6.683   2.378   9.224  0.2504 -0.8970  1.4823
  107OSM   C17S10999   6.545   2.461   9.096 -0.2797 -0.2045 -0.4704
  107OSM   H17S11000   6.580   2.563   9.071  1.8236 -1.0947 -1.4266
  107OSM   H17T11001   6.434   2.467   9.093 -0.5602 -2.6373  1.4586
  107OSM   C18S11002   6.593   2.394   8.969  0.0458  0.4788  0.1905
  107OSM   H18S11003   6.704   2.403   8.968 -0.0596  1.9440 -0.1268
  107OSM   H18T11004   6.551   2.443   8.879  0.0282 -1.4122 -0.8845
  107OSM   H18U11005   6.576   2.285   8.966  0.0946  0.4646  0.3955
  107OSM    C1F11006   6.232   2.291  10.837  0.0978  0.4251 -0.1245
  107OSM     OF11007   6.111   2.277  10.848  0.1238  0.1298 -0.0291
  107OSM    C2F11008   6.324   2.189  10.884 -0.0446  0.8483  0.2619
  107OSM    H2F11009   6.301   2.154  10.987  1.7147 -1.4160 -0.0497
  107OSM    H2G11010   6.429   2.223  10.892  0.0562  0.5995 -0.0032
  107OSM    C3F11011   6.333   2.070  10.779  0.7372  0.0677  0.1518
  107OSM    H3F11012   6.237   2.014  10.780  1.0751 -0.5339  2.0090
  107OSM    H3G11013   6.401   1.991  10.815 -3.0161 -2.4942  2.3309
  107OSM    C4F11014   6.368   2.110  10.643 -0.0688  0.4050  0.7299
  107OSM    H4F11015   6.466   2.162  10.649  0.3690 -0.3644  0.4102
  107OSM    H4G11016   6.289   2.167  10.589 -0.5393 -0.3088  0.6523
  107OSM    C5F11017   6.409   1.992  10.549  0.6034  0.4891  0.1809
  107OSM    H5F11018   6.327   1.919  10.526 -0.2185  0.7761  2.0620
  107OSM    H5G11019   6.487   1.929  10.597  1.1576 -0.4356 -1.8227
  107OSM    C6F11020   6.458   2.032  10.410  0.5280 -0.4908  0.3553
  107OSM    H6F11021   6.534   2.112  10.426  1.1493 -1.1981  1.0254
  107OSM    H6G11022   6.381   2.087  10.352 -0.1269 -1.7130  0.0474
  107OSM    C7F11023   6.501   1.908  10.328  0.2984 -0.0892 -0.1004
  107OSM    H7F11024   6.410   1.847  10.313  1.9185 -2.1371 -2.2237
  107OSM    H7G11025   6.581   1.850  10.378 -0.2077  0.1408  1.0099
  107OSM    C8F11026   6.550   1.964  10.187 -0.6586 -0.1700 -0.6225
  107OSM    H8F11027   6.625   1.890  10.151  1.4815  1.3466  0.4393
  107OSM    H8G11028   6.617   2.052  10.202  1.3726 -2.0171  2.3865
  107OSM    C9F11029   6.443   1.997  10.084 -0.6871 -0.5218 -0.3013
  107OSM    H9F11030   6.341   1.993  10.127 -0.8285  0.0425 -0.5781
  107OSM   C10F11031   6.451   2.008   9.950 -0.1600 -0.5482  0.5650
  107OSM   H10F11032   6.364   2.023   9.885  0.7291  3.7218  0.0406
  107OSM   C11F11033   6.588   1.984   9.881  0.3647  0.3395  0.4374
  107OSM   H11F11034   6.653   1.914   9.937  2.7048  2.0058 -0.0548
  107OSM   H11G11035   6.648   2.077   9.875 -2.5436  2.2774 -1.3207
  107OSM   C12F11036   6.573   1.913   9.744 -0.2355 -0.7556 -0.3416
  107OSM   H12F11037   6.522   1.817   9.766  1.1253 -1.0264  1.9407
  107OSM   H12G11038   6.675   1.901   9.703  1.1900 -0.2112  2.7581
  107OSM   C13F11039   6.496   1.986   9.635 -0.2755  0.1556 -0.3127
  107OSM   H13F11040   6.523   2.094   9.628  0.1075 -0.0284 -2.2904
  107OSM   H13G11041   6.385   1.982   9.641 -0.2261  0.6283  1.7820
  107OSM   C14F11042   6.536   1.932   9.496 -0.3874  0.0532 -0.4021
  107OSM   H14F11043   6.514   1.823   9.494 -0.7704  0.1225 -0.1819
  107OSM   H14G11044   6.644   1.940   9.472 -0.2872  0.1648  0.0568
  107OSM   C15F11045   6.449   1.981   9.378 -0.6391 -0.3633  0.1394
  107OSM   H15F11046   6.449   2.092   9.382 -1.3308 -0.3109 -0.9216
  107OSM   H15G11047   6.344   1.950   9.394 -1.0585  0.3698 -1.0469
  107OSM   C16F11048   6.504   1.929   9.241  0.0117 -0.1543 -0.4084
  107OSM   H16F11049   6.495   1.819   9.233 -0.4610 -0.0112 -2.6689
  107OSM   H16G11050   6.608   1.967   9.242 -0.4842  1.2815  0.3632
  107OSM   C17F11051   6.427   1.980   9.116  0.1403 -0.5755 -0.4611
  107OSM   H17F11052   6.428   2.088   9.139  2.4690 -0.8934  1.2337
  107OSM   H17G11053   6.321   1.945   9.119  0.1733 -0.5771  1.4398
  107OSM   C18F11054   6.488   1.945   8.987 -0.4861 -0.7612  0.3588
  107OSM   H18F11055   6.481   1.836   8.966  0.4048 -0.4980 -1.4548
  107OSM   H18G11056   6.594   1.978   8.990 -0.9386  0.6875  2.1409
  107OSM   H18H11057   6.431   1.986   8.901 -0.3968 -0.0940  0.6090
  108OSM      N11058   3.326   0.379  11.086 -0.0660  0.2667  1.2271
  108OSM    C1511059   3.418   0.407  11.192  0.0568  0.4063 -0.0562
  108OSM   H15A11060   3.499   0.473  11.162 -0.7545  2.2177  1.5068
  108OSM   H15B11061   3.456   0.314  11.231 -1.5017 -0.2537 -0.0701
  108OSM   H15C11062   3.369   0.457  11.274  1.5452 -0.0795  1.1952
  108OSM    C1411063   3.225   0.279  11.136 -0.6629  0.2228 -0.1337
  108OSM   H14A11064   3.172   0.310  11.225 -2.0410 -2.6941  0.1760
  108OSM   H14B11065   3.264   0.187  11.175 -2.5836  0.3154  2.2859
  108OSM   H14C11066   3.146   0.254  11.067 -0.0907 -4.0110  0.4732
  108OSM    C1311067   3.255   0.506  11.053  0.1579  1.0866 -0.2621
  108OSM   H13A11068   3.321   0.585  11.021  0.7404  0.7235  0.0362
  108OSM   H13B11069   3.198   0.537  11.139  3.2500 -0.5283  2.5495
  108OSM   H13C11070   3.169   0.495  10.988  0.6308  1.1124 -0.9094
  108OSM    C1211071   3.387   0.322  10.953 -0.5389 -0.4656  0.2360
  108OSM   H12A11072   3.449   0.403  10.918  0.4266 -1.0145  0.6063
  108OSM   H12B11073   3.309   0.311  10.879 -1.5979 -2.1662  1.5263
  108OSM    C1111074   3.471   0.197  10.962 -0.4171 -0.5922 -0.3039
  108OSM   H11A11075   3.468   0.142  10.865 -2.1413 -1.0964  0.0063
  108OSM   H11B11076   3.425   0.124  11.033  0.8800 -0.2750  0.9313
  108OSM      P11077   3.703   0.327  10.975 -0.3697  0.0039  0.3771
  108OSM    O1311078   3.679   0.450  11.057  0.2222  0.0024  0.4347
  108OSM    O1411079   3.840   0.268  10.960 -0.4080  0.0543 -0.0378
  108OSM    O1111080   3.657   0.357  10.827 -0.0212  0.3706  0.0867
  108OSM    O1211081   3.604   0.219  11.022 -0.3225  0.0145 -0.1514
  108OSM    C1S11082   3.720   0.306  10.708  0.2414 -0.8252 -1.0384
  108OSM    H1S11083   3.717   0.195  10.715  1.0330 -0.8463 -0.9096
  108OSM    H1T11084   3.827   0.335  10.709 -0.1048  0.6923  2.3366
  108OSM     NF11085   3.746   0.310  10.465  0.4868  0.5582 -0.0724
  108OSM    HNF11086   3.799   0.372  10.408  0.8256  1.7276  1.4607
  108OSM    C2S11087   3.666   0.364  10.579  0.2946 -0.1077  0.0464
  108OSM    H2S11088   3.560   0.332  10.564 -0.2804  1.1819  1.0932
  108OSM    C3S11089   3.650   0.515  10.584 -0.6113  0.3150  0.4044
  108OSM    H3S11090   3.750   0.561  10.598  0.6013  0.4950 -5.9355
  108OSM     O311091   3.554   0.564  10.686 -0.8802  0.0008 -0.2228
  108OSM    HO311092   3.559   0.490  10.748 -0.0894 -2.2277 -2.7725
  108OSM    C4S11093   3.588   0.572  10.455  0.8571 -0.7241  0.5840
  108OSM    H4S11094   3.647   0.581  10.363  0.1878  2.0381  0.3242
  108OSM    C5S11095   3.450   0.581  10.445  0.2238  0.0583 -0.7066
  108OSM    H5S11096   3.378   0.535  10.515 -0.2034  0.6161 -0.7687
  108OSM    C6S11097   3.384   0.635  10.321  0.2018 -0.0726  0.0435
  108OSM    H6S11098   3.334   0.731  10.346  1.1651  0.5238 -0.2912
  108OSM    H6T11099   3.310   0.555  10.296 -0.8199 -0.1134  2.8899
  108OSM    C7S11100   3.475   0.639  10.195  0.4749 -0.1223  0.4244
  108OSM    H7S11101   3.539   0.550  10.181  0.3844 -0.4952  2.1643
  108OSM    H7T11102   3.551   0.719  10.212  0.3828 -0.1622  1.0523
  108OSM    C8S11103   3.397   0.662  10.068 -0.2750 -0.1706  0.0472
  108OSM    H8S11104   3.360   0.765  10.086 -0.7804 -0.1922 -0.8106
  108OSM    H8T11105   3.317   0.586  10.069  1.7344 -2.4092  0.7167
  108OSM    C9S11106   3.479   0.654   9.941 -0.5575  0.2621 -0.0364
  108OSM    H9S11107   3.545   0.565   9.938  2.5259  2.3434  0.7984
  108OSM    H9T11108   3.550   0.739   9.944 -1.7910  1.2947  1.1489
  108OSM   C10S11109   3.409   0.667   9.806 -0.0779  0.9719  1.5703
  108OSM   H10S11110   3.365   0.769   9.799 -1.2138  0.4335  0.3342
  108OSM   H10T11111   3.316   0.606   9.800  1.6655 -1.6547 -2.1004
  108OSM   C11S11112   3.492   0.645   9.678  1.0301 -0.0995  0.1638
  108OSM   H11S11113   3.524   0.539   9.666  1.5090  0.1955 -1.3403
  108OSM   H11T11114   3.589   0.699   9.679  2.0488 -1.8612  0.4929
  108OSM   C12S11115   3.409   0.675   9.551 -0.2236 -0.7151  0.0109
  108OSM   H12S11116   3.375   0.780   9.542  0.8243 -0.5186 -2.5139
  108OSM   H12T11117   3.320   0.610   9.537 -2.6611  2.7560 -2.0154
  108OSM   C13S11118   3.499   0.653   9.428  0.1149 -0.0972  0.6744
  108OSM   H13S11119   3.547   0.553   9.430 -1.4806 -0.9076  0.2730
  108OSM   H13T11120   3.592   0.714   9.426 -0.2868  0.5100  0.1995
  108OSM   C14S11121   3.437   0.688   9.301  0.7157  0.3553  0.3340
  108OSM   H14S11122   3.433   0.798   9.293 -1.7830  0.6288  3.2144
  108OSM   H14T11123   3.332   0.652   9.306  0.7795 -0.0623 -0.9992
  108OSM   C15S11124   3.494   0.634   9.169 -0.5320  0.2496  0.0998
  108OSM   H15S11125   3.499   0.524   9.174  0.8513  0.3327  1.6382
  108OSM   H15T11126   3.598   0.673   9.161 -0.6407  0.5575  0.1570
  108OSM   C16S11127   3.410   0.665   9.048 -0.1628 -0.2813 -0.1724
  108OSM   H16S11128   3.470   0.680   8.955 -1.3424  0.8925 -0.7752
  108OSM   H16T11129   3.375   0.765   9.081 -2.4149 -1.1085  0.1193
  108OSM   C17S11130   3.290   0.573   9.025 -0.1413  0.2664 -0.3775
  108OSM   H17S11131   3.254   0.524   9.118  0.6673  0.7197  0.1854
  108OSM   H17T11132   3.321   0.487   8.962  0.4631 -1.4014  2.0511
  108OSM   C18S11133   3.168   0.644   8.968  1.1185 -0.0221 -0.3888
  108OSM   H18S11134   3.077   0.581   8.958  1.6078 -0.7025 -0.6383
  108OSM   H18T11135   3.179   0.692   8.868  1.2725 -1.0057 -0.8643
  108OSM   H18U11136   3.141   0.723   9.040 -0.0512 -1.0416  0.3304
  108OSM    C1F11137   3.754   0.181  10.430  0.0402  1.1053 -0.4189
  108OSM     OF11138   3.689   0.091  10.488  0.0842 -0.1718  0.1499
  108OSM    C2F11139   3.848   0.136  10.326 -0.2167  0.2367  0.5864
  108OSM    H2F11140   3.889   0.035  10.347 -0.1104  0.3868  1.1047
  108OSM    H2G11141   3.925   0.215  10.314 -1.4511  1.6954  1.8414
  108OSM    C3F11142   3.769   0.110  10.197  0.1811  0.2424  0.1974
  108OSM    H3F11143   3.721   0.204  10.162 -1.1526 -0.2409  0.6708
  108OSM    H3G11144   3.682   0.043  10.212  1.6057 -1.9877 -0.9000
  108OSM    C4F11145   3.869   0.051  10.091  0.9139 -0.3788 -0.4684
  108OSM    H4F11146   3.945  -0.014  10.138  0.5502 -1.3011 -1.1305
  108OSM    H4G11147   3.940   0.132  10.064  0.3449  0.6347  0.9752
  108OSM    C5F11148   3.811   0.005   9.959  0.3901  0.0324  0.2898
  108OSM    H5F11149   3.749   0.083   9.910  0.1843  0.2572  0.8979
  108OSM    H5G11150   3.737  -0.076   9.974 -1.0405  1.1771 -0.3682
  108OSM    C6F11151   3.915  -0.042   9.859  0.4029 -0.3974 -0.3605
  108OSM    H6F11152   3.992  -0.114   9.893  1.8091  1.3586  0.3586
  108OSM    H6G11153   3.976   0.047   9.833 -0.4943  0.8519  1.5756
  108OSM    C7F11154   3.840  -0.092   9.736 -0.4333  0.3240 -0.4656
  108OSM    H7F11155   3.752  -0.028   9.715  0.4474  1.2382 -1.4723
  108OSM    H7G11156   3.788  -0.188   9.756 -0.7871  0.6462  0.1921
  108OSM    C8F11157   3.935  -0.108   9.614  0.7529 -0.2536 -0.0439
  108OSM    H8F11158   3.879  -0.163   9.535 -0.7960 -0.5498  1.2037
  108OSM    H8G11159   4.022  -0.168   9.645 -0.7511 -2.8540 -0.5552
  108OSM    C9F11160   3.980   0.022   9.553 -0.5346  0.0763 -0.8211
  108OSM    H9F11161   4.018   0.091   9.629  1.4345 -1.1172 -0.6642
  108OSM   C10F11162   3.979   0.060   9.426 -0.0415 -0.3681 -0.3244
  108OSM   H10F11163   4.016   0.160   9.399 -1.0668  0.6877  1.9157
  108OSM   C11F11164   3.924  -0.016   9.312  0.7511  0.7279 -1.3651
  108OSM   H11F11165   3.842   0.044   9.267 -0.9742  0.1338  0.7979
  108OSM   H11G11166   3.889  -0.116   9.344  2.9758  0.3633  0.1746
  108OSM   C12F11167   4.022  -0.039   9.200  0.1783  0.0669  0.3715
  108OSM   H12F11168   3.969  -0.116   9.139 -0.5453 -0.0567  1.1404
  108OSM   H12G11169   4.118  -0.087   9.230 -0.2361 -0.3286  1.0895
  108OSM   C13F11170   4.044   0.088   9.110  0.4854  0.0582 -0.7909
  108OSM   H13F11171   4.097   0.162   9.173  0.1134 -1.0109  0.8585
  108OSM   H13G11172   3.940   0.125   9.098 -0.9050 -3.1310  0.1423
  108OSM   C14F11173   4.120   0.058   8.983  0.2147  0.2412  0.0559
  108OSM   H14F11174   4.060  -0.003   8.912  2.6127 -0.3270 -1.6321
  108OSM   H14G11175   4.203  -0.011   9.011 -0.3493 -1.1329 -1.4933
  108OSM   C15F11176   4.185   0.179   8.910 -0.6805  0.2570 -0.3306
  108OSM   H15F11177   4.271   0.216   8.969 -0.3097  1.0878 -1.3613
  108OSM   H15G11178   4.102   0.251   8.897 -0.5552  0.1652 -1.8511
  108OSM   C16F11179   4.224   0.150   8.758  0.3799 -0.6141  0.2846
  108OSM   H16F11180   4.129   0.146   8.700 -0.8638  0.7624  2.0754
  108OSM   H16G11181   4.280   0.054   8.751 -0.7961 -1.2470 -1.2282
  108OSM   C17F11182   4.309   0.262   8.693 -0.6004 -0.8117  0.5651
  108OSM   H17F11183   4.415   0.228   8.686 -0.8715 -1.5240 -0.0858
  108OSM   H17G11184   4.293   0.357   8.749 -2.4048 -0.0609 -1.1240
  108OSM   C18F11185   4.255   0.296   8.556 -0.0201  0.1172 -0.0315
  108OSM   H18F11186   4.156   0.344   8.571  0.4271  0.6269  1.4784
  108OSM   H18G11187   4.244   0.207   8.489  1.9840 -0.9164  0.9417
  108OSM   H18H11188   4.315   0.370   8.499 -0.3852  0.7270  0.3664
  109OSM      N11189   4.787   0.577  10.582 -0.4362 -0.1329  0.1737
  109OSM    C1511190   4.736   0.490  10.472  0.5193  0.2722 -0.7394
  109OSM   H15A11191   4.804   0.467  10.391  1.4980 -0.8847  0.3577
  109OSM   H15B11192   4.645   0.527  10.427  0.5525  0.5077 -0.6148
  109OSM   H15C11193   4.704   0.397  10.517  1.3949  0.9621  1.4575
  109OSM    C1411194   4.685   0.601  10.690 -0.0952 -0.1731 -0.7829
  109OSM   H14A11195   4.646   0.512  10.737  0.5658 -0.8344 -1.4712
  109OSM   H14B11196   4.605   0.649  10.635 -0.0298  1.6609  0.6375
  109OSM   H14C11197   4.732   0.660  10.767 -1.1089  1.2602 -1.2179
  109OSM    C1311198   4.908   0.506  10.646 -0.8386  0.5186  0.2280
  109OSM   H13A11199   4.936   0.575  10.724 -0.8862  0.1082  0.6085
  109OSM   H13B11200   4.987   0.476  10.578  0.2769  0.1292  1.6347
  109OSM   H13C11201   4.866   0.415  10.687 -2.3781  1.1518  0.0976
  109OSM    C1211202   4.827   0.711  10.513  0.6252  0.4399 -0.1004
  109OSM   H12A11203   4.893   0.686  10.431  0.3037 -0.7803 -0.0186
  109OSM   H12B11204   4.872   0.766  10.594 -3.0404  0.1169  2.4124
  109OSM    C1111205   4.706   0.787  10.445  0.5417 -0.1497 -0.0973
  109OSM   H11A11206   4.651   0.715  10.381 -1.9193  0.5787  1.0498
  109OSM   H11B11207   4.735   0.862  10.368 -2.1223 -1.3279 -2.3929
  109OSM      P11208   4.586   0.993  10.551 -0.0857 -0.0928 -0.2170
  109OSM    O1311209   4.440   1.007  10.569  0.0429  0.2809 -0.3436
  109OSM    O1411210   4.678   1.048  10.653 -0.3576 -0.3737  0.3405
  109OSM    O1111211   4.612   1.058  10.412 -0.6186  0.0431  0.6466
  109OSM    O1211212   4.609   0.842  10.537  0.3478 -0.0207  0.8028
  109OSM    C1S11213   4.610   1.201  10.395  0.1926  0.5926  0.5432
  109OSM    H1S11214   4.696   1.234  10.457  1.0591  1.1877 -0.9449
  109OSM    H1T11215   4.527   1.251  10.450  0.7424  0.3076  1.6521
  109OSM     NF11216   4.653   1.386  10.252 -0.1452 -1.2114  0.0519
  109OSM    HNF11217   4.572   1.440  10.232  0.7183 -0.0814 -0.5613
  109OSM    C2S11218   4.630   1.246  10.253 -0.0426 -0.4518  0.3085
  109OSM    H2S11219   4.715   1.197  10.200 -0.9811 -0.9923 -0.7496
  109OSM    C3S11220   4.501   1.190  10.171  0.1870  0.3581 -0.4720
  109OSM    H3S11221   4.418   1.213  10.240  0.2308  0.3716 -0.4238
  109OSM     O311222   4.498   1.047  10.159 -0.5226 -0.1405  0.4683
  109OSM    HO311223   4.542   1.028  10.242 -0.7898  0.5764  0.7808
  109OSM    C4S11224   4.482   1.260  10.039  0.6997  0.3739 -0.0884
  109OSM    H4S11225   4.444   1.361  10.061 -1.1419 -0.5887  1.3575
  109OSM    C5S11226   4.506   1.219   9.911 -1.0730 -0.0429 -0.2435
  109OSM    H5S11227   4.551   1.119   9.898  0.3240  0.5771 -0.2852
  109OSM    C6S11228   4.480   1.307   9.790 -0.5563 -0.1812 -0.0626
  109OSM    H6S11229   4.463   1.411   9.825 -0.5497 -0.6537  1.4416
  109OSM    H6T11230   4.397   1.270   9.727 -1.0110 -0.6990  0.8116
  109OSM    C7S11231   4.604   1.320   9.706 -1.2543 -0.3736  0.0444
  109OSM    H7S11232   4.631   1.223   9.659  2.5480 -2.7237  5.8256
  109OSM    H7T11233   4.686   1.330   9.781  0.1492 -1.6418 -1.2433
  109OSM    C8S11234   4.602   1.435   9.608  0.0075 -0.5893  0.3640
  109OSM    H8S11235   4.707   1.471   9.606 -0.2153  0.0609 -0.0681
  109OSM    H8T11236   4.552   1.527   9.647  0.3013 -0.1616 -0.2485
  109OSM    C9S11237   4.563   1.400   9.461 -0.6405 -0.9381 -0.8473
  109OSM    H9S11238   4.454   1.379   9.458 -0.4313 -2.1048 -4.2259
  109OSM    H9T11239   4.630   1.316   9.432  1.0371 -0.5282  1.5454
  109OSM   C10S11240   4.590   1.522   9.372  0.0217  0.6097  0.3861
  109OSM   H10S11241   4.697   1.548   9.383  0.3278 -0.4750  0.0864
  109OSM   H10T11242   4.523   1.607   9.397 -0.3196  0.2162  0.8248
  109OSM   C11S11243   4.561   1.489   9.224 -0.3188 -0.0351 -0.4973
  109OSM   H11S11244   4.465   1.434   9.209  0.7301 -2.1117 -0.0525
  109OSM   H11T11245   4.642   1.417   9.199  0.3086 -0.7720  3.1920
  109OSM   C12S11246   4.583   1.609   9.133  0.4806 -0.4304 -0.8213
  109OSM   H12S11247   4.691   1.638   9.135  0.1767  0.7961 -1.4876
  109OSM   H12T11248   4.522   1.700   9.149 -0.1875 -0.6640 -1.9932
  109OSM   C13S11249   4.558   1.559   8.988  0.7723 -0.2653  0.1875
  109OSM   H13S11250   4.501   1.464   8.979 -0.8334  0.7240 -0.6762
  109OSM   H13T11251   4.659   1.547   8.945 -0.9519 -0.8165 -4.1906
  109OSM   C14S11252   4.479   1.667   8.911  0.2315  0.1634 -0.6737
  109OSM   H14S11253   4.535   1.762   8.930 -0.6197  0.7396 -0.9855
  109OSM   H14T11254   4.381   1.672   8.963  0.6201 -2.0792  0.3955
  109OSM   C15S11255   4.452   1.653   8.762  0.3190 -0.3918 -0.3221
  109OSM   H15S11256   4.394   1.559   8.748 -1.5898  0.4883  1.3029
  109OSM   H15T11257   4.552   1.629   8.718  0.6689  0.9454 -0.2924
  109OSM   C16S11258   4.386   1.778   8.700 -0.5450  0.5847 -0.3806
  109OSM   H16S11259   4.289   1.800   8.750  0.6124  2.5432  1.1695
  109OSM   H16T11260   4.379   1.764   8.590  0.1144 -0.8014 -0.2661
  109OSM   C17S11261   4.466   1.910   8.722  0.8375  0.7182  0.1183
  109OSM   H17S11262   4.563   1.891   8.673  1.2228  3.2093 -0.1852
  109OSM   H17T11263   4.474   1.930   8.831  0.7019  0.4898  0.1714
  109OSM   C18S11264   4.418   2.040   8.664 -0.0816  0.1871  0.0669
  109OSM   H18S11265   4.426   2.036   8.553  1.5393 -0.3381  0.1714
  109OSM   H18T11266   4.495   2.114   8.695 -1.0100  0.2224  2.4927
  109OSM   H18U11267   4.316   2.061   8.702 -0.1438 -0.4008  0.2434
  109OSM    C1F11268   4.765   1.447  10.300 -0.6254 -0.1131 -0.2005
  109OSM     OF11269   4.835   1.410  10.389 -0.0163 -0.6476  0.3757
  109OSM    C2F11270   4.797   1.576  10.236 -0.1600 -0.4029 -0.0926
  109OSM    H2F11271   4.908   1.585  10.232  0.0202 -2.0926  0.2505
  109OSM    H2G11272   4.752   1.659  10.295 -0.8409 -0.7304 -0.1395
  109OSM    C3F11273   4.743   1.591  10.088 -0.4685  0.3692  0.1201
  109OSM    H3F11274   4.633   1.594  10.097 -0.3894 -2.1695  3.5618
  109OSM    H3G11275   4.763   1.492  10.042  1.1287  1.5520 -1.9548
  109OSM    C4F11276   4.788   1.717  10.003 -0.1211  0.1928  0.6626
  109OSM    H4F11277   4.898   1.728   9.990 -0.2709 -0.3133 -1.3878
  109OSM    H4G11278   4.745   1.799  10.063  0.4409  0.6393  0.4629
  109OSM    C5F11279   4.721   1.703   9.864  0.0281  0.6379 -0.2252
  109OSM    H5F11280   4.616   1.664   9.863  0.4678 -0.6548  0.7198
  109OSM    H5G11281   4.768   1.614   9.817 -1.9267 -1.1354  0.9782
  109OSM    C6F11282   4.726   1.832   9.782 -0.2160 -0.2581 -0.1585
  109OSM    H6F11283   4.832   1.865   9.783 -0.1319 -0.5317  0.6022
  109OSM    H6G11284   4.669   1.916   9.828  1.3411  0.9362 -0.3082
  109OSM    C7F11285   4.684   1.812   9.636  0.4420 -0.3833 -0.0670
  109OSM    H7F11286   4.579   1.776   9.626 -0.7972  2.2612  2.1657
  109OSM    H7G11287   4.757   1.740   9.592  2.4840  2.2237 -1.2142
  109OSM    C8F11288   4.686   1.940   9.545  1.1053  0.2142 -0.7922
  109OSM    H8F11289   4.791   1.977   9.541  0.7742  1.4415  0.7073
  109OSM    H8G11290   4.633   2.013   9.610  1.9035  3.1448 -3.2171
  109OSM    C9F11291   4.630   1.929   9.405 -0.5197 -0.0086  0.6210
  109OSM    H9F11292   4.521   1.919   9.409 -0.5237  0.2325  2.8880
  109OSM   C10F11293   4.697   1.933   9.291  0.3908  0.3963  0.2375
  109OSM   H10F11294   4.641   1.911   9.199  2.8630 -2.5784 -0.7206
  109OSM   C11F11295   4.844   1.935   9.278 -0.6846 -0.0016 -0.7983
  109OSM   H11F11296   4.899   1.906   9.370 -0.9059  1.5886 -0.1439
  109OSM   H11G11297   4.869   2.041   9.258 -0.4365 -0.0915 -0.9711
  109OSM   C12F11298   4.892   1.840   9.164  0.7493 -0.5156 -0.1848
  109OSM   H12F11299   4.858   1.736   9.184  0.6110 -0.0925  2.0864
  109OSM   H12G11300   5.003   1.833   9.172  0.7353 -1.5745 -0.7412
  109OSM   C13F11301   4.860   1.886   9.022 -0.5692  0.2031  0.7987
  109OSM   H13F11302   4.926   1.971   8.991  0.2690 -0.4635  0.7142
  109OSM   H13G11303   4.753   1.916   9.019 -0.7178 -0.1178  2.1995
  109OSM   C14F11304   4.894   1.776   8.918  0.9519  0.6806  0.5108
  109OSM   H14F11305   4.847   1.682   8.953  1.3874  0.5358  0.7095
  109OSM   H14G11306   5.002   1.752   8.907  0.0780 -3.3828 -1.2333
  109OSM   C15F11307   4.831   1.810   8.783 -0.1523  0.5503 -0.4547
  109OSM   H15F11308   4.870   1.909   8.751 -1.0900  1.1268  0.1497
  109OSM   H15G11309   4.721   1.797   8.794  0.1846 -1.3181  1.3167
  109OSM   C16F11310   4.867   1.705   8.672  0.7537 -1.1398 -0.3903
  109OSM   H16F11311   4.820   1.740   8.578  1.0199 -2.2643 -0.9633
  109OSM   H16G11312   4.823   1.604   8.684 -0.5091 -0.6064 -0.3526
  109OSM   C17F11313   5.016   1.688   8.648  0.0630 -0.2422  0.0069
  109OSM   H17F11314   5.069   1.635   8.731  0.7288  0.9142  0.3402
  109OSM   H17G11315   5.065   1.787   8.640  1.6049 -0.9493  0.3849
  109OSM   C18F11316   5.042   1.605   8.522  0.0851  0.1584 -0.5351
  109OSM   H18F11317   4.997   1.651   8.432 -1.2406  2.3589  1.1526
  109OSM   H18G11318   4.998   1.503   8.518  1.3594 -0.3697 -2.2971
  109OSM   H18H11319   5.151   1.584   8.523  0.2161  0.6365  1.9719
  110OSM      N11320   5.792   6.569  11.183 -0.5407  0.2694  0.6444
  110OSM    C1511321   5.868   6.612  11.059 -0.1238  0.1822  0.1018
  110OSM   H15A11322   5.870   6.720  11.057  1.0123  0.2154  1.5052
  110OSM   H15B11323   5.815   6.571  10.974 -3.3956 -2.3379  3.0373
  110OSM   H15C11324   5.972   6.585  11.051 -0.1254  0.1442  0.2019
  110OSM    C1411325   5.846   6.634  11.306  0.1886 -0.6602  0.0314
  110OSM   H14A11326   5.954   6.630  11.303  0.3428  0.8797  1.8799
  110OSM   H14B11327   5.816   6.592  11.400  0.8750 -0.8244  0.1850
  110OSM   H14C11328   5.813   6.737  11.300 -0.7256 -0.7926  2.1481
  110OSM    C1311329   5.647   6.611  11.168 -0.2004  1.1883  0.1584
  110OSM   H13A11330   5.586   6.587  11.253 -1.8752 -0.4053 -1.3894
  110OSM   H13B11331   5.607   6.558  11.082 -0.4802 -2.2801  2.2514
  110OSM   H13C11332   5.648   6.716  11.145 -1.0723  0.9916 -0.9179
  110OSM    C1211333   5.806   6.421  11.198 -0.6071  0.0099 -0.2477
  110OSM   H12A11334   5.750   6.392  11.286  2.1905 -0.1772  1.5713
  110OSM   H12B11335   5.908   6.403  11.227  0.0561 -1.4560 -3.0937
  110OSM    C1111336   5.762   6.333  11.082  0.3615 -0.7612  0.5820
  110OSM   H11A11337   5.815   6.237  11.102  1.6360 -0.0955  0.5270
  110OSM   H11B11338   5.805   6.379  10.990 -0.4189  0.8732  1.0123
  110OSM      P11339   5.564   6.214  10.966  0.0369  0.1620 -0.1635
  110OSM    O1311340   5.644   6.089  10.979  0.2500  0.4367  0.5284
  110OSM    O1411341   5.418   6.203  10.974  0.2586 -0.1634  0.0729
  110OSM    O1111342   5.596   6.277  10.818  0.5742 -0.3869 -0.8516
  110OSM    O1211343   5.619   6.314  11.067  0.2122 -0.0863 -0.2843
  110OSM    C1S11344   5.566   6.415  10.803  0.2724 -0.3480  0.2216
  110OSM    H1S11345   5.642   6.480  10.852  1.7916 -1.1383 -0.9809
  110OSM    H1T11346   5.465   6.449  10.835  1.2770  2.2803  0.8906
  110OSM     NF11347   5.570   6.588  10.620  0.1853  0.0897 -0.1204
  110OSM    HNF11348   5.495   6.606  10.557  0.4194  0.1567 -0.3825
  110OSM    C2S11349   5.582   6.451  10.652  0.1856  0.2099  0.0543
  110OSM    H2S11350   5.688   6.425  10.630  1.0136  3.6592 -0.6191
  110OSM    C3S11351   5.479   6.372  10.573 -0.3854 -0.5417 -0.6812
  110OSM    H3S11352   5.381   6.424  10.582 -0.1911 -0.2452 -0.2585
  110OSM     O311353   5.459   6.239  10.605 -0.1140 -0.6262  0.7650
  110OSM    HO311354   5.507   6.223  10.687 -0.2296  0.8741  1.1552
  110OSM    C4S11355   5.528   6.367  10.433 -0.0157  0.0652  0.6101
  110OSM    H4S11356   5.611   6.297  10.412 -0.3433 -0.0838 -0.2238
  110OSM    C5S11357   5.480   6.437  10.327  0.5079  0.0192  0.9474
  110OSM    H5S11358   5.393   6.501  10.343 -0.1668 -1.3731  3.2740
  110OSM    C6S11359   5.522   6.457  10.183  0.1381  0.8282  0.0629
  110OSM    H6S11360   5.527   6.564  10.154  2.3750  0.3221 -1.6424
  110OSM    H6T11361   5.443   6.408  10.122 -1.3806 -1.0855  3.3136
  110OSM    C7S11362   5.668   6.407  10.154 -0.0033  0.2337  0.0524
  110OSM    H7S11363   5.671   6.296  10.148 -0.6136  0.2123  0.1108
  110OSM    H7T11364   5.741   6.443  10.230 -0.2612  3.0731 -0.9221
  110OSM    C8S11365   5.723   6.445  10.015 -0.0327  0.0400  0.4291
  110OSM    H8S11366   5.822   6.397  10.000  0.6760  1.9019 -1.3386
  110OSM    H8T11367   5.747   6.553  10.002 -0.7017  0.0165 -1.1821
  110OSM    C9S11368   5.630   6.408   9.891 -0.3720  0.6077 -0.0760
  110OSM    H9S11369   5.532   6.461   9.894 -0.7513  0.0438 -1.5110
  110OSM    H9T11370   5.619   6.298   9.888  0.9562  0.4689 -0.3100
  110OSM   C10S11371   5.699   6.440   9.761  0.7891 -0.2110 -0.4937
  110OSM   H10S11372   5.801   6.397   9.762  1.0393  0.3765 -0.3504
  110OSM   H10T11373   5.693   6.551   9.759 -1.6704 -0.2539  0.2443
  110OSM   C11S11374   5.633   6.396   9.625 -0.9868  0.5275  0.1457
  110OSM   H11S11375   5.525   6.421   9.623 -1.0538  0.2494  0.2606
  110OSM   H11T11376   5.633   6.285   9.619 -0.2425  0.5760 -1.1002
  110OSM   C12S11377   5.716   6.451   9.503  0.3889 -0.4033  0.6063
  110OSM   H12S11378   5.700   6.560   9.491  2.1506 -0.1180  0.7014
  110OSM   H12T11379   5.667   6.406   9.414  0.6726 -1.1780  0.8254
  110OSM   C13S11380   5.861   6.413   9.492  0.6304 -0.2617 -0.1493
  110OSM   H13S11381   5.870   6.318   9.549  0.3913 -0.6317 -0.7262
  110OSM   H13T11382   5.928   6.488   9.539 -1.7594  0.9438  1.5490
  110OSM   C14S11383   5.904   6.401   9.348  0.9777 -0.2876 -0.6263
  110OSM   H14S11384   5.833   6.324   9.309 -0.7110  0.9563 -0.1105
  110OSM   H14T11385   6.006   6.356   9.341  0.5496 -1.6793  1.2791
  110OSM   C15S11386   5.882   6.530   9.270  0.2179 -0.1868  0.2826
  110OSM   H15S11387   5.956   6.606   9.302 -0.4126  0.7989 -0.5281
  110OSM   H15T11388   5.776   6.565   9.277  0.0430 -0.5109 -0.6122
  110OSM   C16S11389   5.883   6.495   9.115  0.0675  0.5749 -0.7327
  110OSM   H16S11390   5.803   6.419   9.101 -0.0472  0.4988  0.2560
  110OSM   H16T11391   5.978   6.441   9.096  1.0122  0.9866  2.2507
  110OSM   C17S11392   5.874   6.616   9.021 -0.2114 -0.1876 -0.2058
  110OSM   H17S11393   5.962   6.681   9.038 -1.4821  1.7736 -0.8572
  110OSM   H17T11394   5.780   6.671   9.040 -1.6831 -1.4832 -3.0229
  110OSM   C18S11395   5.880   6.581   8.867 -0.3385 -0.3008 -0.1442
  110OSM   H18S11396   5.794   6.511   8.856  1.1170 -2.5910  2.0275
  110OSM   H18T11397   5.978   6.533   8.842 -0.2334 -1.0525  1.5922
  110OSM   H18U11398   5.858   6.672   8.808 -1.0024  0.4975  1.2900
  110OSM    C1F11399   5.646   6.687  10.666  0.2984  0.5425 -0.5336
  110OSM     OF11400   5.748   6.668  10.737  0.5574 -0.6559  0.3060
  110OSM    C2F11401   5.608   6.827  10.624  0.3760 -0.3069 -0.0335
  110OSM    H2F11402   5.593   6.889  10.715  1.5647  0.2919 -0.2228
  110OSM    H2G11403   5.513   6.842  10.569  0.1827  0.0211  0.3912
  110OSM    C3F11404   5.721   6.883  10.536 -0.0650 -0.0542 -0.2212
  110OSM    H3F11405   5.818   6.874  10.589 -0.8750  0.6179  1.4671
  110OSM    H3G11406   5.715   6.994  10.525  0.1434 -0.1555 -1.5615
  110OSM    C4F11407   5.726   6.813  10.402  0.2339 -0.4839 -0.4531
  110OSM    H4F11408   5.641   6.858  10.347  1.7611  0.6683 -1.9998
  110OSM    H4G11409   5.708   6.704  10.400 -1.9766 -0.1571 -2.4233
  110OSM    C5F11410   5.854   6.849  10.330 -1.1513 -0.9061 -0.3053
  110OSM    H5F11411   5.937   6.815  10.396 -1.1459  0.4098  0.4047
  110OSM    H5G11412   5.875   6.956  10.310  1.9383 -1.5931 -1.2404
  110OSM    C6F11413   5.869   6.797  10.187  0.0208  0.3976  1.0397
  110OSM    H6F11414   5.798   6.850  10.122  0.8846  0.4723  0.1312
  110OSM    H6G11415   5.833   6.692  10.200  1.6613 -0.4424 -0.6587
  110OSM    C7F11416   6.015   6.810  10.128  0.5113  0.4605  0.5378
  110OSM    H7F11417   6.085   6.786  10.211  0.0919  1.4450  1.1958
  110OSM    H7G11418   6.037   6.915  10.102  1.1185  0.1318 -0.3106
  110OSM    C8F11419   6.045   6.720  10.002  0.0617 -0.4140 -0.1963
  110OSM    H8F11420   6.144   6.739   9.956  0.6461 -1.5272  0.5343
  110OSM    H8G11421   5.964   6.747   9.932 -2.2629 -0.1400  2.4288
  110OSM    C9F11422   6.041   6.570  10.034 -0.1899 -0.2638 -0.5242
  110OSM    H9F11423   5.973   6.536  10.113 -1.8878  0.7882 -1.4743
  110OSM   C10F11424   6.119   6.476   9.976  0.1606  0.9066  0.1856
  110OSM   H10F11425   6.086   6.371   9.986 -2.4341  1.6676  0.4073
  110OSM   C11F11426   6.223   6.491   9.866 -1.3587 -0.7265 -0.2091
  110OSM   H11F11427   6.311   6.431   9.897  0.5419  2.2168  0.5312
  110OSM   H11G11428   6.267   6.593   9.866 -0.3933 -1.0172  3.5256
  110OSM   C12F11429   6.172   6.457   9.730  0.5063 -0.1197  0.3447
  110OSM   H12F11430   6.089   6.525   9.702  0.2558 -0.0414  1.2586
  110OSM   H12G11431   6.117   6.361   9.741  1.0406 -0.3914  0.7099
  110OSM   C13F11432   6.275   6.467   9.621 -0.7520  0.0497  0.2493
  110OSM   H13F11433   6.357   6.393   9.638  0.0543  1.3161  2.1442
  110OSM   H13G11434   6.327   6.565   9.622 -0.0795 -0.2915 -0.2417
  110OSM   C14F11435   6.215   6.445   9.480 -0.4458 -0.1126 -0.2443
  110OSM   H14F11436   6.133   6.517   9.461  0.2991  1.2808  1.4539
  110OSM   H14G11437   6.179   6.341   9.467 -1.3490  0.2836 -0.9285
  110OSM   C15F11438   6.327   6.471   9.376 -0.1010 -0.0482  0.3747
  110OSM   H15F11439   6.386   6.377   9.374  1.9896  1.1629  1.0729
  110OSM   H15G11440   6.399   6.546   9.416  0.2080  0.1695 -0.5725
  110OSM   C16F11441   6.258   6.534   9.249  0.3617  0.5144 -0.0791
  110OSM   H16F11442   6.221   6.638   9.257 -2.2024 -0.1852 -1.5394
  110OSM   H16G11443   6.164   6.478   9.229  0.3815  0.1311  0.8564
  110OSM   C17F11444   6.354   6.550   9.129 -0.1885 -0.1387 -0.5848
  110OSM   H17F11445   6.421   6.467   9.098 -3.4720 -2.7883 -1.1669
  110OSM   H17G11446   6.417   6.638   9.154  0.2855 -0.8858  1.0127
  110OSM   C18F11447   6.280   6.597   9.007  0.3767  0.1558 -0.4133
  110OSM   H18F11448   6.187   6.540   8.985  0.7896 -0.5643 -0.3236
  110OSM   H18G11449   6.343   6.571   8.919  0.5960 -0.1517 -0.1696
  110OSM   H18H11450   6.248   6.703   9.014  3.4524  1.2110 -0.7052
  111OSM      N11451   5.492   2.402  11.316 -0.6983 -0.6226  0.0284
  111OSM    C1511452   5.367   2.484  11.337 -0.2108  0.3746  0.0034
  111OSM   H15A11453   5.398   2.547  11.419 -1.0707  0.4964  0.2488
  111OSM   H15B11454   5.281   2.421  11.354 -1.3704  2.2814  1.8418
  111OSM   H15C11455   5.347   2.538  11.245  3.3421  1.6688 -0.1552
  111OSM    C1411456   5.497   2.309  11.427  0.0422 -0.0108 -0.0218
  111OSM   H14A11457   5.444   2.216  11.417  2.5869 -1.9022  2.3928
  111OSM   H14B11458   5.466   2.355  11.520  2.1774  1.1665  0.1702
  111OSM   H14C11459   5.600   2.283  11.447  0.0355 -2.0567 -2.2721
  111OSM    C1311460   5.478   2.333  11.183 -0.4002  0.1761  0.8294
  111OSM   H13A11461   5.475   2.404  11.101 -2.2465 -1.6387 -0.8202
  111OSM   H13B11462   5.385   2.277  11.185  1.1006 -2.4661  1.0206
  111OSM   H13C11463   5.555   2.259  11.168 -0.9609 -0.3829  0.6427
  111OSM    C1211464   5.615   2.488  11.308 -0.6934  0.3890 -0.5319
  111OSM   H12A11465   5.695   2.420  11.332 -1.4442  0.1765  1.6326
  111OSM   H12B11466   5.617   2.555  11.393  0.2808  0.1920 -0.3913
  111OSM    C1111467   5.664   2.570  11.191 -0.2195  0.1199 -0.7202
  111OSM   H11A11468   5.708   2.500  11.116 -1.6053  0.7218 -2.1589
  111OSM   H11B11469   5.751   2.633  11.220 -1.4369  1.0199  1.1743
  111OSM      P11470   5.531   2.638  10.977  0.0379  0.1746 -0.2213
  111OSM    O1311471   5.493   2.497  10.942 -0.3525  0.2791 -0.9221
  111OSM    O1411472   5.436   2.739  10.935  0.2518  0.1590  0.1186
  111OSM    O1111473   5.661   2.669  10.909 -0.0696 -0.3841 -0.8814
  111OSM    O1211474   5.558   2.648  11.133 -0.2476  0.2877  0.3813
  111OSM    C1S11475   5.728   2.594  10.807  0.5797 -0.0913  0.1894
  111OSM    H1S11476   5.719   2.486  10.834  1.5755  0.1356  1.5124
  111OSM    H1T11477   5.835   2.625  10.803  0.0692  2.1663  1.9228
  111OSM     NF11478   5.755   2.527  10.573  0.9359  0.2252 -0.4473
  111OSM    HNF11479   5.820   2.575  10.514 -0.9976  0.7958 -2.2736
  111OSM    C2S11480   5.673   2.607  10.657  0.7721 -0.8602 -0.1089
  111OSM    H2S11481   5.571   2.565  10.643  1.0689 -1.7423  0.2673
  111OSM    C3S11482   5.672   2.754  10.604  0.0662 -0.0438  0.2327
  111OSM    H3S11483   5.777   2.787  10.593 -0.1164  0.4859  0.0526
  111OSM     O311484   5.605   2.845  10.693 -0.6521 -0.3582 -0.3412
  111OSM    HO311485   5.572   2.790  10.765 -1.9314  0.9163  0.0854
  111OSM    C4S11486   5.612   2.762  10.465  0.5434 -0.5016 -0.4957
  111OSM    H4S11487   5.695   2.739  10.396  0.9844  1.1191 -0.5520
  111OSM    C5S11488   5.488   2.790  10.424  1.0567  0.1673  0.0945
  111OSM    H5S11489   5.414   2.810  10.504  0.7387 -0.5943 -0.0010
  111OSM    C6S11490   5.437   2.792  10.281  0.1938 -0.5374 -0.0167
  111OSM    H6S11491   5.328   2.773  10.270  0.4278 -1.1458 -1.4423
  111OSM    H6T11492   5.484   2.703  10.234 -2.5960 -0.9693 -2.2443
  111OSM    C7S11493   5.472   2.917  10.200 -0.6993 -0.2376  0.2679
  111OSM    H7S11494   5.573   2.953  10.231 -0.0129  0.2551 -2.3208
  111OSM    H7T11495   5.400   2.999  10.220  0.4896  0.5625  1.4654
  111OSM    C8S11496   5.502   2.869  10.052 -0.3701  0.6741 -0.3545
  111OSM    H8S11497   5.430   2.788  10.027  0.4639 -1.2196  2.8589
  111OSM    H8T11498   5.600   2.817  10.055 -0.6479  0.0951 -0.8774
  111OSM    C9S11499   5.493   2.987   9.954  0.2048  0.3394  0.3454
  111OSM    H9S11500   5.575   3.058   9.977 -0.2745  1.0681 -0.1422
  111OSM    H9T11501   5.395   3.038   9.969  0.4617  0.5795  1.2150
  111OSM   C10S11502   5.491   2.951   9.805  0.1770  0.4597 -0.1700
  111OSM   H10S11503   5.454   3.049   9.767  0.5323  1.7286  2.5504
  111OSM   H10T11504   5.416   2.874   9.779 -0.4588  2.0614 -3.7927
  111OSM   C11S11505   5.632   2.936   9.735  0.2176  0.2886  0.1941
  111OSM   H11S11506   5.679   2.850   9.788  1.1110 -0.5826 -1.8961
  111OSM   H11T11507   5.673   3.035   9.764 -2.7133  0.5692  4.1521
  111OSM   C12S11508   5.608   2.922   9.583 -0.4133 -0.2583  0.1705
  111OSM   H12S11509   5.524   2.981   9.541 -1.7014 -1.3553  1.1028
  111OSM   H12T11510   5.580   2.819   9.552 -2.3315  0.1447  0.4711
  111OSM   C13S11511   5.731   2.970   9.499  0.0008 -0.3614  0.1705
  111OSM   H13S11512   5.817   2.900   9.500  2.1986  1.6238 -5.5395
  111OSM   H13T11513   5.774   3.064   9.542  0.1857 -0.0638 -0.6461
  111OSM   C14S11514   5.702   2.975   9.351 -0.3225  0.2438  0.1115
  111OSM   H14S11515   5.635   3.062   9.335  0.4048  0.6070 -1.1209
  111OSM   H14T11516   5.654   2.882   9.314 -1.1428  0.9129 -0.5852
  111OSM   C15S11517   5.833   3.008   9.280  0.1399 -1.0510  0.3060
  111OSM   H15S11518   5.895   2.918   9.303  0.6083 -0.5510  1.0322
  111OSM   H15T11519   5.876   3.095   9.334  1.2414 -1.6952  0.4947
  111OSM   C16S11520   5.815   3.028   9.130 -0.4224  0.4385  0.2781
  111OSM   H16S11521   5.734   3.098   9.099 -2.3807 -2.4278 -1.4908
  111OSM   H16T11522   5.787   2.930   9.085  2.4618 -0.7135  0.7448
  111OSM   C17S11523   5.951   3.063   9.059 -0.4678 -0.4849  0.7218
  111OSM   H17S11524   6.018   2.976   9.077 -1.1115 -1.2061 -0.2779
  111OSM   H17T11525   5.993   3.153   9.110  1.6427  0.0274 -1.6956
  111OSM   C18S11526   5.931   3.077   8.906  0.4298  0.4201 -0.0389
  111OSM   H18S11527   5.877   2.990   8.864  0.1437  1.2523 -1.4518
  111OSM   H18T11528   6.031   3.071   8.857 -0.5594 -0.5543 -2.0548
  111OSM   H18U11529   5.891   3.178   8.882  2.9131  1.3993 -0.3651
  111OSM    C1F11530   5.766   2.396  10.588 -0.4155 -0.3950  0.1832
  111OSM     OF11531   5.676   2.333  10.643  0.6699  0.7998  0.2299
  111OSM    C2F11532   5.894   2.323  10.542 -0.3254 -0.1801 -0.4626
  111OSM    H2F11533   5.942   2.271  10.628 -1.2966 -1.3306 -0.5860
  111OSM    H2G11534   5.960   2.401  10.498 -2.5080  1.3964 -1.0531
  111OSM    C3F11535   5.868   2.226  10.429  0.4458 -0.1198 -0.7163
  111OSM    H3F11536   5.815   2.288  10.354 -0.0066  2.2039  1.3814
  111OSM    H3G11537   5.790   2.160  10.472 -1.2908  1.6610 -0.9849
  111OSM    C4F11538   5.995   2.156  10.381 -0.1442 -0.2951  0.0590
  111OSM    H4F11539   6.039   2.102  10.467  1.3005  0.0366 -0.4373
  111OSM    H4G11540   6.078   2.226  10.357 -0.8994  1.0065  1.1043
  111OSM    C5F11541   5.970   2.055  10.268 -0.5174 -0.1360 -0.1129
  111OSM    H5F11542   5.867   2.012  10.275 -0.8958  0.1949 -2.7236
  111OSM    H5G11543   6.046   1.975  10.278 -0.6179 -0.1174  0.9457
  111OSM    C6F11544   5.981   2.115  10.129 -0.5783 -0.6123 -0.2711
  111OSM    H6F11545   5.892   2.178  10.105 -0.7575 -0.5935  0.4257
  111OSM    H6G11546   5.980   2.032  10.055 -1.6597  0.8411 -1.9690
  111OSM    C7F11547   6.108   2.201  10.117 -0.4258  0.8116 -0.9398
  111OSM    H7F11548   6.195   2.155  10.168 -1.4151  0.3087  0.3789
  111OSM    H7G11549   6.093   2.292  10.179 -4.4912  1.1376 -2.1212
  111OSM    C8F11550   6.140   2.247   9.976  0.8848  0.0217 -0.4171
  111OSM    H8F11551   6.169   2.150   9.928  0.9775  0.1359 -0.5946
  111OSM    H8G11552   6.226   2.316   9.993  0.2791  0.7849 -0.4152
  111OSM    C9F11553   6.023   2.305   9.902  0.3424  0.1537 -0.1085
  111OSM    H9F11554   5.956   2.363   9.966 -1.5280 -1.9022 -0.0946
  111OSM   C10F11555   5.994   2.289   9.771  1.1288  0.2583 -0.1073
  111OSM   H10F11556   5.901   2.342   9.742  1.8993  1.3245 -0.7011
  111OSM   C11F11557   6.046   2.209   9.664 -0.0334 -1.1756  0.7036
  111OSM   H11F11558   5.965   2.143   9.625 -0.6721  0.2881 -0.5515
  111OSM   H11G11559   6.130   2.144   9.694  3.5903  1.6743 -2.3193
  111OSM   C12F11560   6.102   2.306   9.559 -0.0214 -0.5294 -0.4872
  111OSM   H12F11561   6.180   2.371   9.604  1.3848 -1.2587 -1.7687
  111OSM   H12G11562   6.028   2.368   9.504 -1.9411 -0.0690  2.3773
  111OSM   C13F11563   6.183   2.225   9.456  0.6570  0.4613 -0.3989
  111OSM   H13F11564   6.147   2.121   9.449  1.1698  0.2398  0.2311
  111OSM   H13G11565   6.281   2.219   9.509  2.0049  0.4356 -2.7216
  111OSM   C14F11566   6.194   2.283   9.316 -1.1022 -0.3951  0.3025
  111OSM   H14F11567   6.271   2.232   9.253 -1.4501 -2.7391  1.6712
  111OSM   H14G11568   6.229   2.388   9.326  0.7482 -0.7170 -1.9876
  111OSM   C15F11569   6.063   2.267   9.242 -0.9703  0.1222  0.2664
  111OSM   H15F11570   5.982   2.321   9.296 -0.3498  2.5725 -1.0903
  111OSM   H15G11571   6.038   2.160   9.230 -1.4848  0.4448 -1.8986
  111OSM   C16F11572   6.080   2.339   9.107  0.4868 -0.0313  0.0328
  111OSM   H16F11573   6.155   2.281   9.049  1.0045 -1.7536  2.3174
  111OSM   H16G11574   6.130   2.438   9.115 -0.0297  0.4150 -1.7289
  111OSM   C17F11575   5.950   2.348   9.026 -0.9519 -0.1061 -0.0455
  111OSM   H17F11576   5.889   2.428   9.073  0.8070  3.3108 -3.0792
  111OSM   H17G11577   5.904   2.248   9.038  2.3381 -1.5860  1.4785
  111OSM   C18F11578   5.971   2.382   8.877  0.7864  0.0006 -0.3095
  111OSM   H18F11579   5.873   2.355   8.831 -0.3606  1.6377  1.0206
  111OSM   H18G11580   6.057   2.319   8.848 -0.5761 -2.0515 -0.1082
  111OSM   H18H11581   6.000   2.488   8.859 -0.6665  0.2516 -1.3948
  112OSM      N11582   0.859   2.342  11.132  0.6206  0.0517  0.1906
  112OSM    C1511583   0.738   2.395  11.199  0.2251 -0.0409 -0.6512
  112OSM   H15A11584   0.762   2.402  11.304 -1.6286  0.3067 -0.2193
  112OSM   H15B11585   0.658   2.323  11.198 -0.1957  0.4023  0.3378
  112OSM   H15C11586   0.708   2.488  11.153  0.6262  0.7747  0.6628
  112OSM    C1411587   0.938   2.242  11.220  0.0211 -1.0568  0.0636
  112OSM   H14A11588   0.881   2.153  11.241  0.9954 -1.3623  1.6001
  112OSM   H14B11589   0.973   2.285  11.313  1.0471  1.5592 -1.4301
  112OSM   H14C11590   1.031   2.222  11.170  0.4113  2.0154 -0.6865
  112OSM    C1311591   0.803   2.267  11.017  0.5744  0.4822  0.2201
  112OSM   H13A11592   0.767   2.337  10.943 -1.5608 -0.6688  0.1121
  112OSM   H13B11593   0.729   2.192  11.037  1.6899 -0.4655  0.9567
  112OSM   H13C11594   0.882   2.210  10.971 -0.1642  0.4444 -1.0302
  112OSM    C1211595   0.946   2.461  11.078 -0.5874 -0.4499 -0.2430
  112OSM   H12A11596   0.969   2.526  11.161  1.5193 -0.0505 -1.0716
  112OSM   H12B11597   0.890   2.519  11.006 -1.0896 -0.4672  0.1323
  112OSM    C1111598   1.086   2.424  11.011  0.8425  0.3914 -0.4628
  112OSM   H11A11599   1.134   2.524  10.999  1.5797  0.2668  1.1187
  112OSM   H11B11600   1.063   2.383  10.911 -1.5469 -0.4866  0.3828
  112OSM      P11601   1.318   2.315  11.039  0.5323  0.4542  0.1188
  112OSM    O1311602   1.388   2.443  11.049  0.1172 -0.7736 -0.7723
  112OSM    O1411603   1.368   2.205  11.120 -0.9451 -0.6926  0.2540
  112OSM    O1111604   1.306   2.267  10.893  0.3318  0.0758  0.1523
  112OSM    O1211605   1.169   2.348  11.093  0.2228  0.3654 -1.1223
  112OSM    C1S11606   1.224   2.172  10.831 -0.3914  0.2247 -0.4661
  112OSM    H1S11607   1.127   2.163  10.884  0.3041 -2.8675  0.4973
  112OSM    H1T11608   1.272   2.072  10.831 -1.6831 -0.4583  1.7518
  112OSM     NF11609   1.095   2.105  10.607 -0.4643 -0.7034  0.4712
  112OSM    HNF11610   1.121   2.062  10.522 -1.8407  1.4327 -1.1468
  112OSM    C2S11611   1.193   2.200  10.667 -0.0628 -0.8111 -0.3134
  112OSM    H2S11612   1.140   2.296  10.652  0.6425 -0.6480 -2.0229
  112OSM    C3S11613   1.333   2.214  10.596 -0.6519 -0.8731  0.4284
  112OSM    H3S11614   1.389   2.123  10.627 -1.6792 -1.3755  0.8772
  112OSM     O311615   1.414   2.320  10.651  0.5645  0.0747  0.9068
  112OSM    HO311616   1.382   2.309  10.740 -1.3679 -1.0100  0.1428
  112OSM    C4S11617   1.322   2.225  10.446 -0.1800 -0.4163 -0.4499
  112OSM    H4S11618   1.279   2.318  10.405 -3.5586 -1.7154 -0.1819
  112OSM    C5S11619   1.366   2.134  10.357 -0.7212 -0.7043 -0.5281
  112OSM    H5S11620   1.421   2.052  10.405 -0.3576  0.6417  1.4700
  112OSM    C6S11621   1.370   2.146  10.204  0.1541 -0.2334  1.4810
  112OSM    H6S11622   1.284   2.095  10.157  0.3368  1.8923 -1.4645
  112OSM    H6T11623   1.467   2.113  10.160  0.5132 -0.4990  2.4521
  112OSM    C7S11624   1.367   2.297  10.149  0.2581  0.7520 -0.3827
  112OSM    H7S11625   1.455   2.353  10.186  0.6687  0.2186 -0.5393
  112OSM    H7T11626   1.282   2.351  10.195 -0.1406 -0.1820  0.0123
  112OSM    C8S11627   1.347   2.310  10.001 -0.1730 -0.0086 -0.6325
  112OSM    H8S11628   1.298   2.400   9.959 -1.5670 -1.9249 -3.4508
  112OSM    H8T11629   1.274   2.230   9.975 -2.7114  1.3808  1.6818
  112OSM    C9S11630   1.471   2.285   9.915  0.7309  0.3566 -0.2517
  112OSM    H9S11631   1.553   2.342   9.965  1.2255 -0.2296 -0.3773
  112OSM    H9T11632   1.449   2.323   9.813 -0.4641 -1.4354 -0.6926
  112OSM   C10S11633   1.507   2.142   9.883  0.8037 -0.4863  0.7446
  112OSM   H10S11634   1.408   2.095   9.869  0.2407  1.0009 -0.6081
  112OSM   H10T11635   1.563   2.094   9.966  3.1243  0.1301 -0.3868
  112OSM   C11S11636   1.605   2.128   9.764 -0.3204  0.0962  0.5203
  112OSM   H11S11637   1.570   2.186   9.677  1.5368 -1.1535 -1.1365
  112OSM   H11T11638   1.599   2.024   9.726  0.4592  0.5632 -0.9217
  112OSM   C12S11639   1.746   2.175   9.787  0.3299  0.0138  1.0168
  112OSM   H12S11640   1.809   2.111   9.852  1.0824 -1.5672 -1.1393
  112OSM   H12T11641   1.746   2.277   9.830 -1.0689 -0.4471  2.1731
  112OSM   C13S11642   1.815   2.194   9.645 -0.1502  0.4072 -0.5737
  112OSM   H13S11643   1.754   2.256   9.576  1.1288  0.6956 -1.4728
  112OSM   H13T11644   1.822   2.094   9.598 -2.3805 -0.3518  0.5298
  112OSM   C14S11645   1.957   2.255   9.675  0.9149  0.2700  0.4117
  112OSM   H14S11646   1.942   2.322   9.762 -0.0308  1.7322 -0.8292
  112OSM   H14T11647   1.981   2.326   9.593 -3.3740 -0.4400 -1.7805
  112OSM   C15S11648   2.062   2.148   9.701 -0.0516 -0.2645  0.4045
  112OSM   H15S11649   2.078   2.076   9.617  2.0592 -0.1321  0.6580
  112OSM   H15T11650   2.025   2.079   9.781  0.2417 -0.6961  0.1738
  112OSM   C16S11651   2.187   2.210   9.764  0.2329 -0.0537  0.7948
  112OSM   H16S11652   2.159   2.241   9.867 -1.4953 -0.3395  0.4474
  112OSM   H16T11653   2.207   2.303   9.707 -1.5630 -0.3184 -0.3620
  112OSM   C17S11654   2.298   2.110   9.775 -0.3485 -0.4311  0.2229
  112OSM   H17S11655   2.254   2.022   9.826 -1.3104  0.0524  0.2557
  112OSM   H17T11656   2.373   2.150   9.846  0.1856 -1.3246  0.1754
  112OSM   C18S11657   2.370   2.088   9.643 -0.3914  0.3480 -0.0583
  112OSM   H18S11658   2.443   2.005   9.648  1.4499  1.7651 -1.7292
  112OSM   H18T11659   2.416   2.182   9.605 -1.0531  1.1677  1.0781
  112OSM   H18U11660   2.293   2.060   9.568 -2.5332  0.4030  2.0085
  112OSM    C1F11661   0.973   2.098  10.643 -0.1888 -0.2873  0.6413
  112OSM     OF11662   0.925   2.188  10.707  0.2233  0.0203 -0.0620
  112OSM    C2F11663   0.890   1.977  10.606 -0.6580  0.1118  0.1769
  112OSM    H2F11664   0.851   1.948  10.706  0.6248  2.9623  1.6110
  112OSM    H2G11665   0.948   1.897  10.555 -4.0095 -1.5960 -1.2421
  112OSM    C3F11666   0.762   2.016  10.515 -0.4442 -0.0431  0.1868
  112OSM    H3F11667   0.705   2.099  10.561 -0.9043  0.0656 -0.5519
  112OSM    H3G11668   0.693   1.931  10.496  1.5618 -1.5051 -0.8960
  112OSM    C4F11669   0.793   2.068  10.370  0.1384 -0.4640 -0.2135
  112OSM    H4F11670   0.849   1.986  10.320  0.6508 -0.1377 -0.1794
  112OSM    H4G11671   0.863   2.153  10.380  1.7524 -1.8119  0.3495
  112OSM    C5F11672   0.656   2.080  10.297  0.1687 -0.3185 -0.8123
  112OSM    H5F11673   0.598   2.167  10.335  1.1397 -0.6783  1.7367
  112OSM    H5G11674   0.590   1.995  10.327  0.1630 -0.2907 -0.7461
  112OSM    C6F11675   0.674   2.093  10.148  0.1756 -0.0105 -0.3668
  112OSM    H6F11676   0.638   2.001  10.097  1.1694 -2.0087  2.2942
  112OSM    H6G11677   0.782   2.104  10.125  0.0994  0.2185 -0.6242
  112OSM    C7F11678   0.607   2.217  10.095  0.2304  0.2713  0.0387
  112OSM    H7F11679   0.648   2.305  10.148  3.4498 -1.5626  0.8755
  112OSM    H7G11680   0.500   2.219  10.125  0.5683  1.0411  1.2569
  112OSM    C8F11681   0.623   2.226   9.947  0.2626 -0.0305  0.5235
  112OSM    H8F11682   0.557   2.149   9.902  0.8104  1.1536 -2.5839
  112OSM    H8G11683   0.725   2.207   9.907  0.4356 -1.4641  1.5596
  112OSM    C9F11684   0.578   2.364   9.892 -0.4535  0.2086 -0.5315
  112OSM    H9F11685   0.528   2.427   9.967  0.8634  0.6725 -0.0003
  112OSM   C10F11686   0.593   2.419   9.770 -0.1597 -0.1023  0.6663
  112OSM   H10F11687   0.553   2.519   9.747 -2.1633 -0.9891  0.0894
  112OSM   C11F11688   0.663   2.352   9.654 -0.4702  0.7719 -0.6365
  112OSM   H11F11689   0.613   2.256   9.628  0.4585  0.4061 -1.1532
  112OSM   H11G11690   0.763   2.323   9.694 -1.4229 -0.5569  0.9177
  112OSM   C12F11691   0.663   2.439   9.531  0.4382  0.2234 -0.3623
  112OSM   H12F11692   0.712   2.537   9.547  0.7217  0.3088 -1.6245
  112OSM   H12G11693   0.558   2.463   9.503  0.6677  1.0090 -0.5628
  112OSM   C13F11694   0.731   2.366   9.419 -0.3804  0.3321  0.0589
  112OSM   H13F11695   0.686   2.269   9.392  1.0826 -0.4876  0.4774
  112OSM   H13G11696   0.840   2.356   9.439 -0.4053 -0.3572 -0.1473
  112OSM   C14F11697   0.744   2.442   9.286  0.8158  0.0804 -0.3345
  112OSM   H14F11698   0.802   2.536   9.295 -0.5175  1.0471 -1.6175
  112OSM   H14G11699   0.649   2.462   9.233  2.3756 -0.4403 -3.5375
  112OSM   C15F11700   0.815   2.365   9.173 -0.5000  0.0559  0.3509
  112OSM   H15F11701   0.756   2.274   9.148 -0.2200  0.3545 -1.5721
  112OSM   H15G11702   0.916   2.334   9.207 -0.7929 -1.0105  0.3036
  112OSM   C16F11703   0.844   2.438   9.043 -0.0413 -0.0597 -0.2088
  112OSM   H16F11704   0.870   2.368   8.960  1.5963  1.3879 -0.9857
  112OSM   H16G11705   0.925   2.513   9.054 -1.1125  0.8757  1.6483
  112OSM   C17F11706   0.721   2.517   8.981 -1.2380 -0.3218 -1.0441
  112OSM   H17F11707   0.699   2.596   9.056  0.0848 -1.2554  0.3834
  112OSM   H17G11708   0.636   2.446   8.983 -0.3491 -1.5439  3.3034
  112OSM   C18F11709   0.744   2.578   8.852  0.2044 -0.5663 -0.0260
  112OSM   H18F11710   0.727   2.511   8.765  2.0661 -2.1898  0.7790
  112OSM   H18G11711   0.850   2.612   8.848  0.4360 -1.2851 -0.2449
  112OSM   H18H11712   0.679   2.667   8.841  0.3807 -0.3297  0.7552
  113OSM      N11713   3.699   5.534  11.086 -0.0477 -0.5965  0.2213
  113OSM    C1511714   3.659   5.594  11.214  0.6721 -0.8167 -0.4037
  113OSM   H15A11715   3.572   5.550  11.260 -0.3480  2.6433  1.3340
  113OSM   H15B11716   3.621   5.691  11.185 -0.1143 -0.9965 -0.0059
  113OSM   H15C11717   3.733   5.616  11.289  1.7640 -0.1828 -1.6292
  113OSM    C1411718   3.786   5.635  11.015  0.2225 -0.2604 -0.0918
  113OSM   H14A11719   3.817   5.609  10.915 -1.0207 -1.0135 -0.3009
  113OSM   H14B11720   3.871   5.653  11.079  0.0205  1.2712 -0.2209
  113OSM   H14C11721   3.732   5.728  11.002  0.3439 -0.3823 -1.6659
  113OSM    C1311722   3.787   5.415  11.099 -0.9624  0.3982  0.3815
  113OSM   H13A11723   3.816   5.372  11.004  2.1469 -0.3137  1.5569
  113OSM   H13B11724   3.750   5.330  11.154  1.1523 -0.3032  0.8228
  113OSM   H13C11725   3.877   5.433  11.156 -1.1843 -0.6262  1.0658
  113OSM    C1211726   3.574   5.504  11.006 -0.2359 -0.2468 -0.0101
  113OSM   H12A11727   3.509   5.450  11.073 -1.0211  0.6210 -0.0441
  113OSM   H12B11728   3.610   5.434  10.933  3.9933  0.4716  1.1230
  113OSM    C1111729   3.501   5.622  10.938  0.5777  0.3224 -0.8429
  113OSM   H11A11730   3.430   5.577  10.866 -0.4043 -1.1963  0.9707
  113OSM   H11B11731   3.568   5.685  10.875  0.6956  0.0867 -0.9524
  113OSM      P11732   3.383   5.842  10.984  0.1173 -0.6002 -0.0515
  113OSM    O1311733   3.279   5.883  11.082  0.3839  0.0548  0.5049
  113OSM    O1411734   3.502   5.925  10.974  0.5208 -0.6560  0.0496
  113OSM    O1111735   3.320   5.825  10.841  0.2682 -0.2869  0.1090
  113OSM    O1211736   3.425   5.700  11.031 -0.2150  0.5986 -0.1332
  113OSM    C1S11737   3.368   5.843  10.710 -0.2034  0.0646 -0.4643
  113OSM    H1S11738   3.443   5.764  10.683 -1.3991 -1.0079 -0.7509
  113OSM    H1T11739   3.417   5.942  10.695  2.5117 -0.9081  1.2065
  113OSM     NF11740   3.311   5.911  10.491  1.2113  0.2078  0.2636
  113OSM    HNF11741   3.306   6.011  10.495 -0.1765  0.3241 -2.1042
  113OSM    C2S11742   3.256   5.835  10.604 -0.4616 -0.1464 -0.3740
  113OSM    H2S11743   3.232   5.727  10.591  0.5418 -0.1583 -2.4060
  113OSM    C3S11744   3.123   5.894  10.665 -0.5997 -0.0607 -0.2640
  113OSM    H3S11745   3.136   6.002  10.687 -0.7169  0.0060 -0.5151
  113OSM     O311746   3.073   5.845  10.790  0.0188 -0.5634  0.2457
  113OSM    HO311747   3.152   5.804  10.826  0.8176  0.0981 -0.6927
  113OSM    C4S11748   3.017   5.893  10.560 -0.1557  0.3669  0.1083
  113OSM    H4S11749   3.008   5.978  10.491 -1.9122 -0.9614 -1.3945
  113OSM    C5S11750   2.921   5.800  10.539  0.7105 -0.0019 -0.0507
  113OSM    H5S11751   2.915   5.714  10.608  0.8041 -0.5123 -0.6793
  113OSM    C6S11752   2.809   5.809  10.437 -0.2578  0.2072  0.0840
  113OSM    H6S11753   2.802   5.917  10.411 -0.0979  0.1329 -0.2699
  113OSM    H6T11754   2.706   5.787  10.474 -0.1032  0.3807  0.6310
  113OSM    C7S11755   2.826   5.734  10.307 -0.3351 -0.7453  0.1845
  113OSM    H7S11756   2.730   5.748  10.253 -0.2611  1.4066  0.5333
  113OSM    H7T11757   2.850   5.626  10.318  1.4229 -0.3891  0.1459
  113OSM    C8S11758   2.935   5.789  10.218 -0.5186  0.1001 -0.9239
  113OSM    H8S11759   3.037   5.777  10.261 -1.2863 -0.3012  0.8650
  113OSM    H8T11760   2.927   5.900  10.215 -3.2063 -0.0345 -1.2665
  113OSM    C9S11761   2.941   5.723  10.079 -0.1293 -0.2317 -0.2647
  113OSM    H9S11762   2.935   5.612  10.084 -2.3356 -0.1484 -0.0715
  113OSM    H9T11763   3.039   5.745  10.032  0.3036  0.1364  0.7869
  113OSM   C10S11764   2.828   5.773   9.982 -0.0761  0.1219 -0.7163
  113OSM   H10S11765   2.838   5.884   9.979  1.2300  0.0000 -2.5470
  113OSM   H10T11766   2.730   5.758  10.033 -0.2148  1.7158 -0.4723
  113OSM   C11S11767   2.830   5.718   9.838 -0.8004 -0.3917 -0.4357
  113OSM   H11S11768   2.754   5.769   9.776  0.0058  2.0264  0.4611
  113OSM   H11T11769   2.812   5.609   9.850  1.9347 -0.8716  0.1096
  113OSM   C12S11770   2.950   5.734   9.750 -0.3609  0.4058 -0.3024
  113OSM   H12S11771   3.040   5.700   9.806 -0.0519  2.0133  0.2327
  113OSM   H12T11772   2.957   5.841   9.721 -1.7186  0.3413 -0.9483
  113OSM   C13S11773   2.940   5.647   9.624 -0.1428 -0.6194  0.3185
  113OSM   H13S11774   2.861   5.571   9.642 -0.6042 -0.1259  0.4089
  113OSM   H13T11775   3.042   5.607   9.605  1.1557  2.4083  0.3787
  113OSM   C14S11776   2.906   5.722   9.497 -0.2607 -0.3371 -0.6768
  113OSM   H14S11777   2.979   5.801   9.468  1.1971 -1.0897  0.7587
  113OSM   H14T11778   2.806   5.770   9.494 -0.5236 -0.9195 -1.8294
  113OSM   C15S11779   2.919   5.628   9.380  0.3033  0.4324  0.3027
  113OSM   H15S11780   2.857   5.538   9.398  1.7216 -0.3783  1.3771
  113OSM   H15T11781   3.024   5.595   9.366  0.4350  0.2863  1.5426
  113OSM   C16S11782   2.852   5.685   9.245 -0.8710  0.5424 -0.0046
  113OSM   H16S11783   2.908   5.656   9.154 -0.4975  0.0287  0.3788
  113OSM   H16T11784   2.854   5.796   9.240 -1.1113  0.6319  1.4085
  113OSM   C17S11785   2.713   5.644   9.228 -0.2073  0.7340 -1.2855
  113OSM   H17S11786   2.685   5.686   9.129 -0.4562 -0.1309 -1.5972
  113OSM   H17T11787   2.657   5.684   9.315  1.4954  0.6310 -0.0716
  113OSM   C18S11788   2.674   5.492   9.223 -0.1704 -0.0271 -0.5856
  113OSM   H18S11789   2.574   5.482   9.177  1.3828 -1.6868 -3.9671
  113OSM   H18T11790   2.687   5.469   9.331  0.8052  2.2138 -0.1638
  113OSM   H18U11791   2.746   5.428   9.168  1.0037 -2.0783  2.9959
  113OSM    C1F11792   3.360   5.850  10.384 -0.3458 -0.6438  0.0856
  113OSM     OF11793   3.377   5.728  10.382  0.5163  0.1709  0.4940
  113OSM    C2F11794   3.398   5.939  10.270 -0.5109  0.4720 -0.2937
  113OSM    H2F11795   3.508   5.940  10.262 -0.4823  0.8150  0.1109
  113OSM    H2G11796   3.370   6.046  10.284  0.0778  0.6918 -0.7643
  113OSM    C3F11797   3.333   5.887  10.138  0.8619  0.3764 -0.1475
  113OSM    H3F11798   3.222   5.884  10.141  0.8901 -0.6798  0.0647
  113OSM    H3G11799   3.364   5.784  10.111 -0.9427 -0.1536 -0.3443
  113OSM    C4F11800   3.376   5.972  10.013  0.9341  0.0502  0.1764
  113OSM    H4F11801   3.486   5.969   9.995  0.7818  1.5426 -1.2204
  113OSM    H4G11802   3.347   6.077  10.037 -1.3767  0.1309 -2.4869
  113OSM    C5F11803   3.302   5.923   9.884 -0.2951 -0.2516  0.9835
  113OSM    H5F11804   3.194   5.941   9.901 -0.6930 -2.5400  1.1935
  113OSM    H5G11805   3.302   5.812   9.878  2.0284 -0.2807  0.3640
  113OSM    C6F11806   3.358   5.992   9.755 -0.5866  0.2463 -0.7184
  113OSM    H6F11807   3.464   5.979   9.723 -0.6389  1.5209 -1.4891
  113OSM    H6G11808   3.350   6.099   9.782  2.4951  0.6064 -0.8880
  113OSM    C7F11809   3.257   5.966   9.638  1.2743 -0.1077 -0.2449
  113OSM    H7F11810   3.155   5.991   9.675  0.6016 -0.8202 -1.5802
  113OSM    H7G11811   3.262   5.859   9.609  0.0355 -0.4167  0.5928
  113OSM    C8F11812   3.297   6.053   9.513  0.5537 -0.0754  0.3908
  113OSM    H8F11813   3.386   6.005   9.467 -0.4216  0.0411 -1.7823
  113OSM    H8G11814   3.321   6.152   9.558 -2.2436 -0.2566  2.5522
  113OSM    C9F11815   3.188   6.052   9.414  0.5431 -0.5403  0.1367
  113OSM    H9F11816   3.174   5.959   9.357 -0.2115  0.1564 -0.8327
  113OSM   C10F11817   3.115   6.151   9.365 -0.9468  0.6044  0.8917
  113OSM   H10F11818   3.028   6.124   9.304 -1.3341  0.4800  1.4881
  113OSM   C11F11819   3.114   6.297   9.397 -0.0302  0.4948  0.3492
  113OSM   H11F11820   3.117   6.361   9.306  2.0388 -2.0983 -1.5866
  113OSM   H11G11821   3.202   6.323   9.459  0.2355  1.2802 -0.3410
  113OSM   C12F11822   2.990   6.321   9.485  0.1205 -0.2047  0.1580
  113OSM   H12F11823   2.891   6.296   9.442 -1.0945 -0.2289  2.7790
  113OSM   H12G11824   2.992   6.431   9.497 -2.0095 -0.0991 -0.1034
  113OSM   C13F11825   2.993   6.257   9.624  0.4062 -0.0205 -0.2601
  113OSM   H13F11826   3.096   6.250   9.664  0.1681 -1.1885  0.2135
  113OSM   H13G11827   2.947   6.156   9.615  0.9984 -0.2107 -1.2153
  113OSM   C14F11828   2.912   6.346   9.733  0.2321  0.2798  0.5956
  113OSM   H14F11829   2.826   6.383   9.674  0.2294  1.1305  1.1200
  113OSM   H14G11830   2.965   6.431   9.781  0.4872 -0.7193  2.1854
  113OSM   C15F11831   2.860   6.256   9.846 -0.3378 -0.1842  0.1166
  113OSM   H15F11832   2.827   6.154   9.818 -0.8097 -0.2100  0.7419
  113OSM   H15G11833   2.775   6.305   9.897 -0.9189 -2.8097  1.8295
  113OSM   C16F11834   2.981   6.231   9.951  0.1583  0.7323  0.1014
  113OSM   H16F11835   3.041   6.323   9.969  1.9829 -0.2449 -0.7606
  113OSM   H16G11836   3.044   6.162   9.891  2.0034  2.7487 -0.3945
  113OSM   C17F11837   2.925   6.183  10.082 -0.1481 -0.6685  0.2845
  113OSM   H17F11838   2.859   6.094  10.083  0.0151 -0.7940  0.0759
  113OSM   H17G11839   2.853   6.258  10.121 -0.7916 -0.0492 -1.9473
  113OSM   C18F11840   3.034   6.161  10.180  0.4614 -0.0689  0.1668
  113OSM   H18F11841   3.105   6.085  10.142 -1.8925 -1.3846 -1.8970
  113OSM   H18G11842   2.999   6.122  10.278  1.0544  1.8102  1.1831
  113OSM   H18H11843   3.093   6.252  10.206  0.1605 -0.0081  0.6434
  114OSM      N11844   5.887   0.696  11.062  0.3757  0.3319  0.1926
  114OSM    C1511845   5.914   0.561  11.121 -0.2668  0.3708  0.2794
  114OSM   H15A11846   5.978   0.501  11.058  0.0367 -0.4546  1.3287
  114OSM   H15B11847   5.819   0.510  11.126  0.9935 -2.2092  0.0358
  114OSM   H15C11848   5.950   0.567  11.223 -1.3570 -1.4141  0.8214
  114OSM    C1411849   5.807   0.672  10.935 -0.0754  0.0187 -0.0594
  114OSM   H14A11850   5.862   0.608  10.867 -1.4810 -2.3714  0.8908
  114OSM   H14B11851   5.796   0.766  10.884  0.6384  0.1714  0.0597
  114OSM   H14C11852   5.710   0.624  10.943  1.4462 -3.2688  0.7039
  114OSM    C1311853   5.804   0.773  11.162  0.1457  1.1111  0.7690
  114OSM   H13A11854   5.787   0.869  11.115  0.1553 -0.0221 -1.7211
  114OSM   H13B11855   5.859   0.791  11.253  1.1890  3.6323 -0.2783
  114OSM   H13C11856   5.717   0.715  11.187  1.5254 -1.0336  0.8760
  114OSM    C1211857   6.030   0.753  11.039  0.2385  0.4599  0.1394
  114OSM   H12A11858   6.083   0.675  10.986  0.4516  2.1420 -2.2550
  114OSM   H12B11859   6.074   0.767  11.136  0.1070  0.2951  0.2222
  114OSM    C1111860   6.043   0.882  10.950  0.1047 -0.0977 -0.7053
  114OSM   H11A11861   6.014   0.853  10.847 -0.1712  1.6211 -1.1534
  114OSM   H11B11862   6.148   0.918  10.943 -0.5234  1.5669 -2.7160
  114OSM      P11863   6.000   1.115  11.054  0.1463 -0.4591 -0.1875
  114OSM    O1311864   5.904   1.163  11.156 -0.6226  0.1256 -0.3163
  114OSM    O1411865   6.132   1.089  11.110  0.1217 -0.0267 -0.0519
  114OSM    O1111866   6.009   1.223  10.933  0.0080  0.3561  0.9122
  114OSM    O1211867   5.946   0.984  10.991  0.1024 -0.4319  0.3834
  114OSM    C1S11868   6.113   1.219  10.834  0.1418 -0.0242 -0.5658
  114OSM    H1S11869   6.185   1.139  10.862 -1.4026 -1.2118  0.1663
  114OSM    H1T11870   6.159   1.320  10.834 -0.7058  0.3769 -1.7038
  114OSM     NF11871   6.176   1.196  10.590  0.7267 -0.2793  0.2000
  114OSM    HNF11872   6.175   1.263  10.515 -1.2408 -0.4991 -0.0250
  114OSM    C2S11873   6.064   1.189  10.683  0.2231  0.2136  0.3576
  114OSM    H2S11874   6.027   1.084  10.680  1.2131 -0.2116  1.7506
  114OSM    C3S11875   5.951   1.293  10.646  0.7848  0.2376 -0.1847
  114OSM    H3S11876   5.988   1.398  10.644  0.3809  0.3864  0.0556
  114OSM     O311877   5.831   1.290  10.734  0.1125 -0.3387  0.1607
  114OSM    HO311878   5.866   1.245  10.811 -0.7212  1.1056  1.4225
  114OSM    C4S11879   5.904   1.270  10.502  1.6601  0.9268 -0.3792
  114OSM    H4S11880   5.986   1.301  10.436  3.4282  1.7474  2.0820
  114OSM    C5S11881   5.783   1.234  10.448  0.0080 -0.4914  0.3105
  114OSM    H5S11882   5.696   1.238  10.515  0.1625 -0.1279  0.4973
  114OSM    C6S11883   5.747   1.222  10.299 -0.9372  0.5781 -0.8446
  114OSM    H6S11884   5.648   1.271  10.286  0.7020  3.9485 -1.4855
  114OSM    H6T11885   5.735   1.113  10.282  0.9442 -0.5880  3.6954
  114OSM    C7S11886   5.842   1.278  10.183 -0.2904 -0.1721  0.0192
  114OSM    H7S11887   5.935   1.218  10.175  0.3090  0.6446  0.5715
  114OSM    H7T11888   5.879   1.379  10.212 -1.7288  1.0946 -2.2227
  114OSM    C8S11889   5.784   1.297  10.047  0.5399 -0.3063  0.0364
  114OSM    H8S11890   5.694   1.363  10.041  1.4530  0.8801 -1.7125
  114OSM    H8T11891   5.744   1.199  10.012 -3.0204  0.7659  0.7286
  114OSM    C9S11892   5.885   1.338   9.943 -0.7314  0.3817 -0.1437
  114OSM    H9S11893   5.976   1.274   9.940  0.4276  1.9596  0.4850
  114OSM    H9T11894   5.929   1.437   9.967  0.7938 -0.0610 -0.9607
  114OSM   C10S11895   5.817   1.341   9.807  0.3612  0.0989 -0.0049
  114OSM   H10S11896   5.731   1.409   9.788  2.0460  2.1496 -0.6319
  114OSM   H10T11897   5.764   1.244   9.797  2.2857 -1.3713  2.8318
  114OSM   C11S11898   5.912   1.346   9.692 -0.0456  0.0647  0.6608
  114OSM   H11S11899   5.981   1.260   9.705  2.3641  1.5186 -1.5874
  114OSM   H11T11900   5.978   1.435   9.688 -0.8342  0.6490 -2.7336
  114OSM   C12S11901   5.841   1.326   9.556 -0.9965 -0.6774  1.3996
  114OSM   H12S11902   5.776   1.412   9.531 -1.1770 -1.5410 -1.5221
  114OSM   H12T11903   5.782   1.232   9.562 -0.4493 -1.2771 -1.1265
  114OSM   C13S11904   5.955   1.296   9.443 -0.0586 -0.8823  0.1113
  114OSM   H13S11905   6.020   1.216   9.483  1.1318  2.1720  5.1870
  114OSM   H13T11906   6.016   1.388   9.434 -1.3098 -0.1260 -1.0648
  114OSM   C14S11907   5.898   1.263   9.310  0.3681  0.4238  0.6539
  114OSM   H14S11908   5.856   1.357   9.268 -0.8088 -0.3099  0.1319
  114OSM   H14T11909   5.819   1.186   9.325 -0.9429  1.6227  0.1706
  114OSM   C15S11910   5.998   1.197   9.212 -0.0939 -0.6161 -0.0610
  114OSM   H15S11911   6.017   1.100   9.263  1.6637  0.9205  2.3683
  114OSM   H15T11912   6.087   1.263   9.210 -1.3051  1.0636 -0.8122
  114OSM   C16S11913   5.944   1.182   9.072 -0.4753 -0.3588  0.2200
  114OSM   H16S11914   5.916   1.280   9.026 -0.3809 -0.0323  0.8522
  114OSM   H16T11915   5.851   1.122   9.074  0.1048 -1.6371 -3.4349
  114OSM   C17S11916   6.050   1.140   8.972  0.2495  0.0757 -0.7215
  114OSM   H17S11917   6.050   1.029   8.984  0.9494  0.1137 -0.3423
  114OSM   H17T11918   6.150   1.184   8.993 -0.9602  1.8135  1.9481
  114OSM   C18S11919   6.019   1.175   8.827  0.4120  0.0153 -0.3022
  114OSM   H18S11920   6.088   1.116   8.762  2.0754  2.2177 -0.6515
  114OSM   H18T11921   6.040   1.282   8.807 -0.6536  0.0288 -1.4299
  114OSM   H18U11922   5.916   1.147   8.798  1.4345 -1.8466 -2.4766
  114OSM    C1F11923   6.273   1.105  10.600  0.2736 -0.2103  0.2520
  114OSM     OF11924   6.262   0.996  10.651  0.2105  0.9224 -0.7951
  114OSM    C2F11925   6.400   1.146  10.538 -0.2729 -0.9844  0.3419
  114OSM    H2F11926   6.469   1.166  10.623 -1.0103 -0.6326  0.8605
  114OSM    H2G11927   6.393   1.245  10.489 -2.5631 -1.3196 -0.0867
  114OSM    C3F11928   6.449   1.041  10.433  0.5801  0.0825 -0.7023
  114OSM    H3F11929   6.485   0.947  10.481 -2.1639 -0.5640  0.2945
  114OSM    H3G11930   6.534   1.084  10.377  0.6259  1.1951  0.1911
  114OSM    C4F11931   6.343   0.989  10.335  0.3973 -0.0450 -0.2440
  114OSM    H4F11932   6.266   0.932  10.390 -0.2728  1.1374  0.0847
  114OSM    H4G11933   6.397   0.914  10.273 -1.0948 -0.2066 -1.4036
  114OSM    C5F11934   6.271   1.086  10.242 -0.4012  0.2092  0.0003
  114OSM    H5F11935   6.214   1.170  10.288 -1.8552 -0.9126  0.3212
  114OSM    H5G11936   6.198   1.028  10.182 -0.0530 -0.7040  0.4359
  114OSM    C6F11937   6.368   1.153  10.137 -0.1236  0.6413 -0.4365
  114OSM    H6F11938   6.430   1.074  10.091 -2.3024 -1.7904  0.5891
  114OSM    H6G11939   6.438   1.217  10.196  2.3892 -1.7723 -0.6041
  114OSM    C7F11940   6.302   1.235  10.023  0.2267  0.3996 -0.7001
  114OSM    H7F11941   6.261   1.323  10.078  1.9307 -0.2509  1.7572
  114OSM    H7G11942   6.210   1.178   9.998  1.2134 -1.6666  0.1379
  114OSM    C8F11943   6.393   1.270   9.907  0.1770  0.4415 -0.0453
  114OSM    H8F11944   6.478   1.337   9.933 -1.9530  3.6016 -0.5901
  114OSM    H8G11945   6.335   1.336   9.840  0.8036  0.6887 -0.3571
  114OSM    C9F11946   6.442   1.149   9.827 -0.4909  0.3865 -0.7271
  114OSM    H9F11947   6.528   1.090   9.860 -0.8835 -0.5738 -1.3846
  114OSM   C10F11948   6.377   1.096   9.719 -0.3545  0.2409 -0.4278
  114OSM   H10F11949   6.421   1.004   9.676  1.8968  0.5253  1.0718
  114OSM   C11F11950   6.248   1.143   9.658  0.2740 -0.0488 -0.0987
  114OSM   H11F11951   6.200   1.219   9.723 -0.0350 -0.8983  0.6738
  114OSM   H11G11952   6.172   1.064   9.645 -0.9827  1.1145  0.0183
  114OSM   C12F11953   6.293   1.197   9.515  0.6771  0.1130 -0.4709
  114OSM   H12F11954   6.380   1.262   9.539 -0.3461  0.7906  1.7023
  114OSM   H12G11955   6.214   1.264   9.473 -0.0978  1.0912  2.3063
  114OSM   C13F11956   6.310   1.081   9.410 -0.1564 -0.0699  0.0672
  114OSM   H13F11957   6.215   1.031   9.382 -1.2401  0.7537  2.0662
  114OSM   H13G11958   6.393   1.017   9.447  0.3377  1.7072  2.3115
  114OSM   C14F11959   6.372   1.148   9.282 -0.1287 -0.1307  0.0981
  114OSM   H14F11960   6.427   1.240   9.311  0.3790 -1.0839  2.3541
  114OSM   H14G11961   6.293   1.172   9.208 -1.2270 -1.9903  0.6269
  114OSM   C15F11962   6.471   1.059   9.203  0.1613 -0.4504 -0.2652
  114OSM   H15F11963   6.432   0.957   9.184 -0.5629 -0.1080 -0.6965
  114OSM   H15G11964   6.566   1.046   9.258 -0.1282 -2.1477 -0.1239
  114OSM   C16F11965   6.498   1.126   9.064 -0.3614  0.0379  0.9710
  114OSM   H16F11966   6.401   1.127   9.010  0.3489  1.2740 -0.3460
  114OSM   H16G11967   6.570   1.055   9.020 -3.7206 -3.6875  0.9122
  114OSM   C17F11968   6.552   1.275   9.068 -0.1399 -0.3815  0.3454
  114OSM   H17F11969   6.650   1.270   9.119  1.0781 -0.6969 -1.8777
  114OSM   H17G11970   6.492   1.343   9.133  0.9528  0.4424  0.5206
  114OSM   C18F11971   6.581   1.333   8.929  0.5676 -0.0491  0.6316
  114OSM   H18F11972   6.483   1.348   8.879  0.9120  1.1468  0.2822
  114OSM   H18G11973   6.652   1.263   8.880  2.0925 -0.9051  3.8448
  114OSM   H18H11974   6.624   1.435   8.942 -0.5061  0.2699  1.8248
  115OSM      N11975   1.865   0.385  11.341  0.6375 -0.2449 -0.7565
  115OSM    C1511976   1.808   0.353  11.478  0.4316 -0.5859  0.3956
  115OSM   H15A11977   1.719   0.292  11.488  0.9267 -1.0809  2.2489
  115OSM   H15B11978   1.767   0.438  11.529  1.9851  0.7896 -0.5533
  115OSM   H15C11979   1.891   0.320  11.539  0.3705 -0.4268  0.5653
  115OSM    C1411980   1.894   0.247  11.289  0.3785 -0.0812  0.1906
  115OSM   H14A11981   1.810   0.180  11.301  0.0299  0.6249  1.8926
  115OSM   H14B11982   1.980   0.197  11.332 -0.1259  0.6161  2.1051
  115OSM   H14C11983   1.914   0.252  11.183 -0.8637 -1.7733 -0.1669
  115OSM    C1311984   1.765   0.450  11.255  0.1194  0.2910  0.1629
  115OSM   H13A11985   1.821   0.477  11.166 -2.8662  0.3909 -1.8060
  115OSM   H13B11986   1.728   0.540  11.302  0.9785  0.5857  0.3032
  115OSM   H13C11987   1.686   0.379  11.242 -0.4084  0.9153 -0.0771
  115OSM    C1211988   1.996   0.464  11.348 -0.6152 -1.0287  0.7162
  115OSM   H12A11989   2.068   0.417  11.413  1.6444  1.9722  0.6530
  115OSM   H12B11990   1.984   0.565  11.387 -1.0124 -0.0682 -1.7012
  115OSM    C1111991   2.065   0.482  11.207 -0.1203 -0.8811 -0.0383
  115OSM   H11A11992   2.089   0.382  11.164  0.2845 -1.1900  0.8753
  115OSM   H11B11993   2.154   0.547  11.225  0.2373 -0.8403 -1.7912
  115OSM      P11994   2.041   0.591  10.972 -0.1236 -0.1222  0.2155
  115OSM    O1311995   1.942   0.669  10.898  0.0303 -0.5710  0.2010
  115OSM    O1411996   2.172   0.654  10.999  0.0766 -0.0919 -0.1529
  115OSM    O1111997   2.060   0.455  10.898 -1.0732 -0.0080  0.2363
  115OSM    O1211998   1.984   0.554  11.114  0.4688  0.4626 -0.4938
  115OSM    C1S11999   1.945   0.373  10.866 -0.2136  0.8011 -0.3518
  115OSM    H1S12000   1.854   0.433  10.847  0.0687  1.5648  0.6166
  115OSM    H1T12001   1.922   0.300  10.947 -0.5253  2.6722  1.3364
  115OSM     NF12002   1.864   0.229  10.680  0.1694 -0.2760  0.4402
  115OSM    HNF12003   1.864   0.129  10.683 -0.9635 -0.3020 -0.0713
  115OSM    C2S12004   1.983   0.289  10.741  0.1823 -0.3948 -0.3993
  115OSM    H2S12005   2.023   0.355  10.660 -1.0838  1.8732  0.7360
  115OSM    C3S12006   2.100   0.196  10.773  0.5074 -1.3889 -0.7524
  115OSM    H3S12007   2.051   0.124  10.843  0.0666 -0.4138 -0.0399
  115OSM     O312008   2.208   0.253  10.843 -0.1924 -0.3661 -0.6152
  115OSM    HO312009   2.172   0.338  10.868  0.3844 -0.7845  1.8793
  115OSM    C4S12010   2.149   0.123  10.646  0.2932  0.3685 -0.2845
  115OSM    H4S12011   2.117   0.018  10.637  1.1721  0.2587 -2.5766
  115OSM    C5S12012   2.230   0.176  10.564  0.0994 -0.5254  0.2396
  115OSM    H5S12013   2.263   0.281  10.574 -0.8233 -0.0497 -1.2545
  115OSM    C6S12014   2.287   0.115  10.434  0.3574 -0.1919 -1.1199
  115OSM    H6S12015   2.247   0.013  10.418 -2.7008  0.8683 -0.7759
  115OSM    H6T12016   2.398   0.107  10.432  0.5630  0.2652  2.3129
  115OSM    C7S12017   2.247   0.197  10.308  0.0411  0.1524  0.5332
  115OSM    H7S12018   2.275   0.303  10.329 -2.3293  0.7208  1.1557
  115OSM    H7T12019   2.137   0.199  10.295  0.3516 -0.4608 -3.4011
  115OSM    C8S12020   2.306   0.153  10.173 -0.7847  0.9153 -0.0601
  115OSM    H8S12021   2.257   0.055  10.151  0.8188  0.2741 -0.9710
  115OSM    H8T12022   2.415   0.136  10.186 -1.1365 -0.0525  1.9995
  115OSM    C9S12023   2.270   0.248  10.066  0.1512  0.1058  0.1425
  115OSM    H9S12024   2.327   0.337  10.099 -0.3716  0.1936  0.8306
  115OSM    H9T12025   2.160   0.261  10.070  0.1932  0.3584  0.6359
  115OSM   C10S12026   2.308   0.208   9.923 -0.3618  0.2499 -0.4276
  115OSM   H10S12027   2.273   0.105   9.898  0.7796 -0.5122  0.9815
  115OSM   H10T12028   2.417   0.193   9.939 -0.5764 -2.5883 -1.0376
  115OSM   C11S12029   2.291   0.325   9.828  0.5878  0.0346  0.2294
  115OSM   H11S12030   2.370   0.398   9.854 -1.0203  2.0473 -0.3029
  115OSM   H11T12031   2.207   0.395   9.848  0.8323  0.5679 -0.5648
  115OSM   C12S12032   2.307   0.291   9.677  0.7817 -0.0583  0.3230
  115OSM   H12S12033   2.227   0.224   9.639 -1.0944  3.2715 -2.0960
  115OSM   H12T12034   2.403   0.235   9.666  0.5759 -0.6356  1.3221
  115OSM   C13S12035   2.312   0.417   9.598 -0.6339  0.0186 -0.6024
  115OSM   H13S12036   2.405   0.475   9.613  1.6967 -3.4978 -0.4209
  115OSM   H13T12037   2.215   0.467   9.623 -0.5676 -0.3510  0.4564
  115OSM   C14S12038   2.313   0.390   9.453  0.2335 -0.4837  0.7382
  115OSM   H14S12039   2.414   0.358   9.420  0.3625 -0.5720  1.2117
  115OSM   H14T12040   2.282   0.485   9.406 -1.9320 -1.4669  0.0407
  115OSM   C15S12041   2.202   0.300   9.398  0.0120  0.7930 -0.3938
  115OSM   H15S12042   2.103   0.327   9.440  0.4066 -2.1921  2.9440
  115OSM   H15T12043   2.230   0.198   9.433  1.4498  0.5365 -2.1157
  115OSM   C16S12044   2.194   0.281   9.250  0.3201  0.2551  0.5943
  115OSM   H16S12045   2.241   0.186   9.217  2.2349  1.3613 -0.0261
  115OSM   H16T12046   2.250   0.352   9.186  1.8848 -1.5487 -0.1473
  115OSM   C17S12047   2.047   0.299   9.193  0.2165  1.3031 -0.1094
  115OSM   H17S12048   2.018   0.404   9.212  0.3903  0.9793  2.2654
  115OSM   H17T12049   1.972   0.235   9.245  2.3649 -0.0516  1.4593
  115OSM   C18S12050   2.033   0.282   9.039 -0.3596 -0.3777  0.5305
  115OSM   H18S12051   1.927   0.296   9.009 -0.4057  0.3173  0.9953
  115OSM   H18T12052   2.055   0.185   8.989 -0.9583  0.3786 -1.3001
  115OSM   H18U12053   2.091   0.354   8.977 -1.5872 -1.2941 -1.8316
  115OSM    C1F12054   1.761   0.288  10.628  0.0395 -0.5210 -0.0837
  115OSM     OF12055   1.766   0.406  10.591  0.1406 -0.0375  0.3769
  115OSM    C2F12056   1.651   0.192  10.599  0.3928  0.0911  0.3350
  115OSM    H2F12057   1.611   0.162  10.699  1.9412 -1.0952  0.6401
  115OSM    H2G12058   1.686   0.096  10.556 -0.2478 -0.2208  0.4911
  115OSM    C3F12059   1.535   0.256  10.515 -0.3462  0.3352 -0.0189
  115OSM    H3F12060   1.519   0.362  10.545 -0.2412  0.3113  0.1235
  115OSM    H3G12061   1.441   0.202  10.541 -0.1641 -0.3777 -0.8157
  115OSM    C4F12062   1.536   0.247  10.363 -0.2590 -0.2082 -0.0598
  115OSM    H4F12063   1.447   0.288  10.311  1.0965  0.6707 -1.7669
  115OSM    H4G12064   1.547   0.140  10.337  0.7325 -0.0674 -0.2614
  115OSM    C5F12065   1.653   0.313  10.287  0.7983 -0.1047 -0.1570
  115OSM    H5F12066   1.751   0.273  10.323  1.8253  0.2730 -2.3833
  115OSM    H5G12067   1.656   0.422  10.308 -0.2211  0.0509 -0.8132
  115OSM    C6F12068   1.643   0.286  10.138 -0.0874 -0.3086 -0.2752
  115OSM    H6F12069   1.549   0.328  10.094 -0.3195  0.7601  1.1554
  115OSM    H6G12070   1.646   0.175  10.131 -0.9694 -0.5039  1.7768
  115OSM    C7F12071   1.756   0.345  10.060  0.7090 -0.0370 -0.9003
  115OSM    H7F12072   1.856   0.314  10.096 -0.1004  1.5087  3.1616
  115OSM    H7G12073   1.751   0.456  10.061 -0.0040 -0.0555 -1.5370
  115OSM    C8F12074   1.741   0.304   9.910 -0.3312 -0.0452 -0.4930
  115OSM    H8F12075   1.647   0.346   9.869 -0.8283 -0.8421 -0.1904
  115OSM    H8G12076   1.733   0.193   9.910  1.9808 -0.2592 -0.0005
  115OSM    C9F12077   1.870   0.338   9.838 -0.4191  0.3559  0.0765
  115OSM    H9F12078   1.945   0.379   9.907 -1.0162  1.9464 -0.1667
  115OSM   C10F12079   1.904   0.327   9.706  0.3521 -0.3238 -0.1451
  115OSM   H10F12080   1.999   0.359   9.662 -0.7719  4.1645  0.1969
  115OSM   C11F12081   1.801   0.285   9.605  0.6353  0.3592 -0.4534
  115OSM   H11F12082   1.703   0.286   9.657 -0.6383  1.0400 -2.7397
  115OSM   H11G12083   1.814   0.182   9.565 -1.5236  0.2345 -0.9865
  115OSM   C12F12084   1.774   0.381   9.489  0.0677  1.3172 -0.0640
  115OSM   H12F12085   1.873   0.402   9.442  0.2954  2.2303  0.7953
  115OSM   H12G12086   1.743   0.482   9.522 -0.9662  1.4172 -1.2334
  115OSM   C13F12087   1.672   0.340   9.381 -0.9755 -0.0841 -0.1540
  115OSM   H13F12088   1.655   0.422   9.308  1.1340  0.0023 -0.6043
  115OSM   H13G12089   1.574   0.337   9.433 -0.3112  3.7446  1.6773
  115OSM   C14F12090   1.690   0.207   9.317 -0.3980  0.4242  0.2683
  115OSM   H14F12091   1.717   0.130   9.392  0.6454 -0.2439 -0.7652
  115OSM   H14G12092   1.769   0.200   9.240 -0.9657 -0.2625 -0.2646
  115OSM   C15F12093   1.556   0.169   9.251  0.7376 -0.1366  0.1415
  115OSM   H15F12094   1.530   0.239   9.169  0.1903 -1.2165 -0.6250
  115OSM   H15G12095   1.469   0.179   9.319 -0.6330 -1.2206 -1.3890
  115OSM   C16F12096   1.554   0.025   9.192 -0.1395  0.6184  0.0406
  115OSM   H16F12097   1.446  -0.003   9.186  0.9584 -4.8072  0.2769
  115OSM   H16G12098   1.606  -0.048   9.257 -0.8071  0.5962  0.5631
  115OSM   C17F12099   1.611   0.016   9.047 -0.5038  0.0318  0.2404
  115OSM   H17F12100   1.716  -0.019   9.056 -0.7405 -0.7203  0.1153
  115OSM   H17G12101   1.617   0.118   9.003 -0.3384 -0.7488 -1.6152
  115OSM   C18F12102   1.530  -0.081   8.960 -0.3012  0.1251  0.4184
  115OSM   H18F12103   1.425  -0.065   8.990 -0.4750  1.4180 -0.7678
  115OSM   H18G12104   1.545  -0.191   8.972  0.3713  0.1348 -0.2347
  115OSM   H18H12105   1.552  -0.050   8.855 -1.6633 -0.4798 -0.0665
  116OSM      N12106   4.656   2.894  11.089 -0.3506  0.3909 -0.0227
  116OSM    C1512107   4.675   2.943  11.229  0.3685  0.3651  0.3376
  116OSM   H15A12108   4.749   3.019  11.246 -1.3756  1.6661  2.6459
  116OSM   H15B12109   4.694   2.856  11.290 -0.0117 -1.2158 -1.6662
  116OSM   H15C12110   4.583   2.987  11.265 -0.1171  0.4915 -0.9835
  116OSM    C1412111   4.549   2.787  11.083 -0.2003  0.7377  0.0380
  116OSM   H14A12112   4.602   2.701  11.120  0.3866  1.0622 -0.0404
  116OSM   H14B12113   4.525   2.762  10.981 -1.1258 -4.9610  1.3131
  116OSM   H14C12114   4.458   2.822  11.129  0.5595  2.2922  0.4098
  116OSM    C1312115   4.619   2.996  10.988  0.7270 -0.5429 -0.2193
  116OSM   H13A12116   4.604   2.947  10.893 -1.5975 -1.2713  0.4703
  116OSM   H13B12117   4.691   3.077  10.986  2.2282 -1.6424  2.9839
  116OSM   H13C12118   4.525   3.032  11.028  0.0585 -0.7931 -1.5184
  116OSM    C1212119   4.789   2.845  11.042  0.3499 -0.0323 -0.8654
  116OSM   H12A12120   4.856   2.927  11.020  0.9261 -0.4540 -0.7052
  116OSM   H12B12121   4.780   2.802  10.943 -1.0735 -1.1810 -0.2726
  116OSM    C1112122   4.881   2.747  11.123  0.0671  1.3644  0.2237
  116OSM   H11A12123   4.912   2.799  11.216 -0.2855  1.0274  0.5339
  116OSM   H11B12124   4.958   2.704  11.055 -1.5285 -2.3850  0.5383
  116OSM      P12125   4.765   2.516  11.077 -0.0565 -0.0458  0.2418
  116OSM    O1312126   4.851   2.402  11.115  0.5049  0.2164 -0.5409
  116OSM    O1412127   4.619   2.500  11.081  0.1726  0.2268  0.4586
  116OSM    O1112128   4.804   2.560  10.924 -0.0270  0.8716 -0.2074
  116OSM    O1212129   4.803   2.633  11.166 -0.0508  0.5304  0.2063
  116OSM    C1S12130   4.695   2.569  10.830  0.3068 -0.2618 -0.2225
  116OSM    H1S12131   4.618   2.641  10.866 -0.9495 -2.4571  1.7420
  116OSM    H1T12132   4.636   2.475  10.825 -0.4638  0.2124 -0.2849
  116OSM     NF12133   4.642   2.641  10.605 -0.4274 -0.5323 -0.1276
  116OSM    HNF12134   4.611   2.568  10.545  1.5499 -2.2837  0.8231
  116OSM    C2S12135   4.747   2.605  10.682 -0.0637  0.0692 -0.6853
  116OSM    H2S12136   4.817   2.691  10.684  0.0804 -0.0542  0.8098
  116OSM    C3S12137   4.832   2.485  10.632 -0.0630  0.0697 -0.1021
  116OSM    H3S12138   4.766   2.397  10.644 -0.1160 -0.0045 -0.8937
  116OSM     O312139   4.928   2.443  10.727 -0.3718  0.0203 -0.4331
  116OSM    HO312140   4.909   2.505  10.798  5.0147 -2.1420  3.7471
  116OSM    C4S12141   4.894   2.496  10.493 -0.2239 -0.4973 -0.3446
  116OSM    H4S12142   4.834   2.473  10.404  1.3953 -0.4304 -1.5149
  116OSM    C5S12143   5.022   2.530  10.464  0.7449 -0.1073  0.2750
  116OSM    H5S12144   5.091   2.565  10.542 -1.0974 -1.1430  2.4897
  116OSM    C6S12145   5.078   2.532  10.322  0.6652 -0.6206  0.0302
  116OSM    H6S12146   5.096   2.427  10.293  1.5297  0.0203 -1.8568
  116OSM    H6T12147   5.167   2.598  10.330 -0.0672  0.4161 -0.1236
  116OSM    C7S12148   4.987   2.608  10.219 -0.2171 -0.2469 -0.5939
  116OSM    H7S12149   4.973   2.713  10.253  0.7649 -0.6511  1.1337
  116OSM    H7T12150   4.889   2.562  10.196 -0.7232  0.8731 -0.7530
  116OSM    C8S12151   5.072   2.621  10.083  0.9817  0.1261 -0.0089
  116OSM    H8S12152   5.090   2.517  10.048 -0.4562 -0.8461  1.9311
  116OSM    H8T12153   5.172   2.664  10.103  0.7042  1.3446 -1.1251
  116OSM    C9S12154   5.005   2.707   9.977 -0.2970  0.8532 -0.4121
  116OSM    H9S12155   4.996   2.808  10.024  0.4114  1.0103 -0.6040
  116OSM    H9T12156   4.906   2.675   9.938  0.8796 -0.6760 -2.2658
  116OSM   C10S12157   5.089   2.740   9.851  0.2439 -0.1198 -0.0467
  116OSM   H10S12158   5.125   2.639   9.822 -3.0995 -1.6539  0.5768
  116OSM   H10T12159   5.174   2.809   9.865  1.3775 -1.6708  1.0244
  116OSM   C11S12160   4.988   2.788   9.742 -0.2547 -0.3341  0.2931
  116OSM   H11S12161   4.931   2.869   9.791  2.1059  1.2188  0.6139
  116OSM   H11T12162   4.915   2.708   9.716  1.1147 -1.1587 -1.1876
  116OSM   C12S12163   5.052   2.859   9.622 -0.3790  0.2239 -0.4493
  116OSM   H12S12164   5.108   2.950   9.655 -0.9870  0.5763 -0.3720
  116OSM   H12T12165   4.967   2.887   9.557  0.1303  2.7062 -0.1618
  116OSM   C13S12166   5.152   2.773   9.535 -0.2821 -0.4258  0.3597
  116OSM   H13S12167   5.082   2.697   9.493 -0.1368 -0.4903  0.2333
  116OSM   H13T12168   5.218   2.733   9.615  0.3138 -0.4286 -0.1245
  116OSM   C14S12169   5.232   2.845   9.422  0.5454 -0.1818 -0.3290
  116OSM   H14S12170   5.325   2.789   9.400  0.4013 -0.0244 -1.3999
  116OSM   H14T12171   5.263   2.947   9.454  1.1174 -0.3283 -0.3993
  116OSM   C15S12172   5.147   2.856   9.289  0.5804 -0.1432 -0.3640
  116OSM   H15S12173   5.056   2.918   9.301 -1.2746 -2.9768  1.3493
  116OSM   H15T12174   5.108   2.756   9.262  0.2384 -0.0572 -0.1868
  116OSM   C16S12175   5.239   2.903   9.179  0.7024 -0.0091  0.2043
  116OSM   H16S12176   5.336   2.849   9.176  0.9977  0.5220 -0.0240
  116OSM   H16T12177   5.267   3.007   9.206 -1.5420  0.6565  0.1321
  116OSM   C17S12178   5.178   2.917   9.038  0.2902 -0.1873  0.3620
  116OSM   H17S12179   5.259   2.951   8.969  1.9550 -2.0677  1.3054
  116OSM   H17T12180   5.091   2.986   9.043  0.3233 -0.1729  0.7366
  116OSM   C18S12181   5.108   2.792   8.981 -0.0548  0.6102  0.1210
  116OSM   H18S12182   5.174   2.705   8.996  0.1995  1.0585  1.8905
  116OSM   H18T12183   5.093   2.809   8.873  1.2767 -2.3317 -0.6017
  116OSM   H18U12184   5.020   2.757   9.040  0.2197 -2.4032 -1.0939
  116OSM    C1F12185   4.590   2.761  10.604  0.8539  0.4325  0.1320
  116OSM     OF12186   4.613   2.847  10.687 -0.3453 -0.1862 -0.0398
  116OSM    C2F12187   4.505   2.789  10.487  0.4877 -0.7977 -0.1573
  116OSM    H2F12188   4.425   2.856  10.526  1.7546  1.1977 -0.8201
  116OSM    H2G12189   4.461   2.693  10.454  0.6536 -0.8127 -0.3354
  116OSM    C3F12190   4.588   2.865  10.385  0.5720  0.0058  0.0222
  116OSM    H3F12191   4.681   2.806  10.366  0.6647 -0.0753  0.6987
  116OSM    H3G12192   4.620   2.955  10.442  0.7939 -0.4562  0.6378
  116OSM    C4F12193   4.528   2.904  10.255  0.1410 -0.4119  0.6762
  116OSM    H4F12194   4.474   3.001  10.259  0.9165  0.3412 -3.1419
  116OSM    H4G12195   4.454   2.824  10.234 -0.8621  0.6189  0.1738
  116OSM    C5F12196   4.625   2.901  10.134  0.7719 -0.4132  0.1815
  116OSM    H5F12197   4.653   2.794  10.127 -0.6472 -0.6817 -3.1657
  116OSM    H5G12198   4.707   2.977  10.132 -0.6472  1.1622 -0.4997
  116OSM    C6F12199   4.543   2.937  10.006 -0.0126 -0.4690 -0.0199
  116OSM    H6F12200   4.512   3.043   9.998 -0.8631 -0.7674 -0.8812
  116OSM    H6G12201   4.452   2.873  10.011  0.5510 -1.4374 -1.6053
  116OSM    C7F12202   4.618   2.895   9.879 -0.3377  0.7859 -0.3691
  116OSM    H7F12203   4.668   2.799   9.903 -2.1748 -0.5391 -1.6387
  116OSM    H7G12204   4.692   2.978   9.876  1.3629 -0.4159  2.8285
  116OSM    C8F12205   4.524   2.878   9.753  0.7117  0.3211 -0.5255
  116OSM    H8F12206   4.476   2.975   9.727  0.2958  0.0747 -0.6844
  116OSM    H8G12207   4.439   2.810   9.770  0.2719  0.3051 -2.5409
  116OSM    C9F12208   4.612   2.822   9.641  0.5161 -0.2775 -0.5112
  116OSM    H9F12209   4.639   2.716   9.653  1.0103 -0.1583 -0.5446
  116OSM   C10F12210   4.663   2.898   9.545  0.3565  0.5455 -1.1362
  116OSM   H10F12211   4.710   2.845   9.461 -1.5964 -1.1393 -1.2241
  116OSM   C11F12212   4.648   3.046   9.540 -0.3469  0.3913  0.1803
  116OSM   H11F12213   4.660   3.087   9.642  1.8743  2.1172 -0.6772
  116OSM   H11G12214   4.557   3.073   9.482 -0.9592 -1.0879  0.4108
  116OSM   C12F12215   4.759   3.114   9.461 -0.3664  0.0899 -0.6973
  116OSM   H12F12216   4.865   3.091   9.487  0.2920  0.5455 -2.7491
  116OSM   H12G12217   4.755   3.224   9.473 -0.2682  0.0970 -0.7236
  116OSM   C13F12218   4.761   3.074   9.314 -0.4233  0.9451  0.2038
  116OSM   H13F12219   4.666   3.091   9.259  1.1416  0.5383 -2.8245
  116OSM   H13G12220   4.789   2.967   9.311  0.0076  1.0522  0.3310
  116OSM   C14F12221   4.855   3.163   9.235  0.0618  0.2520  0.3164
  116OSM   H14F12222   4.956   3.162   9.280 -0.8279  0.4531  2.4405
  116OSM   H14G12223   4.822   3.268   9.245  0.5541  0.3499  0.9950
  116OSM   C15F12224   4.851   3.121   9.087  0.2107  0.0711 -0.1735
  116OSM   H15F12225   4.747   3.120   9.049  0.2547 -0.5656 -0.2853
  116OSM   H15G12226   4.878   3.015   9.072  0.5600  0.1244  0.0486
  116OSM   C16F12227   4.949   3.210   9.001 -0.0994  0.2886  0.7545
  116OSM   H16F12228   5.051   3.186   9.038 -0.5724 -0.6234  1.5170
  116OSM   H16G12229   4.915   3.315   9.019 -0.2352  0.4891 -0.6195
  116OSM   C17F12230   4.933   3.182   8.844 -0.5033 -0.2483  0.1308
  116OSM   H17F12231   4.895   3.080   8.823  1.5402 -0.8931 -0.5931
  116OSM   H17G12232   5.035   3.191   8.803 -0.4596 -1.7984 -0.1251
  116OSM   C18F12233   4.850   3.285   8.772 -0.5734 -0.7423 -0.5031
  116OSM   H18F12234   4.873   3.289   8.663  0.5509  0.1536 -0.2468
  116OSM   H18G12235   4.863   3.387   8.813  1.0160 -0.1446 -2.3409
  116OSM   H18H12236   4.745   3.253   8.788 -0.5108 -0.3834  0.7122
  117OSM      N12237   3.269   4.519  11.256 -0.0288 -0.2883 -0.1667
  117OSM    C1512238   3.385   4.423  11.265  0.1456 -0.5619 -0.6918
  117OSM   H15A12239   3.466   4.492  11.247 -1.8364  1.6885 -1.5296
  117OSM   H15B12240   3.398   4.338  11.200 -1.3013 -2.9450  1.9393
  117OSM   H15C12241   3.390   4.385  11.366 -2.9208 -2.0499 -0.9717
  117OSM    C1412242   3.150   4.442  11.304 -0.2073  0.3470 -1.4319
  117OSM   H14A12243   3.133   4.354  11.244 -1.3985 -1.8219  1.8254
  117OSM   H14B12244   3.067   4.510  11.295 -2.1190 -1.8884 -1.3858
  117OSM   H14C12245   3.144   4.407  11.406  3.0454  3.2586 -0.0219
  117OSM    C1312246   3.279   4.633  11.345  0.2426 -0.7909  0.0264
  117OSM   H13A12247   3.354   4.705  11.315  0.1043 -1.0880 -1.0454
  117OSM   H13B12248   3.310   4.601  11.443 -0.4235  0.1862  0.5795
  117OSM   H13C12249   3.179   4.674  11.357  0.8360  0.3045  1.6422
  117OSM    C1212250   3.234   4.558  11.111 -0.0060 -0.6033 -0.7933
  117OSM   H12A12251   3.153   4.629  11.109  0.0748 -0.5238 -1.2564
  117OSM   H12B12252   3.201   4.470  11.057 -0.6554 -0.3799 -0.7636
  117OSM    C1112253   3.343   4.629  11.033  0.9329  0.4934 -0.4354
  117OSM   H11A12254   3.307   4.626  10.928 -0.2849  0.8847 -0.0494
  117OSM   H11B12255   3.437   4.570  11.041 -0.2840 -1.2028  3.2127
  117OSM      P12256   3.259   4.868  11.035 -0.0881 -0.2794 -0.3866
  117OSM    O1312257   3.133   4.809  11.071  1.0939  0.2523 -0.1704
  117OSM    O1412258   3.291   4.997  11.100  0.1703  0.0974  0.3078
  117OSM    O1112259   3.277   4.888  10.878  0.1283  0.1519 -0.2349
  117OSM    O1212260   3.371   4.761  11.078  0.2895  0.2342  0.2773
  117OSM    C1S12261   3.392   4.944  10.817 -0.1041  0.6314  0.2699
  117OSM    H1S12262   3.486   4.898  10.857 -0.5274 -0.3210  0.1928
  117OSM    H1T12263   3.401   5.054  10.828 -2.1459  0.8187  0.2935
  117OSM     NF12264   3.524   4.965  10.604  0.1935 -0.1444  0.7596
  117OSM    HNF12265   3.524   5.053  10.557 -3.2254  0.2237  1.1875
  117OSM    C2S12266   3.399   4.926  10.662 -0.1932 -0.0950  0.1634
  117OSM    H2S12267   3.382   4.817  10.648  0.4282 -0.0193 -1.4329
  117OSM    C3S12268   3.271   4.988  10.610  0.0693  0.1290  0.6865
  117OSM    H3S12269   3.263   5.085  10.664  2.3000  0.2089  0.9619
  117OSM     O312270   3.145   4.925  10.648 -0.2713 -0.4341  0.6972
  117OSM    HO312271   3.170   4.867  10.720 -1.4280  0.1123  1.5767
  117OSM    C4S12272   3.288   5.002  10.457 -0.8662  0.0112  0.2113
  117OSM    H4S12273   3.355   5.084  10.428 -1.4387  1.4447  2.6852
  117OSM    C5S12274   3.217   4.934  10.360 -0.4024  0.0998 -0.3525
  117OSM    H5S12275   3.142   4.866  10.401 -0.2049  1.7104  3.0391
  117OSM    C6S12276   3.230   4.944  10.212 -0.2181  0.3928  0.0196
  117OSM    H6S12277   3.135   4.984  10.172 -1.3025 -1.6117  0.4610
  117OSM    H6T12278   3.231   4.845  10.161  2.6317 -0.3265  1.2519
  117OSM    C7S12279   3.336   5.044  10.177 -0.9335 -0.1982 -0.4109
  117OSM    H7S12280   3.433   5.018  10.225 -1.5163  1.1453  1.6322
  117OSM    H7T12281   3.305   5.142  10.219  0.6567 -0.6343  2.0046
  117OSM    C8S12282   3.333   5.065  10.019 -0.0180  0.2204  0.0605
  117OSM    H8S12283   3.386   5.162  10.004 -0.1034  0.3211  0.4098
  117OSM    H8T12284   3.227   5.075   9.985 -0.8325 -0.2746  2.2680
  117OSM    C9S12285   3.397   4.949   9.939 -0.0857 -0.3375 -0.4562
  117OSM    H9S12286   3.342   4.853   9.953 -1.2739  0.5923  2.0183
  117OSM    H9T12287   3.505   4.938   9.963 -0.3328 -0.2560  0.7586
  117OSM   C10S12288   3.393   4.981   9.784 -0.2075  1.1968  0.0356
  117OSM   H10S12289   3.449   5.074   9.762  1.6601  0.2299  0.4577
  117OSM   H10T12290   3.284   4.984   9.760  0.1185  0.8209 -1.6374
  117OSM   C11S12291   3.465   4.860   9.711  0.0154  0.1442 -0.4045
  117OSM   H11S12292   3.415   4.771   9.754  0.7557  0.2432  0.6934
  117OSM   H11T12293   3.565   4.868   9.759 -0.5976  1.1129  0.7537
  117OSM   C12S12294   3.483   4.855   9.557 -0.8897  0.4980  0.7926
  117OSM   H12S12295   3.548   4.775   9.515 -0.3031  1.6304 -0.5293
  117OSM   H12T12296   3.522   4.953   9.522  1.3654  0.1177  2.0382
  117OSM   C13S12297   3.354   4.823   9.479  0.4751  0.0319 -0.5272
  117OSM   H13S12298   3.276   4.902   9.485  0.8582  0.3617  0.3956
  117OSM   H13T12299   3.324   4.724   9.518  0.8502 -0.2428 -0.9325
  117OSM   C14S12300   3.380   4.782   9.339 -0.9935  0.0875 -0.5778
  117OSM   H14S12301   3.281   4.766   9.293 -1.8909 -0.8960  1.5413
  117OSM   H14T12302   3.452   4.698   9.328 -0.0564  0.3603  2.4384
  117OSM   C15S12303   3.453   4.893   9.254 -0.6851 -0.0210 -0.4707
  117OSM   H15S12304   3.554   4.899   9.299 -1.7676 -0.4669  2.1826
  117OSM   H15T12305   3.410   4.995   9.266  1.0008  0.5952  0.6329
  117OSM   C16S12306   3.475   4.863   9.105  0.0106  0.4654 -0.0006
  117OSM   H16S12307   3.523   4.763   9.095  0.4980  0.3724  2.6987
  117OSM   H16T12308   3.542   4.943   9.069 -1.0389  1.0289 -0.7878
  117OSM   C17S12309   3.347   4.860   9.028  0.2160  0.8511  0.0614
  117OSM   H17S12310   3.287   4.951   9.053 -1.5378  0.2354 -1.6307
  117OSM   H17T12311   3.286   4.770   9.053  3.0190 -1.7660 -1.8814
  117OSM   C18S12312   3.353   4.851   8.876 -0.0915 -0.2757 -0.5956
  117OSM   H18S12313   3.391   4.749   8.851  0.6551  0.2322 -1.5705
  117OSM   H18T12314   3.417   4.933   8.840 -2.2882  1.5796 -0.4891
  117OSM   H18U12315   3.253   4.875   8.833  0.2816 -0.1561 -1.4181
  117OSM    C1F12316   3.642   4.907  10.617  0.2757  0.3739 -0.0611
  117OSM     OF12317   3.656   4.814  10.695 -0.1026  0.0052  0.5859
  117OSM    C2F12318   3.760   4.971  10.545 -1.3795  0.0605 -0.4614
  117OSM    H2F12319   3.770   5.080  10.562 -0.9212  0.1874 -1.4888
  117OSM    H2G12320   3.746   4.960  10.435  1.2030 -3.8764 -0.6135
  117OSM    C3F12321   3.900   4.920  10.578 -0.7511 -0.2750 -0.2536
  117OSM    H3F12322   3.903   4.810  10.560 -2.3440 -0.4902  0.6090
  117OSM    H3G12323   3.927   4.935  10.684  4.5965  0.8293 -1.4421
  117OSM    C4F12324   4.015   4.982  10.497  0.0430 -0.1653 -0.1325
  117OSM    H4F12325   4.112   4.937  10.528  0.3107 -2.3735 -3.6596
  117OSM    H4G12326   4.032   5.089  10.520 -0.5296 -0.4404  1.8280
  117OSM    C5F12327   4.000   4.959  10.346 -0.6344  0.4150  0.3227
  117OSM    H5F12328   3.909   5.004  10.302  0.6887  0.7897 -2.2079
  117OSM    H5G12329   3.986   4.850  10.326  0.7386  0.1968  0.4593
  117OSM    C6F12330   4.122   4.995  10.261  0.2324  0.1542 -0.9181
  117OSM    H6F12331   4.102   4.953  10.160  0.3870 -1.4041 -0.3193
  117OSM    H6G12332   4.211   4.946  10.305  0.2740  0.4028 -0.7235
  117OSM    C7F12333   4.140   5.147  10.242 -0.7714  0.7229 -0.5178
  117OSM    H7F12334   4.118   5.200  10.338 -1.3351  1.5891 -1.1084
  117OSM    H7G12335   4.064   5.192  10.174 -2.5280  1.8648  2.0154
  117OSM    C8F12336   4.288   5.199  10.215 -0.0551 -0.0942 -0.5818
  117OSM    H8F12337   4.329   5.154  10.122  0.6007  0.6034 -0.6419
  117OSM    H8G12338   4.334   5.149  10.303 -0.6947 -1.2495 -0.8889
  117OSM    C9F12339   4.291   5.347  10.214  0.5267  1.1052 -0.2724
  117OSM    H9F12340   4.284   5.387  10.316  3.6496 -1.0722  0.9465
  117OSM   C10F12341   4.315   5.425  10.113 -0.0325 -0.9746 -0.3161
  117OSM   H10F12342   4.311   5.532  10.134  0.7278 -1.0670  0.3182
  117OSM   C11F12343   4.343   5.392   9.968  1.1038 -0.2848 -0.8123
  117OSM   H11F12344   4.336   5.282   9.958  1.0521 -0.4835  1.1322
  117OSM   H11G12345   4.448   5.419   9.942  0.6124  1.7141 -0.8573
  117OSM   C12F12346   4.243   5.451   9.855 -0.0237  0.0200 -0.2110
  117OSM   H12F12347   4.193   5.542   9.895  0.0025  0.7256 -1.7066
  117OSM   H12G12348   4.158   5.383   9.832 -0.9646  1.0665  0.0625
  117OSM   C13F12349   4.319   5.486   9.729  0.0142 -1.0549 -0.2456
  117OSM   H13F12350   4.395   5.405   9.715  0.5867 -0.3014 -1.6754
  117OSM   H13G12351   4.377   5.575   9.761 -1.9755 -0.3189  1.5583
  117OSM   C14F12352   4.240   5.513   9.608 -0.3904 -0.0247  0.6875
  117OSM   H14F12353   4.163   5.585   9.642  2.3806  3.4221  0.3090
  117OSM   H14G12354   4.195   5.415   9.583  0.7965  0.1324 -2.5123
  117OSM   C15F12355   4.331   5.555   9.488 -0.3252  0.3191  0.4987
  117OSM   H15F12356   4.408   5.480   9.462  0.0008  1.2762 -1.4570
  117OSM   H15G12357   4.380   5.651   9.519 -0.9395  1.1859 -1.1131
  117OSM   C16F12358   4.259   5.583   9.360  0.4757 -0.1605  0.2390
  117OSM   H16F12359   4.193   5.495   9.340  0.6380 -0.3589  0.5634
  117OSM   H16G12360   4.326   5.578   9.271  0.6071 -2.0091  0.3970
  117OSM   C17F12361   4.168   5.713   9.364 -0.0043  0.4333 -0.0827
  117OSM   H17F12362   4.249   5.790   9.358  0.6454 -0.2745 -0.5679
  117OSM   H17G12363   4.104   5.727   9.453 -1.0498  0.1988 -0.7780
  117OSM   C18F12364   4.060   5.714   9.252  0.6393  0.1550  1.1190
  117OSM   H18F12365   3.995   5.804   9.253  0.2263  0.1453 -3.3547
  117OSM   H18G12366   3.998   5.623   9.262 -1.6193  1.5016  0.1857
  117OSM   H18H12367   4.100   5.699   9.149 -2.9668  1.1574 -0.5957
  118OSM      N12368   2.750   6.657  10.965  0.8614  0.2906 -0.7569
  118OSM    C1512369   2.696   6.762  10.884  0.0346 -0.3197  0.4742
  118OSM   H15A12370   2.620   6.733  10.812  0.8259 -0.9701 -0.1067
  118OSM   H15B12371   2.774   6.810  10.826  0.0373 -0.4703  0.3529
  118OSM   H15C12372   2.647   6.836  10.946  0.6438 -1.3062  2.1812
  118OSM    C1412373   2.838   6.718  11.075  0.1767  0.1415  0.6557
  118OSM   H14A12374   2.912   6.780  11.026  2.0560 -0.6335  2.3691
  118OSM   H14B12375   2.896   6.637  11.116  2.0765  1.3876  0.5624
  118OSM   H14C12376   2.794   6.774  11.155 -1.3069 -1.1268  0.7687
  118OSM    C1312377   2.635   6.592  11.041  0.2031  0.5277  0.0064
  118OSM   H13A12378   2.570   6.546  10.968 -1.0562  0.7342  0.9540
  118OSM   H13B12379   2.571   6.666  11.087 -1.4511  1.0275 -2.8396
  118OSM   H13C12380   2.674   6.518  11.109 -1.7354  2.3757  3.3982
  118OSM    C1212381   2.837   6.557  10.895  0.6839 -0.1908  0.2271
  118OSM   H12A12382   2.790   6.537  10.800  3.3213  1.8709 -1.7086
  118OSM   H12B12383   2.845   6.462  10.945  2.8941 -0.5073 -0.5789
  118OSM    C1112384   2.979   6.596  10.856 -0.2912 -0.0899  0.7747
  118OSM   H11A12385   2.983   6.703  10.823  1.7907 -0.7870 -1.5627
  118OSM   H11B12386   3.008   6.544  10.762 -0.6754 -2.4085  1.8881
  118OSM      P12387   3.204   6.655  10.992 -0.0968  0.2518  0.3428
  118OSM    O1312388   3.180   6.746  11.104  0.1124  0.2660 -0.0935
  118OSM    O1412389   3.311   6.556  11.008 -0.0430  0.0201 -0.6337
  118OSM    O1112390   3.247   6.737  10.860 -0.3590 -0.1325  0.0994
  118OSM    O1212391   3.076   6.562  10.954  0.1478  0.7175 -0.8679
  118OSM    C1S12392   3.355   6.683  10.777  0.3118  0.1940  0.6226
  118OSM    H1S12393   3.359   6.572  10.770  1.0148  0.2310  0.3208
  118OSM    H1T12394   3.459   6.715  10.801  1.3476 -1.0201 -1.8812
  118OSM     NF12395   3.458   6.659  10.557  0.1395 -0.4579 -0.3030
  118OSM    HNF12396   3.526   6.727  10.529 -0.8025  1.7253  2.2327
  118OSM    C2S12397   3.347   6.727  10.625  0.0523  0.1543  0.7611
  118OSM    H2S12398   3.251   6.693  10.580  0.4719 -0.6857  0.4828
  118OSM    C3S12399   3.351   6.881  10.609 -0.0308 -0.0260  0.4405
  118OSM    H3S12400   3.443   6.919  10.658 -0.7003 -0.2915  1.9683
  118OSM     O312401   3.258   6.952  10.682 -0.0499  0.1795 -0.1799
  118OSM    HO312402   3.215   6.884  10.735  3.9312 -0.9747  1.9904
  118OSM    C4S12403   3.353   6.924  10.467  0.4167 -0.6808  0.4203
  118OSM    H4S12404   3.456   6.927  10.429 -0.0983  2.2390 -1.0157
  118OSM    C5S12405   3.255   6.961  10.379 -0.0098 -0.0710  0.0902
  118OSM    H5S12406   3.153   6.940  10.415  0.2807 -2.5604 -0.3825
  118OSM    C6S12407   3.270   6.997  10.233 -0.0730  0.5567  0.3848
  118OSM    H6S12408   3.232   7.099  10.208  1.7719  1.3279  0.5748
  118OSM    H6T12409   3.210   6.925  10.172 -1.2566  1.1437  0.8216
  118OSM    C7S12410   3.418   7.005  10.185  0.6780  0.0095 -0.8737
  118OSM    H7S12411   3.463   6.906  10.208 -1.0842 -0.5323  0.4744
  118OSM    H7T12412   3.461   7.070  10.264 -2.3107 -0.0014  0.9287
  118OSM    C8S12413   3.442   7.039  10.040 -0.0497 -0.5251  0.5343
  118OSM    H8S12414   3.546   7.077  10.039  0.3414 -1.5837 -0.3194
  118OSM    H8T12415   3.375   7.118  10.000 -0.0525 -0.8164 -0.0519
  118OSM    C9S12416   3.447   6.909   9.956 -0.8703 -0.2017  0.4058
  118OSM    H9S12417   3.352   6.856   9.984 -1.3788 -0.3303 -1.4417
  118OSM    H9T12418   3.535   6.849   9.987 -1.8312 -0.2541  3.3518
  118OSM   C10S12419   3.433   6.924   9.810 -0.1399 -0.1498  0.6653
  118OSM   H10S12420   3.347   6.986   9.776  0.4790 -0.8050 -2.4057
  118OSM   H10T12421   3.420   6.827   9.758  2.6237 -0.0358 -0.4462
  118OSM   C11S12422   3.554   6.995   9.742  0.9281 -0.2649  0.3691
  118OSM   H11S12423   3.647   6.936   9.752  0.5782 -0.7241  0.9741
  118OSM   H11T12424   3.559   7.092   9.796 -1.8352  0.6993 -0.8774
  118OSM   C12S12425   3.538   7.037   9.593 -0.6469  0.3009 -0.0555
  118OSM   H12S12426   3.609   7.117   9.564 -1.4496  0.8408 -0.5644
  118OSM   H12T12427   3.438   7.085   9.586 -1.7442 -1.4848  1.9790
  118OSM   C13S12428   3.552   6.922   9.506 -0.4110 -0.0062 -0.3620
  118OSM   H13S12429   3.469   6.850   9.524  1.1669 -1.6482  0.6216
  118OSM   H13T12430   3.644   6.866   9.530 -0.9102  0.1670  2.2622
  118OSM   C14S12431   3.540   6.963   9.353 -0.5993 -0.5036 -0.4152
  118OSM   H14S12432   3.448   7.025   9.349  0.4775  1.0810 -2.8773
  118OSM   H14T12433   3.533   6.877   9.283 -0.2779  1.5285 -3.1201
  118OSM   C15S12434   3.656   7.045   9.295  1.0201  0.4472  0.4782
  118OSM   H15S12435   3.752   7.000   9.328 -0.0494 -3.0163 -0.7217
  118OSM   H15T12436   3.658   7.144   9.347 -0.9547  0.0151  1.5049
  118OSM   C16S12437   3.664   7.047   9.139 -0.6587 -0.7977 -0.0656
  118OSM   H16S12438   3.566   7.087   9.107 -1.0893 -1.3956  0.4705
  118OSM   H16T12439   3.679   6.946   9.096 -0.1804 -1.9643  2.6416
  118OSM   C17S12440   3.768   7.155   9.090 -0.4359 -0.4392  0.1885
  118OSM   H17S12441   3.853   7.158   9.162  0.9790  1.4298 -1.4401
  118OSM   H17T12442   3.718   7.254   9.091 -0.7004 -0.5402 -1.3637
  118OSM   C18S12443   3.804   7.126   8.942 -0.5462 -0.3719  0.2808
  118OSM   H18S12444   3.869   7.209   8.905  0.3189 -1.6897 -1.3110
  118OSM   H18T12445   3.722   7.128   8.867  1.6816  1.2753 -2.3210
  118OSM   H18U12446   3.863   7.032   8.940  0.7144  0.3940  0.4642
  118OSM    C1F12447   3.450   6.529  10.519  0.1006 -0.7880 -0.5772
  118OSM     OF12448   3.357   6.458  10.542  0.6604 -0.5271 -0.4627
  118OSM    C2F12449   3.567   6.478  10.443 -0.2134 -0.7731 -0.1492
  118OSM    H2F12450   3.635   6.447  10.525 -0.3864  2.7829  1.5363
  118OSM    H2G12451   3.619   6.562  10.391  1.2379 -0.2002  2.1175
  118OSM    C3F12452   3.535   6.367  10.343  1.0961 -0.0434  0.6259
  118OSM    H3F12453   3.460   6.297  10.387  0.0122  1.3516  1.0600
  118OSM    H3G12454   3.624   6.309  10.311  0.7558 -1.1420  1.5864
  118OSM    C4F12455   3.472   6.425  10.214  0.3468  0.1180  0.1695
  118OSM    H4F12456   3.544   6.497  10.168  0.4312  0.6793  1.1473
  118OSM    H4G12457   3.381   6.482  10.240 -0.2165 -1.0435  0.7995
  118OSM    C5F12458   3.437   6.315  10.111  0.5028  1.2386 -0.2751
  118OSM    H5F12459   3.379   6.237  10.165  0.5941  1.4671  0.1563
  118OSM    H5G12460   3.533   6.280  10.070  0.3499  0.0985  0.3089
  118OSM    C6F12461   3.360   6.360   9.986 -0.0844 -0.1271  0.0835
  118OSM    H6F12462   3.257   6.394  10.009 -0.5000  1.1774 -3.2262
  118OSM    H6G12463   3.347   6.268   9.925  0.8759 -0.3352  0.1790
  118OSM    C7F12464   3.422   6.481   9.910  0.0756  0.1464  0.0597
  118OSM    H7F12465   3.445   6.553   9.991  0.7658 -0.2241  0.2082
  118OSM    H7G12466   3.345   6.532   9.849  0.2366  1.5572  0.9932
  118OSM    C8F12467   3.547   6.467   9.828 -0.0203  0.3455  0.7070
  118OSM    H8F12468   3.632   6.431   9.890  0.3545 -0.1691 -0.0995
  118OSM    H8G12469   3.571   6.573   9.803  0.0022  0.2277  0.2141
  118OSM    C9F12470   3.522   6.374   9.713  0.5501  0.6512  0.2236
  118OSM    H9F12471   3.509   6.271   9.748  0.1980  1.1038  1.5175
  118OSM   C10F12472   3.492   6.404   9.585 -0.5277  0.2998  0.2319
  118OSM   H10F12473   3.456   6.321   9.522 -3.9775  1.0017  1.0751
  118OSM   C11F12474   3.494   6.540   9.519  0.1633  0.1795  0.7663
  118OSM   H11F12475   3.522   6.615   9.596  1.2007 -2.4525  3.1413
  118OSM   H11G12476   3.393   6.559   9.479  0.1225 -0.5438  0.5161
  118OSM   C12F12477   3.591   6.530   9.398  0.6605  0.1396  0.0115
  118OSM   H12F12478   3.690   6.495   9.436  0.3308 -0.9805 -0.1356
  118OSM   H12G12479   3.604   6.632   9.356  0.0141  0.2320  0.0260
  118OSM   C13F12480   3.558   6.430   9.283  0.3129 -0.4546  0.7145
  118OSM   H13F12481   3.567   6.324   9.314  1.0928 -0.1937  1.4121
  118OSM   H13G12482   3.624   6.447   9.195 -1.0400 -0.4754 -0.3468
  118OSM   C14F12483   3.412   6.453   9.235 -0.2257  0.1384  0.2171
  118OSM   H14F12484   3.384   6.558   9.215 -1.9233  0.0818  1.9965
  118OSM   H14G12485   3.342   6.428   9.318  0.6183 -1.3303  0.5280
  118OSM   C15F12486   3.362   6.365   9.121 -0.0886  0.0785 -0.2968
  118OSM   H15F12487   3.265   6.317   9.143 -1.0331  1.6662 -0.8360
  118OSM   H15G12488   3.423   6.274   9.102 -0.5398 -0.2788 -0.0520
  118OSM   C16F12489   3.353   6.441   8.982 -0.1280  0.5596 -0.0917
  118OSM   H16F12490   3.430   6.521   8.973 -0.2764  0.5561 -1.8174
  118OSM   H16G12491   3.256   6.494   8.978  0.5724  1.9538  0.6852
  118OSM   C17F12492   3.363   6.350   8.852 -0.1718  0.5877  0.6753
  118OSM   H17F12493   3.317   6.397   8.762 -0.1877 -1.7634 -0.6113
  118OSM   H17G12494   3.294   6.268   8.881  0.6936 -0.3790  0.0845
  118OSM   C18F12495   3.502   6.286   8.816 -0.2794 -0.2697  0.2162
  118OSM   H18F12496   3.489   6.217   8.729 -2.8985 -0.8885  0.9967
  118OSM   H18G12497   3.551   6.226   8.896  0.1421 -2.0580 -1.3023
  118OSM   H18H12498   3.575   6.364   8.786  1.7379 -1.7870  0.9892
  119OSM      N12499   4.412   3.955  11.139  0.1252 -0.4849 -0.2089
  119OSM    C1512500   4.337   3.837  11.180 -0.3562  0.5124  0.5797
  119OSM   H15A12501   4.391   3.759  11.129 -1.2180  0.8409 -0.8954
  119OSM   H15B12502   4.235   3.832  11.144  0.0486  0.5395 -0.6106
  119OSM   H15C12503   4.347   3.822  11.286 -0.9099  0.5899  0.6477
  119OSM    C1412504   4.380   4.057  11.247  0.4906  0.3047 -0.5319
  119OSM   H14A12505   4.415   4.019  11.342 -0.5308 -0.7587 -0.5544
  119OSM   H14B12506   4.274   4.054  11.264  0.6601  1.8135  0.9422
  119OSM   H14C12507   4.414   4.159  11.235  0.1196  0.3542 -1.1960
  119OSM    C1312508   4.556   3.912  11.147  0.0128  0.0083  0.5606
  119OSM   H13A12509   4.580   3.830  11.081  0.5393  0.5260  0.0991
  119OSM   H13B12510   4.582   3.875  11.245 -2.1688 -2.5632  0.3208
  119OSM   H13C12511   4.620   3.993  11.118  0.1153 -1.2302 -3.2337
  119OSM    C1212512   4.375   4.012  11.007 -0.1209 -0.4345 -0.1591
  119OSM   H12A12513   4.268   4.025  11.000  0.1444  1.1731 -2.0311
  119OSM   H12B12514   4.397   3.936  10.933 -0.4632 -1.5709  0.8640
  119OSM    C1112515   4.448   4.136  10.963  0.7735 -0.1472 -0.1421
  119OSM   H11A12516   4.427   4.222  11.030  0.2892 -1.2146  1.1266
  119OSM   H11B12517   4.392   4.159  10.869  1.1102 -0.7591 -0.5024
  119OSM      P12518   4.675   4.262  10.933  0.3600  0.6749  0.3511
  119OSM    O1312519   4.641   4.345  11.048 -0.5061  0.1349 -0.4271
  119OSM    O1412520   4.819   4.217  10.933  0.3893  0.5279  0.1746
  119OSM    O1112521   4.634   4.315  10.796  0.2242  0.3453  0.3899
  119OSM    O1212522   4.591   4.122  10.935  0.2079  0.3927 -0.0218
  119OSM    C1S12523   4.688   4.438  10.747 -0.2002  0.3400  0.5038
  119OSM    H1S12524   4.800   4.435  10.745 -0.1315  1.9660 -1.7700
  119OSM    H1T12525   4.664   4.519  10.819 -0.6277  1.3890 -0.7886
  119OSM     NF12526   4.707   4.605  10.569 -0.1144  0.3681  0.5023
  119OSM    HNF12527   4.661   4.693  10.570  2.8699  2.0899 -0.0827
  119OSM    C2S12528   4.643   4.481  10.606 -0.5159 -0.4360 -0.3707
  119OSM    H2S12529   4.685   4.403  10.540 -0.1945 -0.3943 -0.2196
  119OSM    C3S12530   4.488   4.491  10.602 -0.4805 -0.2010  0.1758
  119OSM    H3S12531   4.461   4.563  10.682 -0.1530  0.2105 -0.0778
  119OSM     O312532   4.421   4.382  10.653 -0.3311  0.3014 -0.1561
  119OSM    HO312533   4.489   4.333  10.701 -1.0438  0.4443  1.0403
  119OSM    C4S12534   4.441   4.543  10.470 -0.3778 -0.4103 -0.3524
  119OSM    H4S12535   4.454   4.650  10.448 -0.1016 -0.2666  0.4616
  119OSM    C5S12536   4.395   4.459  10.372 -0.3397  0.0372 -0.0588
  119OSM    H5S12537   4.398   4.351  10.391  0.5011  0.0376 -0.1408
  119OSM    C6S12538   4.370   4.503  10.230  0.6017 -0.3521 -0.4642
  119OSM    H6S12539   4.272   4.464  10.193  1.4831 -2.4137 -0.7900
  119OSM    H6T12540   4.456   4.470  10.168  1.7122 -0.9358  1.3255
  119OSM    C7S12541   4.364   4.658  10.207 -0.2349  0.6330  0.9447
  119OSM    H7S12542   4.441   4.707  10.271  0.6430 -0.1332  0.5019
  119OSM    H7T12543   4.271   4.697  10.255  0.4171 -0.1382  2.9357
  119OSM    C8S12544   4.393   4.695  10.060  0.3250  0.7351 -0.1273
  119OSM    H8S12545   4.317   4.651   9.992  1.2659 -1.6765  0.2869
  119OSM    H8T12546   4.490   4.645  10.037  0.0926 -0.1097  0.6515
  119OSM    C9S12547   4.404   4.842  10.039  0.7103 -0.3650 -0.7099
  119OSM    H9S12548   4.466   4.891  10.118  0.1116 -0.0713 -0.4108
  119OSM    H9T12549   4.307   4.893  10.058  0.2221 -2.2962  2.7219
  119OSM   C10S12550   4.446   4.899   9.900  0.2685  0.4006  0.2903
  119OSM   H10S12551   4.553   4.872   9.884  0.1325  0.6861 -1.1746
  119OSM   H10T12552   4.440   5.010   9.906 -1.0797  0.3764 -0.2787
  119OSM   C11S12553   4.363   4.844   9.788  0.1030  0.3614 -0.6686
  119OSM   H11S12554   4.264   4.891   9.807  0.8902  2.0828 -0.7022
  119OSM   H11T12555   4.349   4.734   9.792 -0.1730  0.4215  0.3810
  119OSM   C12S12556   4.410   4.890   9.646  0.8139  0.3291 -0.1706
  119OSM   H12S12557   4.515   4.862   9.627  1.1605  1.6865 -0.2953
  119OSM   H12T12558   4.408   5.001   9.648  0.1516  0.3255 -0.1678
  119OSM   C13S12559   4.323   4.835   9.530 -0.0654  0.7234 -0.0151
  119OSM   H13S12560   4.234   4.901   9.520 -0.7150 -0.2343 -0.8537
  119OSM   H13T12561   4.270   4.739   9.548  2.1852 -0.0883  2.8719
  119OSM   C14S12562   4.401   4.825   9.392  0.5766 -0.6228 -0.2458
  119OSM   H14S12563   4.462   4.733   9.377 -0.0396 -1.3405  1.4461
  119OSM   H14T12564   4.464   4.916   9.398 -1.2849  0.6108  3.4538
  119OSM   C15S12565   4.303   4.837   9.279 -0.0367 -0.0915  0.2861
  119OSM   H15S12566   4.238   4.925   9.296  1.1912  0.6720  1.1950
  119OSM   H15T12567   4.240   4.745   9.278 -0.1074 -0.1237  2.4426
  119OSM   C16S12568   4.381   4.863   9.148  0.1065  0.0321 -0.0769
  119OSM   H16S12569   4.457   4.784   9.135  1.7684  1.6330 -0.6320
  119OSM   H16T12570   4.426   4.964   9.166  1.1363 -0.7597  2.1838
  119OSM   C17S12571   4.296   4.862   9.023  0.9949 -0.2109  0.1606
  119OSM   H17S12572   4.356   4.884   8.932  2.5950  1.3257  1.4988
  119OSM   H17T12573   4.220   4.941   9.039  0.2646 -1.0909  1.1036
  119OSM   C18S12574   4.212   4.737   8.999  0.2763  0.0224 -0.7084
  119OSM   H18S12575   4.130   4.726   9.073 -0.1271 -3.1960 -1.4516
  119OSM   H18T12576   4.277   4.647   9.014 -0.4312 -0.1908  1.4152
  119OSM   H18U12577   4.179   4.721   8.894  2.2767 -0.3702 -1.3262
  119OSM    C1F12578   4.837   4.609  10.534 -0.2829 -0.5441  0.6942
  119OSM     OF12579   4.908   4.511  10.523  0.0640  0.0467  0.3217
  119OSM    C2F12580   4.901   4.752  10.513  0.7664  0.5375 -0.3842
  119OSM    H2F12581   4.959   4.780  10.603 -0.4578 -0.8391  0.8971
  119OSM    H2G12582   4.819   4.826  10.497  1.5292  1.3158 -0.7899
  119OSM    C3F12583   5.002   4.755  10.394 -0.2930 -0.0565  0.5281
  119OSM    H3F12584   5.096   4.705  10.425  0.6844  2.3708  1.7764
  119OSM    H3G12585   5.044   4.857  10.379 -2.2244  0.6225 -0.6820
  119OSM    C4F12586   4.946   4.705  10.254  0.1822  0.5551  0.4995
  119OSM    H4F12587   4.896   4.611  10.286  1.5902  0.2262  1.9044
  119OSM    H4G12588   5.032   4.687  10.186 -0.8990 -1.4352 -0.4220
  119OSM    C5F12589   4.842   4.802  10.187  0.1618  0.0763  0.2000
  119OSM    H5F12590   4.893   4.899  10.169  0.0716  0.5528  2.2613
  119OSM    H5G12591   4.764   4.819  10.264  0.7703  1.8639  0.4677
  119OSM    C6F12592   4.770   4.745  10.069  0.4035  0.6624 -0.3338
  119OSM    H6F12593   4.702   4.823  10.031  2.0863  1.7080 -1.3257
  119OSM    H6G12594   4.710   4.656  10.099  0.8305  1.4034  3.1750
  119OSM    C7F12595   4.856   4.720   9.943  0.4368 -1.1539 -0.0231
  119OSM    H7F12596   4.957   4.682   9.968  0.2174 -0.9323  1.2785
  119OSM    H7G12597   4.879   4.816   9.891  2.2882 -1.8498 -0.5786
  119OSM    C8F12598   4.786   4.626   9.846 -0.1250  0.1862 -0.1839
  119OSM    H8F12599   4.694   4.677   9.813  0.1407  1.0498  0.3964
  119OSM    H8G12600   4.744   4.536   9.896 -0.8576  0.1819 -0.8035
  119OSM    C9F12601   4.874   4.584   9.732  0.3427  0.6645  0.0644
  119OSM    H9F12602   4.952   4.512   9.761  0.9276  1.1882 -0.1875
  119OSM   C10F12603   4.887   4.646   9.612 -0.3797  0.3096 -1.4086
  119OSM   H10F12604   4.963   4.605   9.544 -1.1781 -0.5244 -1.8297
  119OSM   C11F12605   4.800   4.760   9.566 -0.3404 -0.6408  0.6020
  119OSM   H11F12606   4.834   4.858   9.605  1.2505 -1.5826  1.7377
  119OSM   H11G12607   4.694   4.750   9.597 -0.9643  1.8719 -0.4831
  119OSM   C12F12608   4.788   4.759   9.412 -0.2355  0.8876  0.2133
  119OSM   H12F12609   4.875   4.808   9.362  0.5724  1.1420  1.8068
  119OSM   H12G12610   4.704   4.820   9.374  1.1736  1.2809 -2.5181
  119OSM   C13F12611   4.776   4.616   9.350 -0.2982  0.0066  0.0158
  119OSM   H13F12612   4.699   4.556   9.403 -1.4900  2.2385  0.9485
  119OSM   H13G12613   4.877   4.570   9.345  1.1072  2.8053  0.7677
  119OSM   C14F12614   4.716   4.628   9.206 -0.6144  0.7412  0.2417
  119OSM   H14F12615   4.782   4.698   9.151 -0.3025 -0.2838 -0.7289
  119OSM   H14G12616   4.615   4.675   9.215 -1.1197 -0.1805 -0.3835
  119OSM   C15F12617   4.707   4.494   9.132  0.6221  0.1930 -0.6197
  119OSM   H15F12618   4.690   4.417   9.210 -1.2303  1.4090  0.2541
  119OSM   H15G12619   4.805   4.465   9.090  0.3733  0.8680 -1.6928
  119OSM   C16F12620   4.619   4.493   9.011 -0.1385 -0.0527 -0.3110
  119OSM   H16F12621   4.677   4.535   8.926 -0.4205  1.6404  0.2975
  119OSM   H16G12622   4.540   4.568   9.032  0.6318  0.7864 -0.3465
  119OSM   C17F12623   4.547   4.365   8.959 -0.1762  0.0954  0.1766
  119OSM   H17F12624   4.478   4.392   8.876 -0.7124  1.2412  0.9738
  119OSM   H17G12625   4.475   4.337   9.038 -0.5247 -1.4519 -0.6509
  119OSM   C18F12626   4.626   4.246   8.913 -0.4724  0.2693  0.0523
  119OSM   H18F12627   4.548   4.177   8.874 -1.7330  1.4523  0.4063
  119OSM   H18G12628   4.665   4.191   9.001 -0.1843 -0.3482 -0.4546
  119OSM   H18H12629   4.708   4.267   8.841 -0.4819  0.4265  0.0863
  120OSM      N12630   3.911   0.995  10.802 -0.1644  0.7037  0.1385
  120OSM    C1512631   3.946   1.102  10.904  0.1810  0.8011 -0.1286
  120OSM   H15A12632   3.883   1.189  10.892  1.8568  1.9200 -1.4235
  120OSM   H15B12633   4.045   1.143  10.891  1.2847 -1.5042  0.4919
  120OSM   H15C12634   3.928   1.064  11.003 -1.1953 -0.5509 -0.8503
  120OSM    C1412635   3.976   0.870  10.845 -0.3983 -0.3133 -0.2648
  120OSM   H14A12636   4.083   0.876  10.830 -0.3658  0.8154  0.3684
  120OSM   H14B12637   3.944   0.782  10.791 -0.2264 -0.7968  0.4087
  120OSM   H14C12638   3.943   0.855  10.947  0.0594 -3.8113 -0.5195
  120OSM    C1312639   3.766   0.969  10.812 -0.3430 -0.0624 -0.0794
  120OSM   H13A12640   3.750   0.880  10.753 -1.1065 -1.1468  1.6919
  120OSM   H13B12641   3.710   1.052  10.770 -0.0384 -0.8247 -2.0626
  120OSM   H13C12642   3.729   0.955  10.913 -0.7867  1.4686  0.0001
  120OSM    C1212643   3.959   1.023  10.661 -0.3425 -0.7529  0.0906
  120OSM   H12A12644   3.947   0.935  10.599 -0.2704 -0.7314  0.0466
  120OSM   H12B12645   4.064   1.046  10.663 -0.8413  1.7344  0.0268
  120OSM    C1112646   3.899   1.139  10.576 -0.5153 -0.3840  0.5277
  120OSM   H11A12647   3.788   1.127  10.569 -0.6005  1.3122 -2.5075
  120OSM   H11B12648   3.940   1.134  10.473 -0.8351  2.1002  0.2151
  120OSM      P12649   4.068   1.325  10.637 -0.0230  0.4108 -0.3176
  120OSM    O1312650   4.069   1.456  10.702  0.1241  0.1295  0.1454
  120OSM    O1412651   4.161   1.225  10.695  0.4099 -1.0297  0.1632
  120OSM    O1112652   4.096   1.326  10.483 -0.3651  0.1445  0.3084
  120OSM    O1212653   3.926   1.263  10.639  0.2035 -0.2196  0.2071
  120OSM    C1S12654   4.162   1.439  10.426 -0.5251  0.3116 -0.4621
  120OSM    H1S12655   4.270   1.441  10.451 -0.2437  0.9145 -1.6462
  120OSM    H1T12656   4.123   1.536  10.463  1.0884  0.2642  1.5500
  120OSM     NF12657   4.201   1.576  10.230  0.0144  0.7663 -0.3935
  120OSM    HNF12658   4.124   1.637  10.214  1.3801  2.9896  1.0374
  120OSM    C2S12659   4.181   1.437  10.269  0.0336  0.0487 -0.6247
  120OSM    H2S12660   4.266   1.368  10.250 -1.2137 -1.9948  0.8670
  120OSM    C3S12661   4.061   1.367  10.199 -0.0812 -0.2200 -0.5051
  120OSM    H3S12662   3.971   1.430  10.215 -0.5839 -0.8381 -0.8426
  120OSM     O312663   3.998   1.254  10.262  0.2866  0.1022 -0.4266
  120OSM    HO312664   4.039   1.253  10.349 -1.2368 -2.2466  0.3436
  120OSM    C4S12665   4.073   1.341  10.052 -0.1060  0.2251  0.3365
  120OSM    H4S12666   4.037   1.418   9.981  1.4309  1.7474  1.1339
  120OSM    C5S12667   4.121   1.229   9.995 -0.0184  0.3295 -0.3890
  120OSM    H5S12668   4.156   1.150  10.063 -1.2680  1.0424  1.1204
  120OSM    C6S12669   4.133   1.195   9.858 -0.0909 -0.4298  0.0966
  120OSM    H6S12670   4.059   1.113   9.841 -0.3068 -0.3591  0.6377
  120OSM    H6T12671   4.232   1.148   9.841 -0.8566 -1.7560 -0.9315
  120OSM    C7S12672   4.104   1.297   9.736  0.2643 -0.2064 -0.3825
  120OSM    H7S12673   4.177   1.381   9.732 -2.2119  2.0744 -0.0448
  120OSM    H7T12674   4.004   1.340   9.758 -0.1612 -2.0839  1.7403
  120OSM    C8S12675   4.106   1.235   9.599  0.2761  0.6424  0.2754
  120OSM    H8S12676   4.041   1.145   9.604 -2.2529  2.1764 -2.2886
  120OSM    H8T12677   4.209   1.199   9.575  1.6848  3.9405  0.7818
  120OSM    C9S12678   4.058   1.322   9.474 -1.0124 -0.5069 -0.1628
  120OSM    H9S12679   4.122   1.413   9.476  1.7368 -2.2866 -1.5210
  120OSM    H9T12680   3.949   1.337   9.490 -0.6151 -0.5230  3.0940
  120OSM   C10S12681   4.096   1.251   9.344 -0.4425 -0.9065  0.2295
  120OSM   H10S12682   4.045   1.153   9.337  0.5419 -1.4070 -0.1079
  120OSM   H10T12683   4.205   1.234   9.362  0.0162  1.1805 -0.2912
  120OSM   C11S12684   4.081   1.333   9.220  0.4911  0.1409  0.1552
  120OSM   H11S12685   4.145   1.424   9.230 -0.7371  0.8825  1.8762
  120OSM   H11T12686   3.973   1.347   9.200  0.1383 -1.8384  0.4742
  120OSM   C12S12687   4.128   1.241   9.101  0.5138  0.4860  0.4673
  120OSM   H12S12688   4.043   1.170   9.106 -1.0173  2.0148 -1.5682
  120OSM   H12T12689   4.229   1.203   9.128  0.7493  1.6516  1.3420
  120OSM   C13S12690   4.126   1.308   8.963  0.3756  0.6561 -0.1242
  120OSM   H13S12691   4.153   1.235   8.884 -0.1785  0.6845 -0.3489
  120OSM   H13T12692   4.203   1.388   8.968  0.6442  0.3929 -0.0413
  120OSM   C14S12693   4.000   1.382   8.912 -0.1058 -0.5750 -0.3190
  120OSM   H14S12694   3.978   1.457   8.991  0.4712  0.1912 -0.8730
  120OSM   H14T12695   3.910   1.318   8.896 -0.4999 -0.1771  0.2498
  120OSM   C15S12696   4.016   1.462   8.782 -0.0994  0.2366 -0.4194
  120OSM   H15S12697   4.070   1.402   8.706  1.4543 -0.2517  0.9920
  120OSM   H15T12698   4.080   1.552   8.802 -0.3105  0.3577 -0.2911
  120OSM   C16S12699   3.880   1.512   8.740  0.4144  0.0983  1.0899
  120OSM   H16S12700   3.834   1.554   8.831  2.1137  4.3777  0.1936
  120OSM   H16T12701   3.808   1.442   8.692 -1.1404  0.4461  2.8150
  120OSM   C17S12702   3.905   1.638   8.645  0.6556 -0.3527 -0.0793
  120OSM   H17S12703   3.937   1.607   8.544  2.6196 -0.4842  0.5470
  120OSM   H17T12704   3.978   1.708   8.691  0.6600  1.0794 -2.0944
  120OSM   C18S12705   3.771   1.721   8.641  0.3443  0.4589  0.2351
  120OSM   H18S12706   3.691   1.655   8.602 -0.0488  2.0610 -1.8803
  120OSM   H18T12707   3.776   1.809   8.573  0.4339 -0.4811 -1.0153
  120OSM   H18U12708   3.744   1.754   8.743  0.2211 -1.1015  0.7325
  120OSM    C1F12709   4.316   1.637  10.259 -0.3306  0.0685  0.0883
  120OSM     OF12710   4.425   1.569  10.265  0.2761 -0.1362  0.5031
  120OSM    C2F12711   4.308   1.783  10.283 -0.1924 -0.1447  0.5829
  120OSM    H2F12712   4.340   1.814  10.385  2.2532  1.5782 -0.6157
  120OSM    H2G12713   4.214   1.831  10.248  0.9761  0.0943 -2.5170
  120OSM    C3F12714   4.409   1.860  10.193  1.0254 -0.0904 -0.0028
  120OSM    H3F12715   4.507   1.811  10.179  1.2525  0.3932 -0.1115
  120OSM    H3G12716   4.433   1.956  10.245  0.1642  0.5309 -0.7108
  120OSM    C4F12717   4.350   1.911  10.061  0.0918 -0.4336 -0.0655
  120OSM    H4F12718   4.397   2.004  10.022 -0.8451 -0.2752 -0.8594
  120OSM    H4G12719   4.240   1.929  10.068 -0.0874 -0.7022 -1.7844
  120OSM    C5F12720   4.365   1.808   9.943  0.0643  0.4598  0.0748
  120OSM    H5F12721   4.341   1.709   9.987  0.2424  0.7385  0.8145
  120OSM    H5G12722   4.469   1.812   9.904 -0.6037 -0.2661 -1.8758
  120OSM    C6F12723   4.274   1.829   9.827  0.2440 -0.6808 -0.0732
  120OSM    H6F12724   4.295   1.925   9.775  0.9489 -0.9284 -0.2480
  120OSM    H6G12725   4.169   1.836   9.863 -0.7605  1.8885 -3.0401
  120OSM    C7F12726   4.274   1.723   9.716  0.4251  0.2372  0.3043
  120OSM    H7F12727   4.221   1.635   9.759 -1.6685  0.9731 -0.6339
  120OSM    H7G12728   4.382   1.700   9.702  0.0351 -1.5139  0.0663
  120OSM    C8F12729   4.216   1.758   9.575  0.7262 -0.2326  0.0428
  120OSM    H8F12730   4.107   1.772   9.591  0.6134 -2.0390  1.0671
  120OSM    H8G12731   4.223   1.671   9.506 -1.5819 -0.4991  0.0410
  120OSM    C9F12732   4.285   1.877   9.513  0.4927 -0.2341  0.0030
  120OSM    H9F12733   4.351   1.934   9.580  1.5856 -0.1373 -1.1247
  120OSM   C10F12734   4.260   1.938   9.400  0.7946  0.3704  0.1582
  120OSM   H10F12735   4.321   2.026   9.374  1.0705  0.0986 -0.1381
  120OSM   C11F12736   4.150   1.908   9.303 -0.0698 -0.0935 -0.0196
  120OSM   H11F12737   4.094   2.000   9.276 -1.2904 -0.6883  0.4099
  120OSM   H11G12738   4.066   1.853   9.350 -1.5349 -0.8000 -3.2566
  120OSM   C12F12739   4.197   1.829   9.185 -0.5024 -0.0563  0.2820
  120OSM   H12F12740   4.200   1.720   9.206 -3.1106  0.0905  1.8097
  120OSM   H12G12741   4.303   1.849   9.156 -0.9958 -0.5146 -2.1214
  120OSM   C13F12742   4.108   1.843   9.058 -0.3922 -0.3937  0.4180
  120OSM   H13F12743   4.002   1.830   9.089 -1.3713  3.6567 -0.6358
  120OSM   H13G12744   4.138   1.756   8.996  2.9797  0.9144 -0.0204
  120OSM   C14F12745   4.128   1.973   8.980 -0.2758  0.7168  0.4306
  120OSM   H14F12746   4.089   1.947   8.879 -3.5731  1.0957  1.4916
  120OSM   H14G12747   4.238   1.985   8.962 -0.1479 -1.5266 -0.5955
  120OSM   C15F12748   4.049   2.097   9.028  0.2484  0.5322  1.1949
  120OSM   H15F12749   4.080   2.186   8.969  0.4975 -0.8422 -0.8495
  120OSM   H15G12750   4.076   2.122   9.133 -0.4326  1.8473  1.0685
  120OSM   C16F12751   3.894   2.074   9.028  0.6998 -0.1831 -0.2828
  120OSM   H16F12752   3.862   2.015   9.116  1.5823 -1.0466 -0.5276
  120OSM   H16G12753   3.855   2.004   8.950 -1.5920  1.1628 -0.4419
  120OSM   C17F12754   3.818   2.212   9.033 -0.4317 -0.2214 -0.3892
  120OSM   H17F12755   3.885   2.283   9.086 -2.6349  0.3658  1.7885
  120OSM   H17G12756   3.729   2.211   9.100 -0.3969  0.6621 -0.3108
  120OSM   C18F12757   3.778   2.263   8.901  0.2852  0.2367  0.3205
  120OSM   H18F12758   3.863   2.238   8.833  1.1697  1.0996  1.0914
  120OSM   H18G12759   3.775   2.374   8.902  0.5001  0.2416  0.3730
  120OSM   H18H12760   3.684   2.209   8.875 -0.2463  1.0774  0.4595
  121OSM      N12761   2.804   5.072  10.905  0.1764  0.4330  0.3201
  121OSM    C1512762   2.856   5.057  11.043  0.0353 -0.0784 -0.2603
  121OSM   H15A12763   2.900   5.150  11.075  1.2898 -0.8830  0.4757
  121OSM   H15B12764   2.930   4.979  11.055  0.5702  0.6949  2.1268
  121OSM   H15C12765   2.779   5.031  11.113  1.0652  5.3762  3.4852
  121OSM    C1412766   2.736   4.945  10.865 -0.1686  0.6926  0.0018
  121OSM   H14A12767   2.732   4.929  10.758  0.8294 -2.7054  0.3623
  121OSM   H14B12768   2.641   4.943  10.916  0.2902 -1.1137  0.8440
  121OSM   H14C12769   2.794   4.858  10.889 -0.2640  0.1548 -1.5958
  121OSM    C1312770   2.722   5.196  10.900  0.8607  0.2335  0.0202
  121OSM   H13A12771   2.777   5.287  10.919 -0.6548  0.5264  4.0913
  121OSM   H13B12772   2.653   5.197  10.983 -0.7940 -0.8953 -1.2615
  121OSM   H13C12773   2.660   5.199  10.811 -3.0935  2.3882  2.5264
  121OSM    C1212774   2.920   5.096  10.812  0.7434  0.0717  0.9052
  121OSM   H12A12775   2.885   5.146  10.722 -2.1167 -1.2769  1.1690
  121OSM   H12B12776   2.957   5.005  10.767 -0.4360 -0.0768  0.2016
  121OSM    C1112777   3.044   5.178  10.872 -0.0059 -1.2353 -0.0694
  121OSM   H11A12778   3.108   5.192  10.782 -1.6130  0.0651 -1.0737
  121OSM   H11B12779   3.096   5.110  10.943  0.3710 -1.9313 -1.0015
  121OSM      P12780   3.026   5.446  10.910 -0.0643  0.3858 -0.1963
  121OSM    O1312781   2.900   5.522  10.917  0.5943  0.4610  0.0428
  121OSM    O1412782   3.138   5.498  10.996  0.1792  0.1522  0.1778
  121OSM    O1112783   3.086   5.439  10.766  0.5007  0.0070 -0.0204
  121OSM    O1212784   3.004   5.296  10.944 -0.1242  0.4961 -0.3039
  121OSM    C1S12785   3.227   5.462  10.729 -0.3568 -0.0783  0.2437
  121OSM    H1S12786   3.300   5.399  10.784  1.0915 -0.6171 -2.1193
  121OSM    H1T12787   3.255   5.568  10.747  3.0639 -0.6707 -0.8523
  121OSM     NF12788   3.391   5.468  10.532 -0.1742 -0.2005  0.6166
  121OSM    HNF12789   3.399   5.550  10.476  3.8857 -0.3286  0.6887
  121OSM    C2S12790   3.258   5.432  10.582 -0.3866  0.6783  0.2354
  121OSM    H2S12791   3.246   5.322  10.578  0.0332  0.6597 -1.6966
  121OSM    C3S12792   3.136   5.490  10.497  0.1544  0.2537  0.1657
  121OSM    H3S12793   3.129   5.598  10.524  0.1610  0.4142 -0.4756
  121OSM     O312794   3.007   5.440  10.530 -0.0590 -0.1189  0.7140
  121OSM    HO312795   3.018   5.425  10.625  1.7628 -0.0752  0.5540
  121OSM    C4S12796   3.150   5.469  10.355  0.8847  0.4811  0.3889
  121OSM    H4S12797   3.162   5.570  10.311 -1.0754  0.3125 -0.6467
  121OSM    C5S12798   3.156   5.362  10.282  0.1102 -0.4450  0.0802
  121OSM    H5S12799   3.138   5.262  10.324  2.2223 -0.9704 -0.1284
  121OSM    C6S12800   3.171   5.370  10.135  0.1876 -0.2464 -0.8813
  121OSM    H6S12801   3.077   5.410  10.091 -1.5026 -1.3300  1.5734
  121OSM    H6T12802   3.164   5.265  10.098  0.5834 -0.1586 -1.2162
  121OSM    C7S12803   3.301   5.443  10.095  0.4747  0.2176 -0.1038
  121OSM    H7S12804   3.386   5.374  10.111 -0.6937 -1.1908  0.3220
  121OSM    H7T12805   3.315   5.533  10.159  2.2642  1.8232 -2.6233
  121OSM    C8S12806   3.305   5.495   9.946 -0.2102  0.2706  0.1455
  121OSM    H8S12807   3.393   5.560   9.932  1.2694 -1.8933 -1.2536
  121OSM    H8T12808   3.205   5.535   9.918  0.6126  1.1244 -1.7042
  121OSM    C9S12809   3.330   5.380   9.841 -0.1843  0.2971 -0.2796
  121OSM    H9S12810   3.249   5.308   9.866 -0.0855  0.0833 -0.5714
  121OSM    H9T12811   3.432   5.338   9.851  0.7689  1.7680 -2.9525
  121OSM   C10S12812   3.315   5.418   9.693 -0.3072 -0.4586 -0.1100
  121OSM   H10S12813   3.374   5.507   9.661  2.0408 -1.3364  1.5117
  121OSM   H10T12814   3.208   5.443   9.675 -1.1625 -0.7057  3.8778
  121OSM   C11S12815   3.384   5.320   9.600 -0.7981  0.6566 -0.3630
  121OSM   H11S12816   3.352   5.214   9.608  1.0944  0.0385 -0.6397
  121OSM   H11T12817   3.491   5.322   9.629 -1.1285  0.7292  0.9421
  121OSM   C12S12818   3.368   5.360   9.448 -0.0614  0.6683 -0.0979
  121OSM   H12S12819   3.441   5.303   9.387  0.1737 -1.0720  1.7133
  121OSM   H12T12820   3.388   5.469   9.437 -1.3103  1.0029  0.7378
  121OSM   C13S12821   3.226   5.328   9.396 -0.0022 -0.7235  0.1745
  121OSM   H13S12822   3.155   5.386   9.459  0.6030 -1.9348  2.0530
  121OSM   H13T12823   3.190   5.223   9.401 -2.0476  0.0013  2.4385
  121OSM   C14S12824   3.207   5.369   9.247  0.3094 -0.6463 -0.7464
  121OSM   H14S12825   3.244   5.471   9.227  1.7533 -0.8868  0.4823
  121OSM   H14T12826   3.100   5.365   9.219  0.3183 -2.3320 -0.6330
  121OSM   C15S12827   3.291   5.280   9.151 -0.0395 -0.1116  0.0997
  121OSM   H15S12828   3.252   5.177   9.158  0.7922 -0.4637 -0.4229
  121OSM   H15T12829   3.397   5.293   9.180 -0.4224 -1.5119  2.3884
  121OSM   C16S12830   3.284   5.330   9.010 -0.0086 -0.6135  0.2739
  121OSM   H16S12831   3.336   5.428   9.001 -2.4242  0.8068  0.7947
  121OSM   H16T12832   3.178   5.342   8.976  0.4591 -1.3718 -1.5824
  121OSM   C17S12833   3.344   5.241   8.904 -0.3795  0.4425  0.5478
  121OSM   H17S12834   3.302   5.138   8.908  2.1869 -0.6297  3.0356
  121OSM   H17T12835   3.452   5.220   8.916 -0.5111 -0.3656  0.3849
  121OSM   C18S12836   3.330   5.303   8.767  0.3790 -0.2462 -0.5344
  121OSM   H18S12837   3.225   5.338   8.751  0.6636  0.7579 -0.2655
  121OSM   H18T12838   3.349   5.228   8.687 -0.3084 -0.5365 -0.4400
  121OSM   H18U12839   3.404   5.385   8.765 -1.1863  1.2153 -1.2645
  121OSM    C1F12840   3.506   5.422  10.579 -0.9998 -1.4706 -0.4042
  121OSM     OF12841   3.518   5.337  10.673 -0.2276 -0.2648 -0.3996
  121OSM    C2F12842   3.628   5.501  10.540  0.2012  0.5934 -0.6227
  121OSM    H2F12843   3.672   5.532  10.637 -1.3634 -1.7844  0.9858
  121OSM    H2G12844   3.598   5.589  10.480  2.5295  0.0012 -2.8006
  121OSM    C3F12845   3.718   5.411  10.459  0.2633  0.7737  0.5338
  121OSM    H3F12846   3.723   5.312  10.509 -0.3812  0.6140  0.2764
  121OSM    H3G12847   3.824   5.443  10.447  0.9016 -0.8902  1.4348
  121OSM    C4F12848   3.665   5.394  10.314  0.3949  0.1017 -0.2176
  121OSM    H4F12849   3.633   5.490  10.270  2.8903  0.7694 -0.7022
  121OSM    H4G12850   3.571   5.333  10.315  0.6942 -0.4915 -2.4959
  121OSM    C5F12851   3.763   5.314  10.226  0.2834  0.1349 -0.1596
  121OSM    H5F12852   3.774   5.218  10.280 -1.4173  0.8087  1.4559
  121OSM    H5G12853   3.859   5.370  10.223  0.1570  0.3478 -2.6841
  121OSM    C6F12854   3.719   5.298  10.085 -0.0165  0.4319  0.1721
  121OSM    H6F12855   3.723   5.394  10.029 -0.6273 -0.9075 -2.3249
  121OSM    H6G12856   3.619   5.250  10.086  0.9600 -1.7838 -1.1130
  121OSM    C7F12857   3.797   5.191  10.005  0.1593 -0.2741 -0.5109
  121OSM    H7F12858   3.777   5.096  10.059 -0.1124 -1.0467 -1.9324
  121OSM    H7G12859   3.904   5.208  10.026 -0.2194  0.6171  0.8808
  121OSM    C8F12860   3.763   5.187   9.854  0.2498 -0.2135 -0.1721
  121OSM    H8F12861   3.802   5.277   9.802  0.5589 -0.4759 -0.3965
  121OSM    H8G12862   3.653   5.182   9.840  0.2385  0.1927 -0.2419
  121OSM    C9F12863   3.823   5.060   9.796 -0.3128 -0.5744 -0.4154
  121OSM    H9F12864   3.760   4.974   9.823  0.1082 -0.1776  2.0349
  121OSM   C10F12865   3.928   5.052   9.715 -0.4568  0.2213 -0.1824
  121OSM   H10F12866   3.962   4.953   9.682  0.9463 -0.0880  2.0032
  121OSM   C11F12867   4.009   5.167   9.660  0.2374 -0.9616 -0.9500
  121OSM   H11F12868   4.114   5.128   9.661  0.7781  0.3707  1.2458
  121OSM   H11G12869   4.011   5.257   9.724  0.3898 -0.3508 -1.7959
  121OSM   C12F12870   3.961   5.203   9.524 -0.3374 -0.1644 -0.8916
  121OSM   H12F12871   4.008   5.298   9.491 -2.1486  1.1216  0.0429
  121OSM   H12G12872   3.853   5.231   9.522 -0.9973 -2.4816 -0.6583
  121OSM   C13F12873   3.988   5.097   9.416 -0.1292  0.2532  0.1931
  121OSM   H13F12874   3.933   5.001   9.423  1.9513 -1.0530 -0.1893
  121OSM   H13G12875   4.094   5.062   9.423  0.4730  2.2107  1.7250
  121OSM   C14F12876   3.972   5.161   9.281  0.6953 -0.6566 -0.2141
  121OSM   H14F12877   4.004   5.084   9.207 -1.9062 -0.4275 -1.7104
  121OSM   H14G12878   4.030   5.255   9.270  0.2127 -0.4736 -1.3636
  121OSM   C15F12879   3.834   5.207   9.232 -0.0971 -0.4600 -0.2803
  121OSM   H15F12880   3.810   5.282   9.310  0.1096 -0.4389 -0.2355
  121OSM   H15G12881   3.755   5.130   9.235 -0.3890 -0.1398  1.5103
  121OSM   C16F12882   3.845   5.272   9.093  0.2989 -1.0336  0.6782
  121OSM   H16F12883   3.857   5.184   9.026  1.5691 -1.2068  1.1061
  121OSM   H16G12884   3.930   5.342   9.075  1.3759 -1.8008  2.4812
  121OSM   C17F12885   3.721   5.355   9.045  0.1066  0.2025 -0.5164
  121OSM   H17F12886   3.706   5.448   9.104 -1.5049 -0.2934 -0.0950
  121OSM   H17G12887   3.632   5.293   9.072 -0.5597  0.8251 -1.2444
  121OSM   C18F12888   3.713   5.403   8.902 -0.2055 -0.2177  0.0938
  121OSM   H18F12889   3.689   5.312   8.843 -0.9133 -1.1785  1.7881
  121OSM   H18G12890   3.800   5.463   8.867  0.7574 -1.0696  0.9352
  121OSM   H18H12891   3.627   5.473   8.893  0.3049  0.6954  1.8464
  122OSM      N12892   2.596   2.511  10.969  0.6744  0.4672 -0.5186
  122OSM    C1512893   2.659   2.400  11.055 -0.4209 -0.5539 -0.3419
  122OSM   H15A12894   2.628   2.303  11.019 -0.9157 -2.0754  3.7019
  122OSM   H15B12895   2.632   2.420  11.157  2.2481  0.9233  0.1744
  122OSM   H15C12896   2.767   2.401  11.046 -0.2509 -3.2863  0.4821
  122OSM    C1412897   2.458   2.535  11.009  0.8255  0.0010  0.0273
  122OSM   H14A12898   2.412   2.618  10.958  4.2465  0.8922 -1.8721
  122OSM   H14B12899   2.449   2.553  11.115 -2.8032 -0.5122 -0.0490
  122OSM   H14C12900   2.399   2.445  10.996 -0.7566  1.2888 -2.2869
  122OSM    C1312901   2.679   2.633  10.987  0.2231 -0.7600 -0.8280
  122OSM   H13A12902   2.778   2.615  10.950  0.3531  0.4085 -1.0653
  122OSM   H13B12903   2.668   2.664  11.090 -1.9377 -1.1696 -0.8863
  122OSM   H13C12904   2.645   2.717  10.929 -1.1259 -0.8824 -0.2543
  122OSM    C1212905   2.608   2.468  10.827 -0.0008  0.0308  1.0730
  122OSM   H12A12906   2.580   2.551  10.763  2.5521 -0.4276 -0.7573
  122OSM   H12B12907   2.530   2.395  10.808  0.9559 -0.8972  0.6525
  122OSM    C1112908   2.748   2.422  10.780  0.5643  0.4156 -0.3997
  122OSM   H11A12909   2.739   2.398  10.672  0.4073 -1.3533 -0.0297
  122OSM   H11B12910   2.767   2.323  10.828  1.3647  0.0528 -1.4264
  122OSM      P12911   2.993   2.496  10.759 -0.0011 -0.1229  0.1793
  122OSM    O1312912   3.090   2.511  10.868  0.8346 -0.0572  0.0157
  122OSM    O1412913   3.002   2.386  10.664  0.2128  0.3302 -0.5258
  122OSM    O1112914   3.008   2.626  10.680 -0.1178 -0.3221 -0.1538
  122OSM    O1212915   2.849   2.513  10.817  0.0651  0.2040 -0.3818
  122OSM    C1S12916   3.056   2.632  10.550  0.0740 -0.0601 -0.3005
  122OSM    H1S12917   3.129   2.553  10.523  0.8972  0.2457  0.9770
  122OSM    H1T12918   3.106   2.730  10.537  1.7935 -0.6774  1.2551
  122OSM     NF12919   3.018   2.614  10.310 -0.4323  0.0615  0.2427
  122OSM    HNF12920   3.043   2.703  10.270  0.8896  0.5068  1.9373
  122OSM    C2S12921   2.950   2.624  10.437  0.0833 -0.3855 -0.0545
  122OSM    H2S12922   2.893   2.531  10.457  1.8719 -1.2797  1.1522
  122OSM    C3S12923   2.850   2.746  10.437  0.4668 -0.1689  0.2968
  122OSM    H3S12924   2.900   2.843  10.417  0.3316 -0.2167 -0.2751
  122OSM     O312925   2.785   2.762  10.566  0.1497 -0.0133  0.2249
  122OSM    HO312926   2.841   2.715  10.629 -0.1400  0.2584  0.6885
  122OSM    C4S12927   2.746   2.705  10.333 -0.2311 -0.0940 -0.0401
  122OSM    H4S12928   2.762   2.753  10.235 -1.3758 -0.6703 -0.5170
  122OSM    C5S12929   2.626   2.644  10.352  0.0928  1.0947  0.0417
  122OSM    H5S12930   2.601   2.613  10.455 -0.5254  3.4301  0.6385
  122OSM    C6S12931   2.519   2.606  10.248 -0.2536 -0.4187 -0.6314
  122OSM    H6S12932   2.451   2.691  10.229  2.1286  1.7518 -0.0314
  122OSM    H6T12933   2.466   2.514  10.281  1.3042 -0.6563  1.4633
  122OSM    C7S12934   2.574   2.565  10.108 -0.3829 -0.6759 -0.5276
  122OSM    H7S12935   2.627   2.468  10.110  0.3543 -0.4419 -3.6393
  122OSM    H7T12936   2.643   2.640  10.063 -1.9961  0.9589 -0.3923
  122OSM    C8S12937   2.449   2.543  10.019  0.0919 -0.2764  0.2719
  122OSM    H8S12938   2.388   2.635  10.010  0.6764  0.0856 -0.0401
  122OSM    H8T12939   2.380   2.474  10.071  2.0241 -1.3596  1.5353
  122OSM    C9S12940   2.473   2.489   9.876  0.3863  0.5082  0.1656
  122OSM    H9S12941   2.379   2.453   9.828 -1.2386  0.0283  3.4224
  122OSM    H9T12942   2.538   2.401   9.895 -0.4087 -1.2467 -4.0578
  122OSM   C10S12943   2.541   2.588   9.788  0.3549  0.1979 -0.4254
  122OSM   H10S12944   2.648   2.583   9.816 -0.3858  0.7212  2.9741
  122OSM   H10T12945   2.505   2.693   9.797 -3.4689 -0.7846 -2.1419
  122OSM   C11S12946   2.541   2.553   9.636 -0.2204 -0.2384  0.8008
  122OSM   H11S12947   2.440   2.567   9.592 -1.0687 -3.5156  1.4755
  122OSM   H11T12948   2.546   2.443   9.623 -1.5274  0.0153 -3.3807
  122OSM   C12S12949   2.656   2.613   9.546  0.2915 -0.6939  0.8434
  122OSM   H12S12950   2.741   2.606   9.616  2.3089  0.2289 -1.3798
  122OSM   H12T12951   2.640   2.716   9.506 -0.4758 -0.7235  1.0463
  122OSM   C13S12952   2.696   2.522   9.429  0.1159  0.0135  0.1020
  122OSM   H13S12953   2.742   2.430   9.471  2.2256  1.0818  0.2838
  122OSM   H13T12954   2.775   2.580   9.375  1.3686 -1.5124  0.2055
  122OSM   C14S12955   2.579   2.499   9.339  0.0442  0.6378  0.0031
  122OSM   H14S12956   2.533   2.598   9.317 -1.1935 -0.1945 -1.3182
  122OSM   H14T12957   2.497   2.442   9.387 -0.5631  1.5869  0.1200
  122OSM   C15S12958   2.622   2.449   9.194  0.0037 -0.0548 -0.2706
  122OSM   H15S12959   2.686   2.364   9.226  1.1727  1.3470  1.2942
  122OSM   H15T12960   2.694   2.525   9.156  1.4053 -1.3598 -0.3135
  122OSM   C16S12961   2.515   2.406   9.098  0.6257  0.1852  0.2530
  122OSM   H16S12962   2.438   2.349   9.155  1.6631 -0.9050  0.6102
  122OSM   H16T12963   2.554   2.334   9.023  0.5943 -0.6738  1.0369
  122OSM   C17S12964   2.436   2.515   9.015 -0.6018 -0.2936  0.3398
  122OSM   H17S12965   2.509   2.556   8.941 -1.3671 -1.1650 -0.9320
  122OSM   H17T12966   2.408   2.605   9.073  1.0104  0.7450 -0.4049
  122OSM   C18S12967   2.318   2.463   8.933  0.8777 -0.7680 -0.1674
  122OSM   H18S12968   2.234   2.425   8.995  0.8406 -2.7453 -1.3606
  122OSM   H18T12969   2.363   2.380   8.875  1.4510 -2.1786  2.1415
  122OSM   H18U12970   2.279   2.545   8.869  0.6466 -1.6353 -1.1523
  122OSM    C1F12971   3.089   2.513  10.258  0.7778 -0.1477 -0.5540
  122OSM     OF12972   3.123   2.411  10.323  0.1647  0.0881 -0.1240
  122OSM    C2F12973   3.144   2.532  10.116  0.6754  0.1284 -0.6875
  122OSM    H2F12974   3.255   2.529  10.119  0.6562 -0.7586 -0.4315
  122OSM    H2G12975   3.094   2.622  10.075 -0.9694 -0.5999 -0.3591
  122OSM    C3F12976   3.095   2.415  10.028  0.0241 -0.5695  0.4622
  122OSM    H3F12977   3.147   2.322  10.056  3.0122 -0.6385 -4.2052
  122OSM    H3G12978   3.143   2.435   9.929 -0.6446 -0.0708  0.2320
  122OSM    C4F12979   2.945   2.383  10.002 -0.4516  0.2482 -0.2617
  122OSM    H4F12980   2.886   2.468   9.961 -0.2359  0.4651 -0.1275
  122OSM    H4G12981   2.898   2.339  10.092 -1.3185 -2.3510 -1.8759
  122OSM    C5F12982   2.930   2.276   9.898  0.1205  0.5966  0.6448
  122OSM    H5F12983   2.951   2.173   9.935 -0.5127  0.8957  1.8958
  122OSM    H5G12984   3.000   2.285   9.813  0.1624 -1.8288  0.3367
  122OSM    C6F12985   2.795   2.281   9.839  0.2433 -0.0748 -0.5727
  122OSM    H6F12986   2.790   2.359   9.760 -0.5780  0.4407 -0.0299
  122OSM    H6G12987   2.718   2.314   9.912  1.2273 -1.9189  1.4273
  122OSM    C7F12988   2.739   2.149   9.778  0.3730  0.1680 -0.0926
  122OSM    H7F12989   2.640   2.181   9.739  0.1759  1.7462  1.5491
  122OSM    H7G12990   2.713   2.073   9.854 -0.6502  0.7137  0.1188
  122OSM    C8F12991   2.821   2.091   9.655  0.2414 -0.1588 -0.0498
  122OSM    H8F12992   2.920   2.049   9.679  1.0704  1.4078 -0.5593
  122OSM    H8G12993   2.845   2.168   9.579  0.2494  0.3978  0.5029
  122OSM    C9F12994   2.732   1.982   9.601  0.1569  0.0094  0.2503
  122OSM    H9F12995   2.685   1.920   9.679 -0.9320 -1.4403 -1.4780
  122OSM   C10F12996   2.706   1.947   9.471 -0.9134 -0.3528  0.2806
  122OSM   H10F12997   2.634   1.866   9.453 -1.4212  0.0109  0.6300
  122OSM   C11F12998   2.749   2.017   9.347  0.3279  0.3097 -0.7743
  122OSM   H11F12999   2.855   1.989   9.326  0.4047 -0.1894  0.2278
  122OSM   H11G13000   2.749   2.128   9.357  0.8573  0.1450  1.8023
  122OSM   C12F13001   2.653   1.978   9.229 -0.4622 -0.2131 -0.3337
  122OSM   H12F13002   2.550   1.980   9.271  0.4325  0.7951  1.9871
  122OSM   H12G13003   2.671   1.869   9.215  0.2835 -0.1231 -0.1320
  122OSM   C13F13004   2.681   2.058   9.104 -0.1267  0.2905 -0.0171
  122OSM   H13F13005   2.785   2.041   9.069  0.3671 -0.8182  1.8491
  122OSM   H13G13006   2.672   2.166   9.126  1.6616  0.1763  1.5038
  122OSM   C14F13007   2.597   2.005   8.991 -0.4177 -0.0208  0.1047
  122OSM   H14F13008   2.603   1.894   8.989 -1.9696 -0.1221 -1.8615
  122OSM   H14G13009   2.651   2.037   8.899 -0.0644 -0.2481  0.2308
  122OSM   C15F13010   2.450   2.043   8.975  0.2547  0.8407 -0.4754
  122OSM   H15F13011   2.430   2.152   8.990  0.2584  1.5210 -4.3354
  122OSM   H15G13012   2.392   1.988   9.053  2.1284  1.8275  1.7444
  122OSM   C16F13013   2.379   1.999   8.840  0.0824 -0.4586  0.2653
  122OSM   H16F13014   2.269   2.005   8.851  0.0294  1.2860 -0.7902
  122OSM   H16G13015   2.410   1.893   8.833 -0.1569 -0.5017 -0.1656
  122OSM   C17F13016   2.435   2.055   8.713  0.1886 -0.3141  1.0151
  122OSM   H17F13017   2.543   2.080   8.723  0.8901 -2.0402 -1.3023
  122OSM   H17G13018   2.397   2.155   8.684  0.1620 -0.2086  1.4228
  122OSM   C18F13019   2.413   1.962   8.600  0.7568  0.6545  1.1534
  122OSM   H18F13020   2.308   1.960   8.565  1.3524 -0.7897 -0.6981
  122OSM   H18G13021   2.423   1.854   8.624 -0.9938  0.7630  2.5539
  122OSM   H18H13022   2.475   1.999   8.516 -0.4882  0.9751  0.3564
  123OSM      N13023   6.710   1.509   5.874  0.4901 -0.2880 -0.2475
  123OSM    C1513024   6.779   1.406   5.795 -0.6693  0.0684  0.1104
  123OSM   H15A13025   6.767   1.314   5.850 -0.6106  0.1693  0.2911
  123OSM   H15B13026   6.885   1.422   5.782 -0.5553  0.9887  1.8539
  123OSM   H15C13027   6.733   1.393   5.698 -0.7344 -0.5842  0.2245
  123OSM    C1413028   6.707   1.636   5.793 -0.8806  0.2648  0.1477
  123OSM   H14A13029   6.811   1.662   5.780 -0.5349  0.1395  2.2831
  123OSM   H14B13030   6.660   1.715   5.848 -0.1960 -1.3584  3.2716
  123OSM   H14C13031   6.658   1.618   5.698  0.3358  0.4230 -0.5309
  123OSM    C1313032   6.568   1.468   5.901  0.2913  0.1918 -0.7035
  123OSM   H13A13033   6.564   1.365   5.931 -0.0392  0.4460  0.1634
  123OSM   H13B13034   6.509   1.476   5.812 -2.5126 -0.8225  0.9319
  123OSM   H13C13035   6.524   1.527   5.980  0.3041 -1.3672  0.5198
  123OSM    C1213036   6.781   1.525   6.012  0.3490 -0.8322 -0.3315
  123OSM   H12A13037   6.887   1.535   5.992  0.2481 -1.7638 -1.4294
  123OSM   H12B13038   6.755   1.440   6.072 -1.0309  0.0521  0.3902
  123OSM    C1113039   6.735   1.649   6.096 -0.7023  0.1205  0.4025
  123OSM   H11A13040   6.749   1.740   6.034 -2.1968  1.1205  1.4592
  123OSM   H11B13041   6.811   1.649   6.177  2.5037  1.4584 -2.3366
  123OSM      P13042   6.572   1.532   6.269  0.3278 -0.0927  0.4969
  123OSM    O1313043   6.430   1.540   6.305 -0.0475  0.6710  0.0995
  123OSM    O1413044   6.626   1.397   6.246 -0.0545  0.7511 -0.1265
  123OSM    O1113045   6.653   1.596   6.394  0.3756  0.3206 -0.8325
  123OSM    O1213046   6.606   1.629   6.146 -0.0340 -0.4647  0.4137
  123OSM    C1S13047   6.626   1.729   6.430 -0.1391 -0.5863 -0.2929
  123OSM    H1S13048   6.519   1.734   6.459  0.0566  0.5196  0.3012
  123OSM    H1T13049   6.648   1.798   6.345 -0.8378  1.0453  0.8081
  123OSM     NF13050   6.679   1.901   6.595 -0.4465  0.2204  0.0664
  123OSM    HNF13051   6.749   1.969   6.575  0.0154 -0.4597 -0.7212
  123OSM    C2S13052   6.707   1.771   6.550 -0.5594  0.4683 -0.6460
  123OSM    H2S13053   6.673   1.702   6.630  0.4938  1.0053  0.2951
  123OSM    C3S13054   6.860   1.742   6.532  0.4463  0.1484  0.7209
  123OSM    H3S13055   6.895   1.824   6.465 -0.8117  1.5640  1.7096
  123OSM     O313056   6.900   1.621   6.464  0.7152 -0.0397 -0.0661
  123OSM    HO313057   6.814   1.599   6.428  1.0471  0.2726 -1.0842
  123OSM    C4S13058   6.925   1.756   6.663  0.4752 -0.1749  0.2819
  123OSM    H4S13059   6.887   1.678   6.730 -1.4443 -1.1986 -1.8714
  123OSM    C5S13060   7.016   1.851   6.706  0.4117 -0.2286  0.9773
  123OSM    H5S13061   7.044   1.923   6.627  0.7017 -0.8488  0.5010
  123OSM    C6S13062   7.087   1.855   6.840  0.2733 -0.1218 -0.1833
  123OSM    H6S13063   7.030   1.930   6.899 -1.5234 -0.2531 -1.6577
  123OSM    H6T13064   7.189   1.898   6.827  0.8596 -1.2366  0.5235
  123OSM    C7S13065   7.074   1.716   6.914 -0.1704 -0.8506  0.4036
  123OSM    H7S13066   7.123   1.640   6.850 -0.3362 -0.0826 -0.6694
  123OSM    H7T13067   6.965   1.699   6.926 -0.3507 -0.1472 -0.1293
  123OSM    C8S13068   7.141   1.727   7.052  0.0647  0.1046 -0.4494
  123OSM    H8S13069   7.252   1.735   7.042  0.6244 -1.5695  2.9858
  123OSM    H8T13070   7.132   1.625   7.094 -2.2286  1.3223  2.2791
  123OSM    C9S13071   7.085   1.823   7.158  0.2925 -0.2882 -0.3326
  123OSM    H9S13072   6.974   1.816   7.154  0.3801 -2.2296 -0.1515
  123OSM    H9T13073   7.115   1.929   7.142  1.9873 -0.7748 -0.6004
  123OSM   C10S13074   7.125   1.783   7.299 -0.1576 -0.0974  0.1048
  123OSM   H10S13075   7.236   1.783   7.312 -0.1995 -1.2075  0.6490
  123OSM   H10T13076   7.096   1.677   7.315  1.4852 -0.7703 -1.0689
  123OSM   C11S13077   7.064   1.869   7.407  0.0677 -0.2151 -0.0930
  123OSM   H11S13078   6.957   1.886   7.382 -0.1422 -0.2645  0.7478
  123OSM   H11T13079   7.105   1.972   7.397 -1.1809  0.3120  0.0462
  123OSM   C12S13080   7.078   1.815   7.546  0.3794  0.1309 -0.8039
  123OSM   H12S13081   7.185   1.789   7.560  0.3517  0.5719  0.3056
  123OSM   H12T13082   7.007   1.730   7.548 -1.2939  1.4789  0.1964
  123OSM   C13S13083   7.022   1.904   7.649 -0.3821  0.5831  0.1561
  123OSM   H13S13084   6.917   1.925   7.618 -0.5645  0.8433  0.9029
  123OSM   H13T13085   7.069   2.004   7.642 -2.1741  1.4028 -0.9305
  123OSM   C14S13086   7.028   1.844   7.791  0.1001 -0.0950 -0.0126
  123OSM   H14S13087   6.955   1.759   7.791 -0.2962  0.2423 -0.0551
  123OSM   H14T13088   7.000   1.923   7.864  3.1378 -0.2120  1.4280
  123OSM   C15S13089   7.160   1.788   7.834  0.4637  0.0623 -0.0077
  123OSM   H15S13090   7.231   1.873   7.824 -1.6973  1.7459 -2.3518
  123OSM   H15T13091   7.195   1.703   7.771 -2.2164 -1.4630  0.3904
  123OSM   C16S13092   7.160   1.759   7.979  0.4358 -0.0462  0.5114
  123OSM   H16S13093   7.111   1.666   8.014  0.4715 -0.2517  0.0142
  123OSM   H16T13094   7.109   1.842   8.033  1.0055  0.5111  0.1970
  123OSM   C17S13095   7.307   1.766   8.037  0.0041 -0.0905 -0.2622
  123OSM   H17S13096   7.355   1.864   8.012 -1.9874  1.6247  2.1980
  123OSM   H17T13097   7.381   1.685   8.019 -0.6279 -0.6130 -0.5185
  123OSM   C18S13098   7.310   1.773   8.197 -0.3819  0.6537  0.0587
  123OSM   H18S13099   7.410   1.792   8.241 -0.3321  0.1989  0.1479
  123OSM   H18T13100   7.260   1.684   8.240  0.1830  0.3408  0.0867
  123OSM   H18U13101   7.239   1.851   8.230 -0.2117  0.0394  1.9573
  123OSM    C1F13102   6.560   1.946   6.644 -0.6135  0.1411  0.3216
  123OSM     OF13103   6.466   1.871   6.659 -0.3747  0.0602 -0.1529
  123OSM    C2F13104   6.563   2.091   6.666 -0.4803  0.0380 -0.1380
  123OSM    H2F13105   6.459   2.129   6.669  0.2434  2.5071 -2.4458
  123OSM    H2G13106   6.604   2.142   6.577 -0.5802 -0.9287 -0.7511
  123OSM    C3F13107   6.637   2.124   6.800  0.0037  0.8096 -0.2270
  123OSM    H3F13108   6.635   2.234   6.814  0.1597  0.6576  1.1240
  123OSM    H3G13109   6.743   2.090   6.795 -0.2253  0.2752 -1.9066
  123OSM    C4F13110   6.580   2.054   6.929  0.7197  0.4591 -0.4810
  123OSM    H4F13111   6.485   1.997   6.925 -1.3475  3.5784  0.5692
  123OSM    H4G13112   6.557   2.141   6.995  1.7471 -0.8577  1.7114
  123OSM    C5F13113   6.688   1.968   6.996  0.4693 -0.5613 -0.1796
  123OSM    H5F13114   6.777   2.034   6.990  0.1786 -0.0448  0.9950
  123OSM    H5G13115   6.706   1.876   6.936  4.2090 -1.6370  2.2737
  123OSM    C6F13116   6.650   1.927   7.143  0.0790  0.8398  0.0138
  123OSM    H6F13117   6.629   2.020   7.200 -4.8567 -0.1578  0.2482
  123OSM    H6G13118   6.735   1.871   7.189  0.9901  2.4649  0.3857
  123OSM    C7F13119   6.519   1.847   7.159  0.4820  1.0655  0.2118
  123OSM    H7F13120   6.535   1.762   7.088  0.2218  1.4953 -0.3670
  123OSM    H7G13121   6.446   1.920   7.120  1.6702  1.2615 -1.8263
  123OSM    C8F13122   6.493   1.806   7.303  0.3190 -0.4009  0.6205
  123OSM    H8F13123   6.388   1.772   7.308 -0.3567  1.4351 -0.4045
  123OSM    H8G13124   6.508   1.890   7.375 -1.7699  2.5177 -2.0946
  123OSM    C9F13125   6.579   1.678   7.327 -0.1449 -0.2496 -0.0343
  123OSM    H9F13126   6.585   1.605   7.245  0.2366 -1.9368  1.4553
  123OSM   C10F13127   6.635   1.639   7.442 -0.3038 -0.5658 -0.0023
  123OSM   H10F13128   6.686   1.541   7.453  0.0305 -0.4486 -0.4892
  123OSM   C11F13129   6.619   1.718   7.568 -0.6857 -0.4876  0.8075
  123OSM   H11F13130   6.512   1.740   7.590 -1.0975 -1.2817 -0.3271
  123OSM   H11G13131   6.692   1.802   7.573 -1.4595  0.2119  0.6545
  123OSM   C12F13132   6.660   1.632   7.686  0.0653  0.5802 -0.2610
  123OSM   H12F13133   6.771   1.628   7.691 -0.0182 -2.4712  1.4269
  123OSM   H12G13134   6.614   1.532   7.697 -0.4291  0.7915 -0.4018
  123OSM   C13F13135   6.623   1.718   7.815  0.1831  0.4326  0.8524
  123OSM   H13F13136   6.513   1.733   7.820  0.1323  0.2230  0.3523
  123OSM   H13G13137   6.652   1.822   7.790  0.8915  0.4549  1.6986
  123OSM   C14F13138   6.686   1.664   7.940 -0.0028  0.9736 -0.9772
  123OSM   H14F13139   6.667   1.740   8.018  0.6751 -0.4119  0.5867
  123OSM   H14G13140   6.795   1.651   7.928 -0.2731 -1.7313 -1.2027
  123OSM   C15F13141   6.616   1.537   7.995 -0.1633 -0.3402 -0.1799
  123OSM   H15F13142   6.635   1.448   7.931  2.5842 -0.3419  0.5408
  123OSM   H15G13143   6.509   1.550   8.024  0.2914 -0.7973  1.8302
  123OSM   C16F13144   6.669   1.491   8.132  0.2582  0.1018 -0.4785
  123OSM   H16F13145   6.644   1.562   8.214  1.3393  0.2714 -0.2737
  123OSM   H16G13146   6.780   1.499   8.125  0.0464  2.9830 -2.3975
  123OSM   C17F13147   6.628   1.350   8.167  0.2871  0.1264  0.8189
  123OSM   H17F13148   6.671   1.282   8.090 -0.6842 -1.5592  1.7102
  123OSM   H17G13149   6.517   1.347   8.168  0.2592  0.9571  2.2354
  123OSM   C18F13150   6.675   1.307   8.310 -0.2487  0.2768 -0.6528
  123OSM   H18F13151   6.786   1.305   8.312 -0.2433 -0.7710 -1.6810
  123OSM   H18G13152   6.636   1.204   8.325  1.8323 -0.9346 -2.9340
  123OSM   H18H13153   6.628   1.384   8.375 -0.3280  2.3147 -2.9985
  124OSM      N13154   2.807   5.680   6.185 -0.1154  0.7795 -0.7048
  124OSM    C1513155   2.703   5.777   6.208 -0.5038  0.3326 -0.2096
  124OSM   H15A13156   2.621   5.750   6.144  0.2399 -1.2344 -0.5348
  124OSM   H15B13157   2.738   5.879   6.205  0.6140 -0.0383 -0.2236
  124OSM   H15C13158   2.666   5.752   6.307 -0.7674 -0.9911 -0.6254
  124OSM    C1413159   2.839   5.689   6.034  0.1979  0.2245  0.0639
  124OSM   H14A13160   2.879   5.784   6.003 -2.1639  0.6985 -1.8381
  124OSM   H14B13161   2.750   5.661   5.980 -0.4562 -1.3790  1.8522
  124OSM   H14C13162   2.909   5.608   6.022  0.6708  0.9905 -3.0268
  124OSM    C1313163   2.927   5.706   6.256  0.5612  0.7597  0.9075
  124OSM   H13A13164   2.970   5.800   6.226 -1.2504  1.2349 -0.3549
  124OSM   H13B13165   2.999   5.627   6.243 -1.5929 -0.9342 -1.7670
  124OSM   H13C13166   2.899   5.715   6.360 -1.1554 -1.4367  0.7105
  124OSM    C1213167   2.747   5.528   6.207  1.0403 -0.1329 -0.0375
  124OSM   H12A13168   2.815   5.455   6.166 -1.2703 -1.9605 -0.8014
  124OSM   H12B13169   2.656   5.518   6.151  1.1014 -0.3796 -0.0920
  124OSM    C1113170   2.715   5.490   6.355 -0.4885  0.2469  0.0950
  124OSM   H11A13171   2.797   5.530   6.417  1.2765 -1.0437 -1.2900
  124OSM   H11B13172   2.714   5.380   6.372 -3.9932 -0.3353 -2.6229
  124OSM      P13173   2.472   5.465   6.434 -0.5002  0.2524  0.0831
  124OSM    O1313174   2.378   5.559   6.499 -0.0656  0.0504  0.1555
  124OSM    O1413175   2.432   5.406   6.307 -0.6321  1.0070  0.1689
  124OSM    O1113176   2.525   5.360   6.535 -0.0222  0.6679 -0.5126
  124OSM    O1213177   2.598   5.552   6.400 -0.3683 -0.3620  0.1616
  124OSM    C1S13178   2.578   5.408   6.670  0.4112 -0.0306 -0.1082
  124OSM    H1S13179   2.640   5.499   6.660 -1.9856  1.6532 -0.7807
  124OSM    H1T13180   2.646   5.328   6.704  1.5118  1.2882  0.8764
  124OSM     NF13181   2.532   5.479   6.910  0.2540  0.1376  0.0139
  124OSM    HNF13182   2.548   5.409   6.980 -2.2260 -0.5739 -0.0394
  124OSM    C2S13183   2.468   5.426   6.788  0.1994  0.3880  0.4197
  124OSM    H2S13184   2.401   5.509   6.757  2.3266  1.5055 -1.4926
  124OSM    C3S13185   2.389   5.293   6.806 -0.7791 -0.2881  0.3631
  124OSM    H3S13186   2.454   5.226   6.867  1.3427  0.2728 -1.2194
  124OSM     O313187   2.356   5.225   6.687  0.3207 -0.4061 -0.3188
  124OSM    HO313188   2.402   5.271   6.616 -1.4959  0.1971 -1.1520
  124OSM    C4S13189   2.267   5.325   6.886 -0.3236  0.4038  0.2459
  124OSM    H4S13190   2.190   5.384   6.834 -1.5381 -2.3012 -1.2197
  124OSM    C5S13191   2.239   5.281   7.014 -0.2212 -0.1034  0.2850
  124OSM    H5S13192   2.315   5.219   7.062 -2.4769 -2.4565  1.0771
  124OSM    C6S13193   2.117   5.313   7.092 -0.1374 -0.0149 -0.3428
  124OSM    H6S13194   2.037   5.245   7.057 -0.0349  0.7897 -2.2675
  124OSM    H6T13195   2.090   5.418   7.067 -1.6366 -0.8326 -2.4564
  124OSM    C7S13196   2.157   5.297   7.231 -0.4944  0.2282  0.1178
  124OSM    H7S13197   2.246   5.356   7.260  0.6850 -1.1444 -0.5973
  124OSM    H7T13198   2.187   5.193   7.254 -0.2548  0.2877  0.0706
  124OSM    C8S13199   2.046   5.337   7.323 -0.0607 -0.3582 -0.3622
  124OSM    H8S13200   1.949   5.306   7.277  0.0362 -0.7038 -0.3379
  124OSM    H8T13201   2.032   5.447   7.328  1.5525 -0.1401  0.0275
  124OSM    C9S13202   2.058   5.277   7.462  0.6527 -0.0909 -0.2293
  124OSM    H9S13203   2.083   5.169   7.464  0.9026 -0.0252  0.6826
  124OSM    H9T13204   1.954   5.288   7.500 -0.0949 -3.0054 -1.1562
  124OSM   C10S13205   2.150   5.349   7.565 -0.0907 -0.2034 -0.5190
  124OSM   H10S13206   2.139   5.460   7.575  2.1020  0.1539 -1.4707
  124OSM   H10T13207   2.257   5.341   7.536 -0.2516 -2.1318 -0.7090
  124OSM   C11S13208   2.124   5.288   7.704 -0.3027 -0.4097  0.5614
  124OSM   H11S13209   2.129   5.178   7.693 -1.7084 -0.6062  1.5805
  124OSM   H11T13210   2.021   5.310   7.740 -0.2642  2.2999 -0.7606
  124OSM   C12S13211   2.224   5.333   7.818  0.6504  0.6646 -0.7425
  124OSM   H12S13212   2.205   5.440   7.842 -1.1453  0.2480 -0.1621
  124OSM   H12T13213   2.325   5.333   7.773  0.4797  0.9592 -1.1329
  124OSM   C13S13214   2.192   5.256   7.945 -0.0537  0.7184  0.2830
  124OSM   H13S13215   2.249   5.165   7.920  0.2468  1.3689 -1.5530
  124OSM   H13T13216   2.084   5.235   7.962  0.0931  1.3014  2.2228
  124OSM   C14S13217   2.221   5.337   8.076  0.0111  0.5278  0.7920
  124OSM   H14S13218   2.151   5.423   8.076 -1.5962 -0.6725 -1.4436
  124OSM   H14T13219   2.329   5.363   8.080  0.4646 -0.4886 -2.1256
  124OSM   C15S13220   2.197   5.240   8.190 -0.1620 -0.8399 -0.0311
  124OSM   H15S13221   2.257   5.150   8.166  1.6728  0.6276 -1.1466
  124OSM   H15T13222   2.087   5.225   8.184 -0.5890  1.9779 -0.6113
  124OSM   C16S13223   2.231   5.291   8.331 -0.1577  0.0747  0.2027
  124OSM   H16S13224   2.340   5.288   8.354  0.0163 -1.9757 -0.6524
  124OSM   H16T13225   2.179   5.224   8.403 -1.5830  2.7394  1.8022
  124OSM   C17S13226   2.171   5.433   8.356 -0.2135 -0.3111 -0.4384
  124OSM   H17S13227   2.064   5.440   8.326 -0.8945 -2.5818  1.1980
  124OSM   H17T13228   2.227   5.501   8.288  4.8087 -3.0518  0.4652
  124OSM   C18S13229   2.173   5.468   8.507  0.5169 -0.3340  0.5332
  124OSM   H18S13230   2.110   5.407   8.574 -0.8329  1.6433  1.1720
  124OSM   H18T13231   2.114   5.562   8.517 -0.7590 -1.0715  0.1845
  124OSM   H18U13232   2.276   5.479   8.548  1.5640 -3.2631 -1.0734
  124OSM    C1F13233   2.591   5.596   6.912 -0.0813  0.6945 -1.1818
  124OSM     OF13234   2.584   5.683   6.831  0.2765 -0.1792  0.0815
  124OSM    C2F13235   2.697   5.601   7.018 -0.3013  0.0587  0.2121
  124OSM    H2F13236   2.790   5.554   6.980 -0.7249 -0.2081 -0.5078
  124OSM    H2G13237   2.682   5.544   7.112  2.4759 -0.9918  0.1017
  124OSM    C3F13238   2.721   5.750   7.067 -0.1972 -0.0174 -1.0059
  124OSM    H3F13239   2.623   5.790   7.101  0.5845  1.3648 -0.2652
  124OSM    H3G13240   2.756   5.813   6.982  2.5424  0.4468  0.3228
  124OSM    C4F13241   2.831   5.756   7.175  0.1635 -0.1703  0.5186
  124OSM    H4F13242   2.872   5.859   7.177 -1.0787  0.4985 -2.5286
  124OSM    H4G13243   2.915   5.689   7.148  1.7160  2.2348 -1.0206
  124OSM    C5F13244   2.780   5.721   7.320  0.2166 -0.6112  0.6926
  124OSM    H5F13245   2.751   5.614   7.327 -0.3308 -0.6426 -1.3792
  124OSM    H5G13246   2.683   5.773   7.335 -0.5214 -1.8918  0.5392
  124OSM    C6F13247   2.868   5.765   7.435  0.2658  0.4592 -0.8850
  124OSM    H6F13248   2.908   5.866   7.412  0.8977  0.4197 -0.0306
  124OSM    H6G13249   2.956   5.697   7.440  0.2854  0.2299 -3.4570
  124OSM    C7F13250   2.781   5.771   7.562  0.2584 -0.7086 -0.1270
  124OSM    H7F13251   2.736   5.671   7.583 -0.6699 -0.7031 -1.9590
  124OSM    H7G13252   2.692   5.837   7.555  0.7960  0.2151  1.3515
  124OSM    C8F13253   2.842   5.825   7.693  0.1299 -0.1019  0.0206
  124OSM    H8F13254   2.774   5.824   7.780 -0.2532 -0.5235 -0.2776
  124OSM    H8G13255   2.858   5.932   7.669 -0.4400  0.4100  1.7829
  124OSM    C9F13256   2.980   5.766   7.718  0.7457  0.9352  0.6593
  124OSM    H9F13257   3.043   5.770   7.627  1.4152 -0.8016  1.0132
  124OSM   C10F13258   3.022   5.701   7.825  0.2690 -0.7597 -0.2258
  124OSM   H10F13259   3.129   5.678   7.838  0.3618  0.5694  1.8114
  124OSM   C11F13260   2.947   5.663   7.948 -0.2899  0.1187 -0.2679
  124OSM   H11F13261   2.958   5.557   7.978 -1.8112  0.1438  0.4432
  124OSM   H11G13262   2.839   5.672   7.926 -0.2718 -1.3286 -1.0096
  124OSM   C12F13263   2.977   5.746   8.079 -0.6735 -0.0210  0.1537
  124OSM   H12F13264   3.085   5.751   8.104 -1.0252 -0.4580  1.9139
  124OSM   H12G13265   2.930   5.695   8.166  0.1834 -2.6815 -0.8562
  124OSM   C13F13266   2.916   5.885   8.083 -0.4468 -0.3556  0.3049
  124OSM   H13F13267   2.810   5.882   8.049 -0.1992 -1.8654 -0.4346
  124OSM   H13G13268   2.966   5.946   8.004  0.0444  1.0350  1.6455
  124OSM   C14F13269   2.920   5.946   8.226 -0.3483  0.0434 -0.3291
  124OSM   H14F13270   2.859   5.886   8.297 -0.7599  2.7179  1.7180
  124OSM   H14G13271   2.876   6.048   8.223 -0.8543 -0.1067  1.1447
  124OSM   C15F13272   3.054   5.945   8.291 -0.2636 -0.8177  0.5691
  124OSM   H15F13273   3.122   5.995   8.219 -1.3520 -1.1031 -0.6951
  124OSM   H15G13274   3.099   5.844   8.306 -2.8619 -2.0357  0.8076
  124OSM   C16F13275   3.044   6.019   8.428 -0.0554  0.3644  0.4889
  124OSM   H16F13276   2.983   5.955   8.496  1.6395 -0.5558  1.1931
  124OSM   H16G13277   3.009   6.122   8.404  0.1124 -0.0140 -1.5638
  124OSM   C17F13278   3.186   6.033   8.480 -0.0570  0.0522 -0.3175
  124OSM   H17F13279   3.246   6.122   8.451  0.8239 -0.7646 -1.1033
  124OSM   H17G13280   3.248   5.943   8.460 -1.7861 -1.4003  0.5616
  124OSM   C18F13281   3.187   6.050   8.630  0.1406  0.4808  0.7756
  124OSM   H18F13282   3.284   6.017   8.675  1.1912  1.8097 -0.4076
  124OSM   H18G13283   3.109   5.996   8.688  1.1353 -1.0383  0.7622
  124OSM   H18H13284   3.173   6.159   8.647  1.3716  0.6553  0.7700
  125OSM      N13285   2.222   6.571   6.377  0.1272  0.4007 -0.3329
  125OSM    C1513286   2.337   6.493   6.314  1.0364 -0.4515 -0.3661
  125OSM   H15A13287   2.300   6.457   6.219  0.5017  3.4674 -1.8294
  125OSM   H15B13288   2.374   6.412   6.375  0.6311 -1.3189 -1.2577
  125OSM   H15C13289   2.417   6.562   6.289 -0.2693  0.7228 -1.4967
  125OSM    C1413290   2.179   6.680   6.280 -0.4135  0.3683 -0.6022
  125OSM   H14A13291   2.090   6.726   6.318  0.0536  0.2992  0.6115
  125OSM   H14B13292   2.155   6.629   6.187  0.3488 -0.0651 -0.5714
  125OSM   H14C13293   2.262   6.749   6.273 -0.0451  0.1421  1.0404
  125OSM    C1313294   2.107   6.485   6.402  0.1311 -0.6458  0.3279
  125OSM   H13A13295   2.060   6.457   6.309  1.5327  2.9351 -1.6413
  125OSM   H13B13296   2.028   6.544   6.446 -0.3677 -0.2423 -1.0421
  125OSM   H13C13297   2.126   6.398   6.463  0.8552 -1.9618 -1.6686
  125OSM    C1213298   2.277   6.624   6.506 -0.4117 -0.3089  0.5416
  125OSM   H12A13299   2.293   6.539   6.571  1.3310 -1.6989 -1.5525
  125OSM   H12B13300   2.207   6.688   6.558  0.4513 -0.4090  1.8754
  125OSM    C1113301   2.429   6.682   6.510  0.2558  0.3553  0.1879
  125OSM   H11A13302   2.497   6.598   6.485  0.6495  0.5609  0.5510
  125OSM   H11B13303   2.449   6.712   6.615 -0.0007 -0.8135  0.5849
  125OSM      P13304   2.536   6.816   6.312 -0.2229 -0.3837 -0.4474
  125OSM    O1313305   2.534   6.691   6.228  0.3529  0.1274 -0.3008
  125OSM    O1413306   2.517   6.943   6.238  0.3998  0.1631 -0.4672
  125OSM    O1113307   2.673   6.823   6.389 -0.8909 -0.8079 -0.3061
  125OSM    O1213308   2.431   6.799   6.431 -0.6467  0.3411  0.0794
  125OSM    C1S13309   2.733   6.938   6.448 -0.5256  0.1382  0.4716
  125OSM    H1S13310   2.667   7.028   6.444 -0.9850 -0.1820  0.7047
  125OSM    H1T13311   2.823   6.970   6.392  0.1034 -3.1701 -0.6106
  125OSM     NF13312   2.842   7.055   6.644 -0.8770 -0.1165 -0.2916
  125OSM    HNF13313   2.940   7.048   6.659 -1.0689  0.8120  1.6900
  125OSM    C2S13314   2.773   6.938   6.603 -0.2770  0.6001 -0.3800
  125OSM    H2S13315   2.673   6.947   6.651  0.1841  1.8238  0.3850
  125OSM    C3S13316   2.837   6.802   6.640 -0.1363  0.2794  0.2324
  125OSM    H3S13317   2.926   6.787   6.576 -0.3465 -1.9459  0.3897
  125OSM     O313318   2.749   6.692   6.610  0.0828  0.4669  0.2164
  125OSM    HO313319   2.711   6.700   6.522 -4.7737 -2.6055  1.6045
  125OSM    C4S13320   2.868   6.808   6.786  1.1818  0.4373  0.0164
  125OSM    H4S13321   2.973   6.836   6.804  0.9358  0.4371  1.5951
  125OSM    C5S13322   2.789   6.787   6.894  0.0795  0.6817 -0.0762
  125OSM    H5S13323   2.684   6.759   6.878 -0.1399  1.3068  0.2115
  125OSM    C6S13324   2.816   6.789   7.046 -0.4167  0.2977  0.3426
  125OSM    H6S13325   2.856   6.687   7.063  0.0397  0.3655 -0.3054
  125OSM    H6T13326   2.725   6.792   7.110 -1.0052 -1.1867 -0.3671
  125OSM    C7S13327   2.895   6.898   7.099  0.5267  0.0240  0.3809
  125OSM    H7S13328   2.837   6.986   7.064  1.4222  0.9059  1.0514
  125OSM    H7T13329   2.996   6.896   7.053  1.0237 -1.2313  1.4642
  125OSM    C8S13330   2.916   6.907   7.250  0.7027  0.4617 -0.2640
  125OSM    H8S13331   2.823   6.938   7.302 -0.0345 -0.7857 -0.8165
  125OSM    H8T13332   2.992   6.981   7.283  0.1984  0.0380  2.0298
  125OSM    C9S13333   2.953   6.764   7.314  0.8055  0.0934 -0.8153
  125OSM    H9S13334   3.014   6.713   7.236 -0.1102 -0.0657 -1.4480
  125OSM    H9T13335   2.858   6.712   7.340  1.6188 -0.0256  2.3059
  125OSM   C10S13336   3.040   6.780   7.435 -0.5454 -0.4831  0.0150
  125OSM   H10S13337   3.117   6.859   7.421 -0.4868 -0.4686  0.4223
  125OSM   H10T13338   3.101   6.692   7.465  0.6481 -0.2999 -1.6738
  125OSM   C11S13339   2.953   6.836   7.554  0.0818 -0.4589  0.1250
  125OSM   H11S13340   2.862   6.777   7.577  0.1168  0.4698  2.9431
  125OSM   H11T13341   2.925   6.939   7.524 -1.5486 -0.7568  0.5384
  125OSM   C12S13342   3.024   6.845   7.688  0.3576  0.4108  0.2756
  125OSM   H12S13343   3.121   6.899   7.688  0.6137 -0.0362 -0.4709
  125OSM   H12T13344   3.059   6.743   7.716  4.0282  1.4444 -0.1239
  125OSM   C13S13345   2.928   6.888   7.798  0.1101  0.6543 -0.1552
  125OSM   H13S13346   2.837   6.826   7.810  0.9049 -0.5138  0.0623
  125OSM   H13T13347   2.885   6.990   7.787  0.2933  0.6177 -1.3371
  125OSM   C14S13348   3.006   6.885   7.932 -0.7060 -0.0550 -0.3709
  125OSM   H14S13349   2.953   6.956   7.999  0.3047 -0.9946  1.4999
  125OSM   H14T13350   3.110   6.924   7.921 -1.3429  1.9606  0.2809
  125OSM   C15S13351   3.013   6.744   7.995  0.1653 -0.0911 -0.0339
  125OSM   H15S13352   3.062   6.675   7.923 -0.2782 -1.7907  1.2353
  125OSM   H15T13353   2.904   6.720   8.003  0.3960 -0.6187  2.4717
  125OSM   C16S13354   3.072   6.729   8.134  0.2739  0.0112 -0.2057
  125OSM   H16S13355   3.182   6.717   8.123  0.5158  0.0447  1.8404
  125OSM   H16T13356   3.030   6.645   8.194  1.8299 -0.7930 -0.1807
  125OSM   C17S13357   3.043   6.850   8.217 -0.3725  0.5508 -0.0628
  125OSM   H17S13358   2.933   6.869   8.222 -0.7425  0.2057 -3.8136
  125OSM   H17T13359   3.102   6.934   8.175  0.3855 -0.4366 -1.0442
  125OSM   C18S13360   3.107   6.827   8.357  0.5948 -0.1107 -0.1505
  125OSM   H18S13361   3.118   6.918   8.421 -0.3709  0.1476 -0.3455
  125OSM   H18T13362   3.207   6.779   8.342 -0.6798 -3.0670  0.1981
  125OSM   H18U13363   3.043   6.751   8.406 -0.8325  0.0185 -1.7424
  125OSM    C1F13364   2.792   7.181   6.647 -0.2567 -0.4955 -0.2684
  125OSM     OF13365   2.674   7.213   6.628  0.7580  0.2107 -0.1546
  125OSM    C2F13366   2.899   7.285   6.677  0.1501 -0.3013  0.5572
  125OSM    H2F13367   2.944   7.315   6.581  2.3276 -0.2611  1.5389
  125OSM    H2G13368   2.975   7.238   6.743  1.2426  1.0370  0.2810
  125OSM    C3F13369   2.841   7.398   6.751 -0.1170  0.8516 -0.0248
  125OSM    H3F13370   2.796   7.371   6.849  1.5195 -1.4357  0.1762
  125OSM    H3G13371   2.759   7.435   6.685  0.3530  2.6517  0.3480
  125OSM    C4F13372   2.926   7.526   6.773 -0.1792  0.1978  0.1678
  125OSM    H4F13373   2.937   7.574   6.674  0.8489 -1.2938 -0.4814
  125OSM    H4G13374   3.022   7.484   6.810 -0.9625 -1.6312  0.2483
  125OSM    C5F13375   2.873   7.632   6.867 -0.3761 -0.4577  0.1877
  125OSM    H5F13376   2.768   7.648   6.836  0.0971 -1.7606 -2.3604
  125OSM    H5G13377   2.921   7.730   6.849 -0.1343 -0.7424 -0.7797
  125OSM    C6F13378   2.897   7.600   7.014 -0.5258  0.5206 -0.0413
  125OSM    H6F13379   3.003   7.573   7.034 -1.0427 -1.5303  0.1196
  125OSM    H6G13380   2.825   7.519   7.038 -0.7002  0.5716 -0.3869
  125OSM    C7F13381   2.867   7.730   7.097  0.4409  0.4753  0.1764
  125OSM    H7F13382   2.758   7.748   7.086  0.2535 -1.2451 -1.2878
  125OSM    H7G13383   2.919   7.817   7.052  2.6032  0.2978  2.1565
  125OSM    C8F13384   2.915   7.715   7.242 -0.4423  0.1932 -0.0399
  125OSM    H8F13385   2.908   7.607   7.266 -1.6742  0.2942  0.1255
  125OSM    H8G13386   2.859   7.776   7.317 -1.5141 -0.9812  0.1512
  125OSM    C9F13387   3.066   7.750   7.238 -0.1114 -0.6495 -0.1860
  125OSM    H9F13388   3.117   7.748   7.140  1.5773  2.1680  0.5455
  125OSM   C10F13389   3.129   7.766   7.354  0.4574 -0.3878  0.2611
  125OSM   H10F13390   3.233   7.803   7.350 -0.6826  3.0503 -0.2113
  125OSM   C11F13391   3.073   7.757   7.495 -0.2791  0.2285  0.2767
  125OSM   H11F13392   3.040   7.652   7.509  1.5281 -0.3676  0.3224
  125OSM   H11G13393   2.983   7.823   7.502 -0.2834  0.0797  2.1824
  125OSM   C12F13394   3.177   7.795   7.601  1.0322 -0.3522 -0.2856
  125OSM   H12F13395   3.213   7.899   7.587  1.4552 -0.2195  1.4965
  125OSM   H12G13396   3.262   7.723   7.593  1.0506 -0.4882  0.9472
  125OSM   C13F13397   3.133   7.777   7.753 -0.1104  0.1545  0.9196
  125OSM   H13F13398   3.097   7.672   7.764 -1.6748  0.4368 -0.8787
  125OSM   H13G13399   3.041   7.835   7.775 -1.1752 -0.0933 -2.3522
  125OSM   C14F13400   3.258   7.794   7.844  0.1727  0.8531 -0.2640
  125OSM   H14F13401   3.289   7.901   7.848  2.2853  0.4024 -2.4583
  125OSM   H14G13402   3.341   7.736   7.797 -0.4948 -1.4906  1.2547
  125OSM   C15F13403   3.232   7.762   7.992 -0.1216  0.2592 -0.2437
  125OSM   H15F13404   3.199   7.656   7.996  2.5265 -0.6205  0.3324
  125OSM   H15G13405   3.152   7.835   8.017 -0.4359  0.6998 -2.3651
  125OSM   C16F13406   3.360   7.762   8.081  0.6615 -0.3578 -0.1724
  125OSM   H16F13407   3.414   7.857   8.058 -0.6470  1.2622  2.8350
  125OSM   H16G13408   3.431   7.688   8.038  1.2414  1.1334 -1.9000
  125OSM   C17F13409   3.346   7.757   8.236 -0.7482  0.7429  0.0304
  125OSM   H17F13410   3.270   7.690   8.280 -0.4517  0.6110  0.3403
  125OSM   H17G13411   3.312   7.857   8.271 -0.2767 -0.2794  3.8104
  125OSM   C18F13412   3.480   7.718   8.299  0.3662  0.0516  0.0935
  125OSM   H18F13413   3.559   7.796   8.289  2.0118 -1.4542  0.6614
  125OSM   H18G13414   3.531   7.627   8.261  0.5844  0.1242  0.2079
  125OSM   H18H13415   3.469   7.716   8.410 -1.5903 -0.4188 -0.0692
  126OSM      N13416   0.809   0.211   6.248  0.2134 -0.1262  0.0902
  126OSM    C1513417   0.902   0.104   6.297 -0.4232 -0.7985 -0.5217
  126OSM   H15A13418   0.880   0.018   6.235 -1.1739 -0.7613 -0.3126
  126OSM   H15B13419   0.877   0.073   6.397  1.7523 -1.8772 -0.2289
  126OSM   H15C13420   1.006   0.134   6.296 -0.3412 -1.0746 -1.2061
  126OSM    C1413421   0.863   0.265   6.127  0.0959 -0.0407 -0.2026
  126OSM   H14A13422   0.966   0.288   6.149 -0.2083  0.9453  0.2431
  126OSM   H14B13423   0.816   0.354   6.089 -0.0165  0.4595  1.0487
  126OSM   H14C13424   0.861   0.200   6.041  0.1158  0.2824 -0.4474
  126OSM    C1313425   0.680   0.145   6.214  0.5648 -0.0087 -0.1445
  126OSM   H13A13426   0.625   0.097   6.293 -0.2411  1.6376  0.3331
  126OSM   H13B13427   0.682   0.083   6.126 -0.2071  0.2025 -0.3172
  126OSM   H13C13428   0.625   0.223   6.163  0.1038 -2.4471 -3.7318
  126OSM    C1213429   0.787   0.318   6.352 -0.5183  0.0866 -0.5882
  126OSM   H12A13430   0.875   0.379   6.359 -1.6395  1.9548 -1.9196
  126OSM   H12B13431   0.775   0.263   6.444  2.4122 -1.0763 -0.7686
  126OSM    C1113432   0.682   0.430   6.328 -0.8132 -0.3704  0.8569
  126OSM   H11A13433   0.579   0.397   6.302 -1.1436  0.4136  1.1617
  126OSM   H11B13434   0.718   0.484   6.238 -2.5629 -3.5112 -1.9752
  126OSM      P13435   0.797   0.630   6.462 -0.2332  0.1804  0.2503
  126OSM    O1313436   0.898   0.621   6.359  0.3351  0.9717  0.1239
  126OSM    O1413437   0.739   0.763   6.478 -0.1662 -0.6539 -0.1282
  126OSM    O1113438   0.866   0.597   6.596  0.3487  0.5132  0.2773
  126OSM    O1213439   0.685   0.517   6.437  0.1968  0.0328 -0.4585
  126OSM    C1S13440   0.853   0.664   6.716  0.0222  0.5805  0.1954
  126OSM    H1S13441   0.744   0.666   6.739  0.1389  1.1903  0.7219
  126OSM    H1T13442   0.880   0.771   6.702  0.6733  0.3505 -0.3435
  126OSM     NF13443   0.893   0.647   6.970 -0.1547  0.5965 -0.2743
  126OSM    HNF13444   0.959   0.699   7.023 -1.0758  0.5117  1.0094
  126OSM    C2S13445   0.936   0.606   6.836 -0.1528  0.3050  0.2625
  126OSM    H2S13446   0.922   0.496   6.832 -1.8105  0.4923  0.0880
  126OSM    C3S13447   1.089   0.633   6.815  1.1174 -0.0930  0.1632
  126OSM    H3S13448   1.124   0.737   6.831 -1.7286  0.9880 -0.2114
  126OSM     O313449   1.123   0.608   6.681 -0.0722 -0.3564 -0.0647
  126OSM    HO313450   1.050   0.577   6.628 -0.1412  1.5576 -1.1918
  126OSM    C4S13451   1.168   0.550   6.912 -0.3022  0.2892  0.0439
  126OSM    H4S13452   1.204   0.611   6.996 -1.9501  0.7760  0.4205
  126OSM    C5S13453   1.208   0.423   6.895 -0.8336 -0.8178  0.0227
  126OSM    H5S13454   1.179   0.377   6.799 -0.6124 -1.5903  0.3172
  126OSM    C6S13455   1.296   0.344   6.986 -0.3662  0.1298  0.5149
  126OSM    H6S13456   1.403   0.364   6.964 -0.3773  0.9561  1.1549
  126OSM    H6T13457   1.278   0.235   6.987 -1.9612  0.3637  0.1497
  126OSM    C7S13458   1.277   0.382   7.139  0.2067  0.9221 -0.1283
  126OSM    H7S13459   1.170   0.386   7.170 -0.6789 -2.4449 -2.2479
  126OSM    H7T13460   1.320   0.485   7.145  0.8944  0.8103 -2.3280
  126OSM    C8S13461   1.347   0.292   7.235 -0.7805 -0.3789 -0.2679
  126OSM    H8S13462   1.451   0.281   7.197 -0.6435 -1.5307  0.4011
  126OSM    H8T13463   1.304   0.190   7.226  1.0854 -1.1633 -1.0102
  126OSM    C9S13464   1.346   0.336   7.382  0.2471  0.7690 -0.0588
  126OSM    H9S13465   1.247   0.347   7.431  0.5104  2.7646  0.1288
  126OSM    H9T13466   1.391   0.438   7.386  1.7072  0.2651 -1.9632
  126OSM   C10S13467   1.442   0.249   7.466 -0.0561  1.0042 -0.0746
  126OSM   H10S13468   1.420   0.290   7.567  1.3080  1.0201  0.2432
  126OSM   H10T13469   1.551   0.260   7.445  0.5116 -1.5864  1.1358
  126OSM   C11S13470   1.398   0.111   7.461  0.0859 -0.1548  0.3193
  126OSM   H11S13471   1.434   0.061   7.369  2.0229 -0.4631  1.1774
  126OSM   H11T13472   1.287   0.113   7.457  0.1182 -0.1738 -2.1887
  126OSM   C12S13473   1.453   0.023   7.575  0.6465  0.0789 -0.4623
  126OSM   H12S13474   1.561   0.007   7.553  1.1076 -1.2498  2.3519
  126OSM   H12T13475   1.418  -0.081   7.559  1.6959 -0.0761 -1.9457
  126OSM   C13S13476   1.441   0.086   7.718 -0.4549  0.4416  0.1216
  126OSM   H13S13477   1.337   0.121   7.733 -0.6794 -0.9790  2.3912
  126OSM   H13T13478   1.511   0.172   7.721  0.0531  0.1828 -2.4404
  126OSM   C14S13479   1.472  -0.019   7.831 -0.1368 -0.1789  0.4277
  126OSM   H14S13480   1.565  -0.072   7.801 -0.4453 -0.6605  0.3118
  126OSM   H14T13481   1.391  -0.096   7.835 -2.0232  1.7603  1.9361
  126OSM   C15S13482   1.496   0.058   7.964  0.5189  0.1420 -0.9351
  126OSM   H15S13483   1.405   0.122   7.971  0.6153  0.3052 -1.1950
  126OSM   H15T13484   1.588   0.118   7.957  1.6071 -1.3376 -0.0264
  126OSM   C16S13485   1.497  -0.027   8.097 -0.4770 -0.9328  0.5676
  126OSM   H16S13486   1.584  -0.096   8.094  2.3790  2.4159  0.6466
  126OSM   H16T13487   1.403  -0.086   8.102 -0.9253 -0.2984 -0.2400
  126OSM   C17S13488   1.507   0.061   8.222 -0.7864 -0.2954 -0.1651
  126OSM   H17S13489   1.431   0.142   8.217  2.7076  3.1325 -3.3007
  126OSM   H17T13490   1.606   0.109   8.220 -2.0944  2.5677 -2.1059
  126OSM   C18S13491   1.504  -0.021   8.356 -0.4949 -0.0127 -0.0187
  126OSM   H18S13492   1.426  -0.100   8.354 -0.2910 -0.2183  0.0529
  126OSM   H18T13493   1.497   0.041   8.448 -1.6001  0.8220 -0.6455
  126OSM   H18U13494   1.598  -0.079   8.367 -1.3993 -1.6070 -0.3973
  126OSM    C1F13495   0.767   0.637   7.024  0.4633 -0.1218 -0.1849
  126OSM     OF13496   0.683   0.565   6.971  0.0399  0.5833  0.6670
  126OSM    C2F13497   0.738   0.699   7.151 -0.0124 -0.4049  0.3066
  126OSM    H2F13498   0.825   0.763   7.178 -2.4938  2.3909  2.3453
  126OSM    H2G13499   0.713   0.612   7.216 -0.8889 -0.6262 -0.3119
  126OSM    C3F13500   0.606   0.782   7.144  0.2533  0.7593 -0.0069
  126OSM    H3F13501   0.520   0.718   7.115  2.5590 -1.4874 -2.4323
  126OSM    H3G13502   0.628   0.857   7.064  1.9027 -0.3380 -0.6438
  126OSM    C4F13503   0.556   0.850   7.276 -0.1458 -0.2709  0.0103
  126OSM    H4F13504   0.525   0.777   7.353  2.7981 -0.3223  1.2952
  126OSM    H4G13505   0.476   0.923   7.248  0.3204  1.0879  1.9996
  126OSM    C5F13506   0.673   0.936   7.330 -0.2934  0.3310 -0.3802
  126OSM    H5F13507   0.700   1.012   7.254 -0.8023  1.0112  0.1073
  126OSM    H5G13508   0.760   0.867   7.346 -0.8001  0.0454  1.3803
  126OSM    C6F13509   0.638   1.003   7.470  0.0010 -0.5556  0.5616
  126OSM    H6F13510   0.584   1.094   7.438  0.0341 -0.6237  0.3081
  126OSM    H6G13511   0.740   1.036   7.501  0.1252  0.6552 -1.0386
  126OSM    C7F13512   0.569   0.909   7.571 -0.2870  0.5022 -0.1851
  126OSM    H7F13513   0.618   0.809   7.573  0.0129  0.6645  1.3982
  126OSM    H7G13514   0.462   0.896   7.543 -0.4297  1.5775 -0.1726
  126OSM    C8F13515   0.581   0.972   7.720 -0.1118  0.5318  0.3440
  126OSM    H8F13516   0.563   1.080   7.706  1.0516  0.4218 -2.7415
  126OSM    H8G13517   0.687   0.962   7.752  0.1410 -0.4374 -0.7367
  126OSM    C9F13518   0.486   0.901   7.813  0.1448  0.1016 -0.7052
  126OSM    H9F13519   0.385   0.895   7.771 -0.6178 -0.4038  1.1101
  126OSM   C10F13520   0.505   0.848   7.938 -0.0035 -0.0082 -0.5054
  126OSM   H10F13521   0.419   0.809   7.996 -0.1127  0.7251 -0.1536
  126OSM   C11F13522   0.630   0.857   8.020 -0.0470  1.0230  0.1779
  126OSM   H11F13523   0.702   0.930   7.978  0.4148  1.6873  2.0349
  126OSM   H11G13524   0.683   0.759   8.016 -1.6318  0.0692  1.5215
  126OSM   C12F13525   0.602   0.882   8.164  0.2049  0.2415  0.1755
  126OSM   H12F13526   0.526   0.814   8.209  0.5714 -0.2586  0.0455
  126OSM   H12G13527   0.544   0.976   8.166  1.1334  0.9027 -1.9505
  126OSM   C13F13528   0.736   0.890   8.247 -0.6128  0.1604 -0.3706
  126OSM   H13F13529   0.816   0.950   8.199 -0.6127  0.3034 -0.1931
  126OSM   H13G13530   0.771   0.787   8.267  1.9059  0.8220 -0.9547
  126OSM   C14F13531   0.708   0.954   8.388  0.1101  0.4059 -0.1744
  126OSM   H14F13532   0.598   0.942   8.396  0.0986  0.2578 -0.5491
  126OSM   H14G13533   0.733   1.062   8.394 -2.8751  1.1837 -0.2308
  126OSM   C15F13534   0.766   0.867   8.500 -0.0543 -0.5433 -0.0612
  126OSM   H15F13535   0.742   0.759   8.496  1.4214 -0.9496  1.1800
  126OSM   H15G13536   0.725   0.909   8.594 -0.7016 -0.3004 -0.4441
  126OSM   C16F13537   0.919   0.888   8.495  0.0075  0.2690 -0.2248
  126OSM   H16F13538   0.943   0.978   8.556  0.4666  0.0266 -0.0499
  126OSM   H16G13539   0.954   0.901   8.390  2.1426  0.3639  0.4662
  126OSM   C17F13540   0.996   0.763   8.543 -0.0587 -1.0657 -0.3800
  126OSM   H17F13541   1.096   0.761   8.495 -0.0901  1.1646 -0.6576
  126OSM   H17G13542   0.942   0.676   8.500  0.1969 -1.6224  0.3942
  126OSM   C18F13543   1.000   0.750   8.701  0.1224  0.5814  0.3008
  126OSM   H18F13544   1.053   0.839   8.743  0.6410  0.4109  0.0261
  126OSM   H18G13545   1.046   0.655   8.736 -2.1880  0.3739  3.1009
  126OSM   H18H13546   0.895   0.758   8.736 -0.2508 -1.6781 -0.1386
  127OSM      N13547   2.153   4.444   6.233 -0.0680 -0.3635 -0.3455
  127OSM    C1513548   2.069   4.568   6.223  0.0185  0.5640  0.3458
  127OSM   H15A13549   2.109   4.627   6.142  2.1525 -0.3922  0.6277
  127OSM   H15B13550   2.085   4.634   6.307  0.1550  0.1399  0.6535
  127OSM   H15C13551   1.963   4.547   6.226  0.0286  0.6461  1.4734
  127OSM    C1413552   2.121   4.371   6.103 -0.2105 -0.2430  0.4832
  127OSM   H14A13553   2.019   4.339   6.105 -1.0307  2.1534  0.4418
  127OSM   H14B13554   2.188   4.286   6.095  0.6063  0.3051  1.2205
  127OSM   H14C13555   2.147   4.434   6.019  3.2799 -1.1395  0.7071
  127OSM    C1313556   2.299   4.478   6.241 -0.1430  0.2110 -0.3761
  127OSM   H13A13557   2.355   4.385   6.248 -0.0843  0.0108 -2.6653
  127OSM   H13B13558   2.309   4.542   6.327  1.4927 -0.7002  0.1695
  127OSM   H13C13559   2.322   4.540   6.156  0.4610 -1.5606 -1.5691
  127OSM    C1213560   2.116   4.362   6.358 -0.0545  0.1765 -0.4674
  127OSM   H12A13561   2.156   4.410   6.446 -0.6371  1.4720 -0.8957
  127OSM   H12B13562   2.156   4.262   6.347 -1.4608 -0.6295  1.1968
  127OSM    C1113563   1.967   4.356   6.390 -0.2252  0.3373  0.0861
  127OSM   H11A13564   1.933   4.457   6.424 -0.2650  0.4563 -0.3057
  127OSM   H11B13565   1.949   4.295   6.481  1.7208  0.1354  0.3753
  127OSM      P13566   1.755   4.367   6.254 -0.3012  0.3189  0.5100
  127OSM    O1313567   1.778   4.492   6.182 -0.1863  0.2546  0.3368
  127OSM    O1413568   1.660   4.269   6.186 -0.5724  0.0876  0.0337
  127OSM    O1113569   1.690   4.412   6.392  0.1786  0.7333  0.0133
  127OSM    O1213570   1.889   4.296   6.292  0.3827 -0.3311  0.4934
  127OSM    C1S13571   1.656   4.329   6.502  0.0457  0.0168  0.1535
  127OSM    H1S13572   1.747   4.281   6.544  0.2566 -0.5224 -0.8834
  127OSM    H1T13573   1.585   4.251   6.467 -1.0968  1.5375 -1.0809
  127OSM     NF13574   1.606   4.307   6.741  0.7253 -0.6187 -0.4146
  127OSM    HNF13575   1.524   4.251   6.755 -0.2902  0.3142 -2.2895
  127OSM    C2S13576   1.595   4.395   6.626 -0.4419  0.1638 -0.4324
  127OSM    H2S13577   1.660   4.482   6.652  2.2278 -1.6854 -0.5542
  127OSM    C3S13578   1.450   4.435   6.590 -0.2912 -0.6517 -0.6648
  127OSM    H3S13579   1.398   4.338   6.572  0.7239 -1.7001  1.6767
  127OSM     O313580   1.436   4.504   6.467 -0.1085 -0.1226  0.3073
  127OSM    HO313581   1.525   4.494   6.432 -0.9860  1.8269 -2.9578
  127OSM    C4S13582   1.401   4.503   6.711  0.2402  0.4520 -0.1475
  127OSM    H4S13583   1.364   4.435   6.788 -0.5939  0.0147 -0.9106
  127OSM    C5S13584   1.386   4.636   6.733  0.0923  0.1544 -0.1792
  127OSM    H5S13585   1.422   4.704   6.655 -0.7040  0.5948 -0.1665
  127OSM    C6S13586   1.338   4.700   6.859  0.5690 -0.0259 -0.3364
  127OSM    H6S13587   1.232   4.729   6.842  0.2836  2.0780  3.7577
  127OSM    H6T13588   1.396   4.793   6.875 -1.8413  1.7804 -1.4568
  127OSM    C7S13589   1.341   4.636   6.997 -0.0668  1.1008 -0.1359
  127OSM    H7S13590   1.304   4.531   6.992  0.9395  0.7830 -1.9455
  127OSM    H7T13591   1.267   4.675   7.069 -1.3386 -1.6132  0.1309
  127OSM    C8S13592   1.489   4.644   7.039  0.9041 -0.2308 -0.2452
  127OSM    H8S13593   1.518   4.751   7.055  2.3145 -0.6723  0.2782
  127OSM    H8T13594   1.554   4.605   6.958  0.5481  1.1249 -1.2191
  127OSM    C9S13595   1.519   4.599   7.184  0.1065  0.2357  0.7951
  127OSM    H9S13596   1.498   4.490   7.184 -1.5149  0.4919 -1.5548
  127OSM    H9T13597   1.445   4.646   7.253 -0.9238  1.3316 -0.9668
  127OSM   C10S13598   1.668   4.619   7.215 -0.7301 -0.0306 -0.6500
  127OSM   H10S13599   1.698   4.726   7.217  1.0696 -0.4877  1.9193
  127OSM   H10T13600   1.728   4.559   7.143  0.6557  1.4100 -0.7462
  127OSM   C11S13601   1.710   4.550   7.348  0.1829 -0.3683 -0.4881
  127OSM   H11S13602   1.812   4.507   7.352  0.6426  0.5356 -1.7067
  127OSM   H11T13603   1.644   4.462   7.366 -0.5754  0.5013  1.1230
  127OSM   C12S13604   1.707   4.646   7.458 -0.0275  0.3632  0.5177
  127OSM   H12S13605   1.603   4.685   7.459 -0.7859 -1.2060 -2.9938
  127OSM   H12T13606   1.785   4.725   7.451  0.7680 -0.3231  1.4038
  127OSM   C13S13607   1.720   4.575   7.594 -0.6570 -0.1496 -0.2449
  127OSM   H13S13608   1.826   4.542   7.594 -0.1155  1.2700 -2.9458
  127OSM   H13T13609   1.654   4.486   7.600 -2.1207  0.9832  1.3154
  127OSM   C14S13610   1.692   4.663   7.719 -0.3751  0.5566  0.2637
  127OSM   H14S13611   1.584   4.691   7.721 -0.3938  0.4449  1.0397
  127OSM   H14T13612   1.752   4.756   7.710 -0.7026  0.5593 -3.0051
  127OSM   C15S13613   1.720   4.585   7.851 -0.0114 -0.2171  0.6957
  127OSM   H15S13614   1.825   4.552   7.863  0.8419  1.0731 -2.3129
  127OSM   H15T13615   1.653   4.497   7.840  1.1536 -1.0280 -0.1098
  127OSM   C16S13616   1.679   4.655   7.983  0.6967  0.0175 -0.7087
  127OSM   H16S13617   1.570   4.635   7.988  0.2457  2.2724 -0.7788
  127OSM   H16T13618   1.700   4.761   7.961  2.0783 -0.2662 -0.8218
  127OSM   C17S13619   1.764   4.606   8.103 -0.2223  0.6228  0.3490
  127OSM   H17S13620   1.873   4.629   8.108 -0.3645  1.1231  2.3436
  127OSM   H17T13621   1.756   4.496   8.094  0.8601  0.6832 -2.2935
  127OSM   C18S13622   1.709   4.652   8.235  0.0566 -0.0518  0.2404
  127OSM   H18S13623   1.752   4.601   8.323 -0.4994  1.9887  1.7665
  127OSM   H18T13624   1.603   4.625   8.249  0.8362 -3.3602  0.6246
  127OSM   H18U13625   1.728   4.759   8.260 -1.9907  0.7865 -1.4824
  127OSM    C1F13626   1.714   4.306   6.821 -0.0653 -0.4506 -0.0054
  127OSM     OF13627   1.814   4.361   6.778 -0.1325 -0.0966 -0.9490
  127OSM    C2F13628   1.708   4.254   6.962 -0.0341 -0.6713  0.5369
  127OSM    H2F13629   1.678   4.147   6.960  0.3202 -0.7636 -0.3897
  127OSM    H2G13630   1.620   4.307   7.005  0.2933  1.7378 -1.5012
  127OSM    C3F13631   1.838   4.268   7.048  0.0127  0.0241 -0.2201
  127OSM    H3F13632   1.887   4.368   7.057  1.9571 -1.0532  2.9600
  127OSM    H3G13633   1.912   4.201   7.000 -1.3556  0.1069 -2.6067
  127OSM    C4F13634   1.824   4.221   7.195 -0.0594  0.7921  0.2064
  127OSM    H4F13635   1.787   4.116   7.202  0.9295  0.4217  0.0441
  127OSM    H4G13636   1.751   4.288   7.246 -0.8545 -0.7384  1.1571
  127OSM    C5F13637   1.950   4.232   7.283 -0.2237  0.2169 -0.8600
  127OSM    H5F13638   1.996   4.324   7.241 -1.6072  1.4988  0.3160
  127OSM    H5G13639   2.011   4.140   7.268 -0.1521  0.1495 -0.1909
  127OSM    C6F13640   1.920   4.229   7.434 -0.6720 -0.3809 -0.2874
  127OSM    H6F13641   1.857   4.138   7.447 -0.7065 -0.1884  0.9427
  127OSM    H6G13642   1.863   4.319   7.466 -0.8468 -0.4872 -0.2996
  127OSM    C7F13643   2.047   4.210   7.528 -0.6024 -0.1316  0.4400
  127OSM    H7F13644   2.092   4.310   7.511  1.0500 -0.9142  0.0868
  127OSM    H7G13645   2.113   4.133   7.483 -1.6507  0.5522 -2.4735
  127OSM    C8F13646   2.010   4.209   7.678  0.2962 -0.9759  0.0578
  127OSM    H8F13647   1.936   4.286   7.707 -0.8741 -2.3702  0.9041
  127OSM    H8G13648   2.104   4.233   7.732 -0.3089  1.4192  0.1244
  127OSM    C9F13649   1.953   4.071   7.713 -0.3666 -0.6866 -0.0690
  127OSM    H9F13650   2.011   3.989   7.667  0.3637  1.4641 -3.4002
  127OSM   C10F13651   1.838   4.037   7.782 -0.0523  0.6398 -0.2461
  127OSM   H10F13652   1.810   3.931   7.786  0.9776  0.3628 -0.0510
  127OSM   C11F13653   1.742   4.129   7.843  0.5733  0.3966  0.6640
  127OSM   H11F13654   1.635   4.104   7.825 -0.3195  3.3034  1.3901
  127OSM   H11G13655   1.760   4.233   7.806 -1.9670  0.8492  0.5125
  127OSM   C12F13656   1.766   4.126   8.000 -0.1736  0.1834 -0.3458
  127OSM   H12F13657   1.766   4.022   8.037 -2.6727  0.4555  0.6528
  127OSM   H12G13658   1.689   4.183   8.057  0.9907  2.0463 -0.5616
  127OSM   C13F13659   1.902   4.183   8.047 -0.6753  0.0765  0.5997
  127OSM   H13F13660   1.907   4.270   7.977  0.7082 -1.2005 -0.9651
  127OSM   H13G13661   1.987   4.122   8.009  0.7027  1.4964  1.2556
  127OSM   C14F13662   1.922   4.222   8.192 -0.2938  0.3699 -0.3157
  127OSM   H14F13663   1.865   4.147   8.251 -0.5817  1.2709  0.5848
  127OSM   H14G13664   1.875   4.317   8.225 -0.5515  0.1340  0.0050
  127OSM   C15F13665   2.067   4.221   8.235  0.8209  0.4850 -0.1927
  127OSM   H15F13666   2.103   4.125   8.192 -0.1055 -0.0273  0.1633
  127OSM   H15G13667   2.088   4.224   8.344  1.4025 -1.8872 -0.1949
  127OSM   C16F13668   2.146   4.326   8.163 -0.0491  0.0144  0.6189
  127OSM   H16F13669   2.117   4.429   8.195 -0.3821  0.3222 -0.6075
  127OSM   H16G13670   2.131   4.312   8.054 -1.4403  1.6456  0.5497
  127OSM   C17F13671   2.298   4.311   8.174  0.2416 -0.6790  0.7641
  127OSM   H17F13672   2.322   4.204   8.157 -1.9030 -1.3517  1.6543
  127OSM   H17G13673   2.322   4.339   8.279  0.3325 -0.1619  0.6096
  127OSM   C18F13674   2.362   4.386   8.064  0.3303 -0.1926  0.0086
  127OSM   H18F13675   2.468   4.356   8.046  0.7418  1.5319 -0.6822
  127OSM   H18G13676   2.361   4.497   8.075 -0.1630 -0.3923  2.3994
  127OSM   H18H13677   2.315   4.368   7.965  2.0461  1.0265 -1.1027
  128OSM      N13678   5.077   2.325   6.088  0.4052 -0.0395  0.0669
  128OSM    C1513679   4.986   2.210   6.068  0.1705 -0.4416 -0.6930
  128OSM   H15A13680   4.948   2.226   5.968  1.3326  1.1912 -0.9114
  128OSM   H15B13681   4.899   2.222   6.130  1.2258  0.4750  0.6559
  128OSM   H15C13682   5.028   2.111   6.076 -1.2825 -0.8986  3.3255
  128OSM    C1413683   5.129   2.323   6.225 -0.2416  0.0739 -0.9019
  128OSM   H14A13684   5.229   2.361   6.230  0.4975 -1.6648 -1.6540
  128OSM   H14B13685   5.134   2.224   6.268 -0.9458  0.9254  1.2780
  128OSM   H14C13686   5.055   2.373   6.286 -1.5412 -1.6617 -0.9473
  128OSM    C1313687   5.206   2.301   6.018  0.5623  0.7148 -0.0586
  128OSM   H13A13688   5.274   2.246   6.081 -3.0298 -1.1464  2.5157
  128OSM   H13B13689   5.247   2.395   5.985  0.2378  0.3731 -1.4731
  128OSM   H13C13690   5.186   2.243   5.930  2.3579  0.3945 -0.2880
  128OSM    C1213691   5.007   2.455   6.041  0.0687 -0.1374  0.4200
  128OSM   H12A13692   4.991   2.457   5.935 -0.7121  0.8587  0.5371
  128OSM   H12B13693   5.082   2.532   6.052  1.1639 -1.1271  0.0746
  128OSM    C1113694   4.873   2.488   6.124 -0.3788  0.1544  0.7648
  128OSM   H11A13695   4.854   2.594   6.098 -0.7401 -0.1443 -0.2461
  128OSM   H11B13696   4.891   2.485   6.233 -1.4125 -0.7409  0.9279
  128OSM      P13697   4.613   2.430   6.120  0.2043  0.2714 -0.1086
  128OSM    O1313698   4.564   2.577   6.116 -0.5382 -0.3251 -0.7928
  128OSM    O1413699   4.527   2.325   6.057  0.4165  0.6393  0.2926
  128OSM    O1113700   4.615   2.398   6.279  0.0169  1.3100  0.3759
  128OSM    O1213701   4.761   2.412   6.075 -0.0270 -0.3554  0.6754
  128OSM    C1S13702   4.705   2.287   6.320 -0.4661  0.0870  0.1381
  128OSM    H1S13703   4.813   2.297   6.294  0.0568 -2.9741  0.7444
  128OSM    H1T13704   4.672   2.194   6.268 -2.0009  0.9092 -0.4284
  128OSM     NF13705   4.814   2.171   6.510 -0.2427 -0.0055 -0.5229
  128OSM    HNF13706   4.806   2.073   6.524  2.3601 -0.1757  0.2655
  128OSM    C2S13707   4.704   2.254   6.475 -0.4095  0.3639  0.4541
  128OSM    H2S13708   4.707   2.352   6.528 -1.7235  0.7200 -0.0834
  128OSM    C3S13709   4.573   2.186   6.521 -0.3539 -0.7036  0.3000
  128OSM    H3S13710   4.573   2.084   6.476 -0.9364 -1.6290  2.2706
  128OSM     O313711   4.461   2.247   6.466  0.7420 -0.3652 -0.2234
  128OSM    HO313712   4.491   2.304   6.395 -3.2518 -1.0171 -2.7469
  128OSM    C4S13713   4.559   2.180   6.672  0.6391  0.2639  0.4645
  128OSM    H4S13714   4.579   2.276   6.721 -2.0853  1.6018 -0.8515
  128OSM    C5S13715   4.533   2.067   6.735 -0.2788  0.5762 -0.1605
  128OSM    H5S13716   4.515   1.975   6.678 -0.9834  0.5236  0.1427
  128OSM    C6S13717   4.537   2.048   6.890  0.1353 -0.5265  0.5659
  128OSM    H6S13718   4.614   2.107   6.943  2.1111 -2.1161 -0.3784
  128OSM    H6T13719   4.572   1.944   6.907 -2.7308 -1.3475  2.1701
  128OSM    C7S13720   4.394   2.051   6.952  0.5913 -0.7712 -0.6884
  128OSM    H7S13721   4.321   2.006   6.882  0.7068  0.9068 -1.9509
  128OSM    H7T13722   4.371   2.158   6.975 -1.2361 -1.4363  0.8112
  128OSM    C8S13723   4.402   1.976   7.083  0.3703 -0.5116 -0.2902
  128OSM    H8S13724   4.432   1.869   7.083  3.7137  0.3325 -0.0264
  128OSM    H8T13725   4.301   1.964   7.130  0.2031  3.4585  0.7370
  128OSM    C9S13726   4.476   2.059   7.197  0.4508  0.0684  0.4868
  128OSM    H9S13727   4.471   2.169   7.180  0.2833  0.1948  1.3357
  128OSM    H9T13728   4.585   2.052   7.177  0.1285  0.2589 -1.6478
  128OSM   C10S13729   4.419   2.022   7.328  0.3272 -0.8991 -0.9398
  128OSM   H10S13730   4.408   1.911   7.337  0.3963 -0.8346 -0.0260
  128OSM   H10T13731   4.317   2.065   7.338  0.6283  0.0406 -1.7454
  128OSM   C11S13732   4.507   2.065   7.451  0.0880  0.4985 -0.4620
  128OSM   H11S13733   4.555   2.162   7.427  0.4010  1.3945  3.2473
  128OSM   H11T13734   4.584   1.986   7.459  0.6403  1.2453  3.3859
  128OSM   C12S13735   4.440   2.080   7.588 -0.4127  0.4847  0.0958
  128OSM   H12S13736   4.410   1.978   7.619  0.0002  0.0812 -0.8099
  128OSM   H12T13737   4.344   2.135   7.572 -0.5223  0.0099 -0.9124
  128OSM   C13S13738   4.529   2.128   7.705 -0.3128  0.4584 -0.4862
  128OSM   H13S13739   4.569   2.230   7.688 -0.5974  0.9224  1.3892
  128OSM   H13T13740   4.625   2.072   7.703 -0.8360 -0.5477  1.2143
  128OSM   C14S13741   4.461   2.130   7.842 -0.3356  0.1327 -0.6917
  128OSM   H14S13742   4.385   2.049   7.851  1.3295 -1.3066  1.1102
  128OSM   H14T13743   4.414   2.231   7.836 -1.1661 -0.2078 -0.1065
  128OSM   C15S13744   4.558   2.120   7.967  0.3292 -0.0833  0.0729
  128OSM   H15S13745   4.625   2.208   7.970  1.0116 -0.5903  0.1532
  128OSM   H15T13746   4.626   2.033   7.951 -0.1329 -0.3316 -0.5941
  128OSM   C16S13747   4.476   2.108   8.100 -1.0038 -0.0836  0.2761
  128OSM   H16S13748   4.411   2.018   8.096 -1.3138  0.1827 -1.7150
  128OSM   H16T13749   4.423   2.204   8.111  0.7084  0.7270  2.1536
  128OSM   C17S13750   4.575   2.093   8.220  0.1484 -0.5810 -0.3705
  128OSM   H17S13751   4.641   2.004   8.211 -0.6937 -1.4905  1.8054
  128OSM   H17T13752   4.520   2.086   8.316 -1.7178 -0.2340 -1.3573
  128OSM   C18S13753   4.674   2.209   8.249  0.2153 -0.2324 -0.5756
  128OSM   H18S13754   4.739   2.181   8.335 -0.9506 -2.0620 -0.2295
  128OSM   H18T13755   4.612   2.300   8.266  0.6232 -0.1422  0.4834
  128OSM   H18U13756   4.731   2.221   8.155  2.5274 -0.8909  0.6814
  128OSM    C1F13757   4.938   2.224   6.520  0.1733 -0.9171  0.4169
  128OSM     OF13758   4.948   2.345   6.497 -0.1683 -0.7360  0.1723
  128OSM    C2F13759   5.055   2.146   6.562  0.7899  0.0103  0.0365
  128OSM    H2F13760   5.139   2.214   6.586  0.6516 -0.2272  1.2243
  128OSM    H2G13761   5.079   2.082   6.474  2.0726  0.0849  0.3065
  128OSM    C3F13762   5.013   2.068   6.689 -0.4823 -0.5656  0.4921
  128OSM    H3F13763   5.088   1.992   6.721 -0.6681 -1.4890 -1.1487
  128OSM    H3G13764   4.922   2.011   6.660 -0.6536  1.0300 -2.4480
  128OSM    C4F13765   4.992   2.161   6.810  0.2232 -0.3199  0.1499
  128OSM    H4F13766   4.909   2.231   6.792  0.6695 -0.3970 -2.6323
  128OSM    H4G13767   5.082   2.226   6.817  0.9627 -1.0052 -2.2506
  128OSM    C5F13768   4.951   2.095   6.944 -0.3923  0.1675 -0.2296
  128OSM    H5F13769   5.012   2.003   6.959 -0.4505  0.0243 -0.8147
  128OSM    H5G13770   4.850   2.052   6.930 -0.2634  0.2643 -1.6370
  128OSM    C6F13771   4.977   2.185   7.062 -0.0531  0.9259 -0.7644
  128OSM    H6F13772   4.911   2.273   7.048  0.1614  1.3608  0.7688
  128OSM    H6G13773   5.080   2.227   7.065  0.0995  0.5268  0.1173
  128OSM    C7F13774   4.933   2.119   7.199 -0.3641 -0.2099  0.0613
  128OSM    H7F13775   5.010   2.041   7.211 -0.9394 -0.8333 -0.2180
  128OSM    H7G13776   4.830   2.076   7.191 -1.3956  2.2777 -0.8867
  128OSM    C8F13777   4.943   2.232   7.313 -0.2765  0.3996  0.8905
  128OSM    H8F13778   4.840   2.239   7.354 -0.3546 -1.6389  1.1524
  128OSM    H8G13779   4.982   2.325   7.265 -0.5953 -0.4528 -1.1427
  128OSM    C9F13780   5.039   2.178   7.414  0.2906 -0.2030 -0.1579
  128OSM    H9F13781   5.138   2.147   7.378 -0.6528 -1.6023 -1.7267
  128OSM   C10F13782   5.025   2.165   7.546  0.7026 -0.7190 -0.4219
  128OSM   H10F13783   5.094   2.107   7.609 -1.0308  0.0487  2.3655
  128OSM   C11F13784   4.899   2.205   7.614  0.0373  0.2696  0.2092
  128OSM   H11F13785   4.807   2.153   7.579 -1.3287  2.1812  0.7932
  128OSM   H11G13786   4.884   2.312   7.589 -1.7251  0.4740  1.8491
  128OSM   C12F13787   4.902   2.192   7.761 -1.1829  0.6762  0.4551
  128OSM   H12F13788   4.890   2.082   7.776 -0.1953  0.3201 -1.0736
  128OSM   H12G13789   4.816   2.238   7.814 -0.0398  1.0297  2.0463
  128OSM   C13F13790   5.029   2.258   7.822 -0.4044 -0.2989 -0.1578
  128OSM   H13F13791   5.029   2.365   7.789  0.2798 -0.3992 -0.4968
  128OSM   H13G13792   5.125   2.218   7.783 -0.7176 -0.3563 -0.8809
  128OSM   C14F13793   5.031   2.252   7.977  0.9807  0.7024 -0.5218
  128OSM   H14F13794   5.045   2.148   8.014 -1.4472  0.0563 -1.2420
  128OSM   H14G13795   4.924   2.274   7.996  0.6298 -1.2118 -0.0409
  128OSM   C15F13796   5.121   2.360   8.030  0.1488 -0.0596 -0.0672
  128OSM   H15F13797   5.080   2.456   7.992 -3.4171 -1.2993  0.2124
  128OSM   H15G13798   5.226   2.344   7.997  1.2780  5.3297 -0.0136
  128OSM   C16F13799   5.107   2.369   8.183 -0.2945 -0.1948 -0.3236
  128OSM   H16F13800   4.999   2.370   8.208 -0.0436  4.1183  1.4966
  128OSM   H16G13801   5.140   2.467   8.222 -1.9394  0.1193  0.3592
  128OSM   C17F13802   5.171   2.249   8.248  0.3851 -0.1222 -0.1434
  128OSM   H17F13803   5.263   2.210   8.199  0.4437 -3.1287  2.0784
  128OSM   H17G13804   5.100   2.163   8.252 -0.0295  0.2484  1.9196
  128OSM   C18F13805   5.200   2.274   8.398  0.5365 -0.0069 -0.5301
  128OSM   H18F13806   5.248   2.194   8.458 -1.1287 -0.2508  0.5466
  128OSM   H18G13807   5.101   2.294   8.444  0.6714 -2.0515  0.7601
  128OSM   H18H13808   5.265   2.364   8.410 -2.7621  2.4747  0.2074
  129OSM      N13809   1.551   5.090   5.911  0.0555  0.3916  0.0406
  129OSM    C1513810   1.642   5.085   5.787  0.2004 -0.1605 -0.2344
  129OSM   H15A13811   1.689   4.988   5.779 -1.5788 -1.1409  0.5248
  129OSM   H15B13812   1.723   5.153   5.807 -1.0870  1.4667 -0.3461
  129OSM   H15C13813   1.604   5.110   5.689  0.9174  1.6811 -0.0914
  129OSM    C1413814   1.500   5.231   5.932 -0.7670  0.2629 -0.0523
  129OSM   H14A13815   1.584   5.299   5.938  0.9416 -1.8758  1.9089
  129OSM   H14B13816   1.431   5.254   6.012 -0.8257  2.2327 -0.5991
  129OSM   H14C13817   1.452   5.251   5.837 -2.2532 -0.4108  0.5387
  129OSM    C1313818   1.435   4.994   5.895  0.7752 -0.8115  0.0639
  129OSM   H13A13819   1.452   4.908   5.832 -0.1008 -0.2700 -0.9485
  129OSM   H13B13820   1.362   5.047   5.835  1.5905  2.6515  1.8467
  129OSM   H13C13821   1.396   4.962   5.990 -2.3367 -0.8327 -1.0971
  129OSM    C1213822   1.623   5.042   6.035  0.8198  0.3850 -1.0694
  129OSM   H12A13823   1.715   5.097   6.046 -1.0057  3.2399  1.6350
  129OSM   H12B13824   1.657   4.942   6.015 -0.4826 -0.5123  0.8673
  129OSM    C1113825   1.564   5.064   6.172  0.2421 -0.5891 -0.1643
  129OSM   H11A13826   1.554   5.173   6.190  0.0862 -0.9520  2.3580
  129OSM   H11B13827   1.637   5.020   6.245  2.2744  0.0296 -1.7408
  129OSM      P13828   1.433   4.861   6.259  0.3265  0.3196  0.1726
  129OSM    O1313829   1.289   4.825   6.254 -0.1916  0.2494  0.0477
  129OSM    O1413830   1.530   4.772   6.190 -0.1349  0.8023 -0.4051
  129OSM    O1113831   1.478   4.889   6.407  0.1867  0.1527  0.0825
  129OSM    O1213832   1.436   4.999   6.184  0.0144 -0.2344 -0.4583
  129OSM    C1S13833   1.412   5.002   6.474 -0.4001  0.0241  0.2716
  129OSM    H1S13834   1.302   4.990   6.482 -0.6034  1.1067 -0.6390
  129OSM    H1T13835   1.440   5.098   6.425  1.6555 -0.2119  0.8540
  129OSM     NF13836   1.377   5.098   6.703  0.0189  0.5438  0.4915
  129OSM    HNF13837   1.414   5.187   6.726  0.1446  0.6198  0.0003
  129OSM    C2S13838   1.460   5.011   6.623  0.4545  0.4669  0.4364
  129OSM    H2S13839   1.458   4.908   6.664  1.2668 -0.0544 -0.7739
  129OSM    C3S13840   1.612   5.048   6.625  0.6817 -0.2525  0.1134
  129OSM    H3S13841   1.614   5.151   6.584  0.0706 -0.3889 -0.2744
  129OSM     O313842   1.701   4.976   6.537  0.0848  0.6098 -0.3183
  129OSM    HO313843   1.637   4.936   6.478  1.8317 -2.8052 -0.1112
  129OSM    C4S13844   1.664   5.052   6.770  0.1791  0.4488  0.2278
  129OSM    H4S13845   1.654   5.150   6.820 -1.4512  0.5305 -0.1962
  129OSM    C5S13846   1.716   4.953   6.835 -0.5441  0.2692 -1.1781
  129OSM    H5S13847   1.740   4.859   6.784 -2.7505 -1.6117  0.9742
  129OSM    C6S13848   1.748   4.949   6.980 -0.8524 -0.2219 -0.4496
  129OSM    H6S13849   1.856   4.975   6.982 -1.1052  0.9623 -1.2668
  129OSM    H6T13850   1.734   4.849   7.026  1.5370 -0.0114  0.9141
  129OSM    C7S13851   1.673   5.042   7.083 -0.0118 -0.4201  0.6816
  129OSM    H7S13852   1.563   5.026   7.091 -0.3829  0.8809 -1.1132
  129OSM    H7T13853   1.673   5.147   7.047 -0.1429  1.1064  4.6397
  129OSM    C8S13854   1.738   5.041   7.219  0.6169  0.6728 -0.0903
  129OSM    H8S13855   1.841   5.081   7.223  0.9418  0.0751 -1.9103
  129OSM    H8T13856   1.764   4.936   7.244  2.9398  0.9252 -1.1852
  129OSM    C9S13857   1.650   5.112   7.323  0.0825 -0.3634 -0.1613
  129OSM    H9S13858   1.546   5.074   7.333 -0.5566  1.3343 -0.0812
  129OSM    H9T13859   1.647   5.221   7.300  1.4231 -0.4254 -0.6933
  129OSM   C10S13860   1.711   5.106   7.458  0.4017 -0.2812 -0.1915
  129OSM   H10S13861   1.819   5.131   7.464  0.3949 -0.5288  2.8486
  129OSM   H10T13862   1.714   5.001   7.495 -3.6736 -0.0134  1.3924
  129OSM   C11S13863   1.633   5.188   7.560 -0.1015 -0.1228  0.1499
  129OSM   H11S13864   1.527   5.157   7.570 -0.7798  1.3779 -1.8061
  129OSM   H11T13865   1.633   5.290   7.517  0.8242 -0.9638 -2.0426
  129OSM   C12S13866   1.697   5.198   7.702 -0.6487  0.2856  0.2512
  129OSM   H12S13867   1.619   5.256   7.756 -2.0341 -0.2186 -1.1574
  129OSM   H12T13868   1.789   5.260   7.696 -0.7849  0.5670  0.9485
  129OSM   C13S13869   1.715   5.076   7.788 -0.4074 -0.1011  0.3668
  129OSM   H13S13870   1.794   5.024   7.730  0.1548  0.5259  0.5555
  129OSM   H13T13871   1.628   5.007   7.786 -0.1668 -0.4085  0.3093
  129OSM   C14S13872   1.783   5.089   7.924  0.5068 -0.0327  0.2162
  129OSM   H14S13873   1.883   5.132   7.901  1.6678 -2.8404 -0.4515
  129OSM   H14T13874   1.797   4.986   7.965 -2.7531 -0.8117 -0.3769
  129OSM   C15S13875   1.717   5.189   8.019 -0.4110 -0.4550 -0.5151
  129OSM   H15S13876   1.618   5.149   8.050 -1.0699  2.0614  0.8816
  129OSM   H15T13877   1.696   5.281   7.961 -2.4922 -1.4239 -1.4130
  129OSM   C16S13878   1.791   5.225   8.142 -0.0216  0.0562  0.3619
  129OSM   H16S13879   1.884   5.284   8.123  1.6332 -2.1907  1.0207
  129OSM   H16T13880   1.832   5.136   8.196 -0.1060  0.1251  0.5417
  129OSM   C17S13881   1.706   5.307   8.235 -0.2571  0.1611 -0.2558
  129OSM   H17S13882   1.611   5.251   8.244 -1.0613  1.2939 -1.2469
  129OSM   H17T13883   1.685   5.405   8.185  2.4460  0.8075 -0.2808
  129OSM   C18S13884   1.769   5.336   8.372 -0.1304  0.3057 -0.6792
  129OSM   H18S13885   1.693   5.399   8.423  0.3451  0.5380 -0.2482
  129OSM   H18T13886   1.857   5.402   8.358  0.3501 -0.1063  0.3077
  129OSM   H18U13887   1.797   5.243   8.426 -2.5231 -0.1381 -0.0927
  129OSM    C1F13888   1.252   5.069   6.731 -0.3798  0.4670  0.2107
  129OSM     OF13889   1.196   4.965   6.690 -0.0457 -0.4086  0.3297
  129OSM    C2F13890   1.181   5.185   6.795  0.6404  0.6537 -0.1368
  129OSM    H2F13891   1.155   5.256   6.714  0.9131  2.3169  1.1917
  129OSM    H2G13892   1.259   5.241   6.851 -0.0280  0.1529  1.3198
  129OSM    C3F13893   1.045   5.134   6.859 -0.7150 -0.5231 -0.1663
  129OSM    H3F13894   0.982   5.088   6.780  2.6516 -0.8453 -2.8916
  129OSM    H3G13895   0.996   5.227   6.894 -2.3891 -0.9434 -1.3159
  129OSM    C4F13896   1.053   5.034   6.975  0.0111  0.4220 -0.7880
  129OSM    H4F13897   1.086   4.934   6.940 -1.0326 -0.2282  0.0436
  129OSM    H4G13898   0.949   5.015   7.010 -0.7679 -1.6254 -3.8183
  129OSM    C5F13899   1.154   5.075   7.084 -0.4374  0.2111 -0.7149
  129OSM    H5F13900   1.128   5.171   7.132  1.2804 -0.6001  2.1195
  129OSM    H5G13901   1.253   5.088   7.035  0.8910 -1.5342  1.3034
  129OSM    C6F13902   1.152   4.972   7.198 -0.3819  0.1460 -0.0093
  129OSM    H6F13903   1.181   4.877   7.148  0.2740  0.0619  0.5205
  129OSM    H6G13904   1.051   4.958   7.240 -0.3302  1.6974  0.7157
  129OSM    C7F13905   1.268   5.005   7.292 -0.5251  0.2194 -0.4999
  129OSM    H7F13906   1.255   5.109   7.329 -1.5388  0.5647 -1.7357
  129OSM    H7G13907   1.353   5.022   7.223 -2.1895  0.8108 -2.5182
  129OSM    C8F13908   1.307   4.913   7.409 -0.5126  0.0655  0.1255
  129OSM    H8F13909   1.397   4.948   7.463  0.2872 -1.8155  0.0972
  129OSM    H8G13910   1.332   4.814   7.364 -2.7315  0.3650 -2.0101
  129OSM    C9F13911   1.189   4.894   7.501  0.1942 -0.9133 -0.9414
  129OSM    H9F13912   1.090   4.924   7.464  0.7533  1.1026 -0.8934
  129OSM   C10F13913   1.197   4.839   7.624 -0.2291  0.4622 -0.1213
  129OSM   H10F13914   1.107   4.812   7.680 -1.9118  0.9056 -2.4358
  129OSM   C11F13915   1.323   4.797   7.690  0.0258 -0.5312  0.0433
  129OSM   H11F13916   1.417   4.824   7.638 -1.1248  2.4277 -0.7129
  129OSM   H11G13917   1.319   4.686   7.693 -2.1989 -0.4964 -0.1694
  129OSM   C12F13918   1.324   4.843   7.836  0.0964 -0.2150  0.0495
  129OSM   H12F13919   1.417   4.804   7.884  1.1243 -0.3418 -1.9324
  129OSM   H12G13920   1.240   4.795   7.891 -1.3809  1.7907 -0.3492
  129OSM   C13F13921   1.315   4.998   7.861 -0.6926 -0.1688 -0.0391
  129OSM   H13F13922   1.225   5.045   7.816  0.5237  0.8457 -1.5231
  129OSM   H13G13923   1.406   5.042   7.814  0.0172  0.1643  1.5715
  129OSM   C14F13924   1.337   5.029   8.012 -0.5379  0.0134  0.8589
  129OSM   H14F13925   1.434   4.983   8.043 -1.7421 -2.6251  0.9844
  129OSM   H14G13926   1.250   4.984   8.065 -0.8303  1.2177  1.4370
  129OSM   C15F13927   1.347   5.185   8.040 -0.2188 -0.4125  0.0827
  129OSM   H15F13928   1.419   5.229   7.968  0.6235 -0.6725  0.7541
  129OSM   H15G13929   1.393   5.207   8.138 -0.2538 -2.6248  0.6497
  129OSM   C16F13930   1.212   5.251   8.023  0.4295  0.5762  0.6014
  129OSM   H16F13931   1.143   5.223   8.105 -0.2757  1.3552  0.2833
  129OSM   H16G13932   1.176   5.214   7.924  2.7601 -0.3242  0.0214
  129OSM   C17F13933   1.209   5.405   8.013  0.0030  0.5066 -0.2200
  129OSM   H17F13934   1.104   5.435   7.994 -0.9017 -0.7981  2.2444
  129OSM   H17G13935   1.277   5.428   7.928  1.0720 -1.5237  0.0319
  129OSM   C18F13936   1.253   5.473   8.146 -0.1635 -0.8342 -0.2925
  129OSM   H18F13937   1.362   5.467   8.165 -0.0216  1.6513 -0.0316
  129OSM   H18G13938   1.194   5.433   8.231 -0.8592  0.9466  0.0898
  129OSM   H18H13939   1.218   5.578   8.152 -1.0055 -1.0645 -0.8204
  130OSM      N13940   4.959   0.378   5.947  0.3451 -0.5861 -0.0051
  130OSM    C1513941   5.105   0.382   5.910  0.2975 -0.2227 -0.5552
  130OSM   H15A13942   5.170   0.429   5.982 -0.7688  2.4956 -1.2294
  130OSM   H15B13943   5.120   0.434   5.816  1.1809  0.3276 -0.1275
  130OSM   H15C13944   5.142   0.285   5.882  1.0626  0.4386 -1.9727
  130OSM    C1413945   4.892   0.267   5.856 -0.0158 -0.0504 -0.2008
  130OSM   H14A13946   4.906   0.294   5.752 -1.2068 -2.0955 -0.9503
  130OSM   H14B13947   4.786   0.257   5.876 -0.6840  2.2863 -2.1429
  130OSM   H14C13948   4.938   0.170   5.868  1.7452  0.7884  0.1162
  130OSM    C1313949   4.957   0.331   6.082  0.4016 -0.5397 -0.2967
  130OSM   H13A13950   5.006   0.390   6.158  0.7051 -0.0099 -0.8943
  130OSM   H13B13951   5.002   0.233   6.087 -0.1824 -0.9176 -1.8118
  130OSM   H13C13952   4.855   0.306   6.109  0.1765 -2.1952 -2.4281
  130OSM    C1213953   4.886   0.517   5.922 -0.1516  0.1164 -0.9922
  130OSM   H12A13954   4.784   0.492   5.946 -0.1698  0.0868 -1.0961
  130OSM   H12B13955   4.889   0.536   5.815 -0.3787  1.4235 -0.7861
  130OSM    C1113956   4.938   0.633   6.015  0.5590 -0.6715 -0.2916
  130OSM   H11A13957   4.906   0.735   5.983  0.5659  0.7541  3.7227
  130OSM   H11B13958   5.049   0.635   6.005  0.5085 -0.1959 -0.8064
  130OSM      P13959   4.755   0.633   6.202  0.2375  0.0992  0.0212
  130OSM    O1313960   4.769   0.736   6.312  0.2839  0.0704  0.2236
  130OSM    O1413961   4.667   0.668   6.088 -0.1514  0.2747  0.5007
  130OSM    O1113962   4.712   0.503   6.271 -0.4354  0.3883 -0.2805
  130OSM    O1213963   4.904   0.609   6.154 -0.1955 -0.3732 -0.5358
  130OSM    C1S13964   4.595   0.488   6.352 -0.6126  0.4579 -0.4474
  130OSM    H1S13965   4.528   0.406   6.321  0.6645 -0.8998  0.2405
  130OSM    H1T13966   4.548   0.587   6.370 -2.0714 -0.2825 -0.0331
  130OSM     NF13967   4.500   0.473   6.587  0.4057 -0.0906  0.7653
  130OSM    HNF13968   4.500   0.556   6.642  0.9003  1.0811 -0.9139
  130OSM    C2S13969   4.623   0.442   6.503  0.3378 -0.2497 -0.6367
  130OSM    H2S13970   4.636   0.332   6.494  1.1320 -0.0298 -2.4621
  130OSM    C3S13971   4.753   0.497   6.560  0.4081 -0.3317  0.4444
  130OSM    H3S13972   4.755   0.608   6.564  2.4051 -0.3732  1.5003
  130OSM     O313973   4.865   0.443   6.487 -0.2633 -1.2763 -0.1424
  130OSM    HO313974   4.822   0.405   6.410 -0.9069 -1.0647  0.1018
  130OSM    C4S13975   4.763   0.462   6.705 -0.1600  0.1968  0.2227
  130OSM    H4S13976   4.744   0.358   6.735  0.4598  0.1471  0.4575
  130OSM    C5S13977   4.776   0.549   6.804 -0.0954 -0.7058  0.2966
  130OSM    H5S13978   4.774   0.657   6.784  0.6733 -0.6889  0.2937
  130OSM    C6S13979   4.784   0.510   6.955 -0.4991 -0.6830  0.4410
  130OSM    H6S13980   4.887   0.512   6.998 -0.2056 -1.1831 -0.2190
  130OSM    H6T13981   4.749   0.406   6.968  1.5310 -1.2374  2.0229
  130OSM    C7S13982   4.683   0.602   7.027  0.5889 -0.2387  0.5016
  130OSM    H7S13983   4.580   0.587   6.988  0.2430  0.9065  0.9405
  130OSM    H7T13984   4.699   0.710   7.004 -0.4205 -0.2177 -0.1577
  130OSM    C8S13985   4.675   0.568   7.175 -0.7976 -0.5610 -0.4414
  130OSM    H8S13986   4.657   0.460   7.194 -0.9719 -0.0953  2.5819
  130OSM    H8T13987   4.594   0.628   7.221 -0.6655 -1.7999  1.5200
  130OSM    C9S13988   4.805   0.605   7.253  0.1100 -0.2638  0.0119
  130OSM    H9S13989   4.856   0.700   7.228  0.3127 -1.0740 -3.0953
  130OSM    H9T13990   4.891   0.537   7.232  1.8589  2.1838 -1.1811
  130OSM   C10S13991   4.793   0.594   7.402  0.4417 -0.4470  0.4334
  130OSM   H10S13992   4.777   0.490   7.435 -0.0628 -0.8341 -1.0014
  130OSM   H10T13993   4.704   0.655   7.427  1.4089  1.6099 -0.8716
  130OSM   C11S13994   4.911   0.654   7.481  0.4121  0.0974  0.6835
  130OSM   H11S13995   4.919   0.762   7.453  0.2908  0.1601  0.8879
  130OSM   H11T13996   5.001   0.600   7.445 -0.6566  0.2205 -2.5539
  130OSM   C12S13997   4.904   0.630   7.630  0.7041 -0.1122  0.2284
  130OSM   H12S13998   4.908   0.519   7.639  1.3774 -0.3991 -2.6538
  130OSM   H12T13999   4.801   0.659   7.659  0.4660  2.0776 -2.4451
  130OSM   C13S14000   5.007   0.703   7.718 -0.6870 -0.4445 -0.5514
  130OSM   H13S14001   5.005   0.814   7.718 -0.4532 -0.3635  2.2659
  130OSM   H13T14002   5.104   0.670   7.674 -1.2718  1.4739 -3.5488
  130OSM   C14S14003   4.990   0.659   7.863 -0.5621 -0.5066 -0.6569
  130OSM   H14S14004   4.992   0.548   7.868  1.1783 -0.5586 -1.5877
  130OSM   H14T14005   4.894   0.702   7.898  0.9799  1.7123  1.2046
  130OSM   C15S14006   5.100   0.720   7.955  1.0357 -0.6267 -0.5084
  130OSM   H15S14007   5.086   0.830   7.957 -1.3662 -0.8736 -1.0347
  130OSM   H15T14008   5.195   0.691   7.905  0.3002 -0.1812 -2.2383
  130OSM   C16S14009   5.112   0.668   8.103 -0.7497 -0.7493  0.0086
  130OSM   H16S14010   5.132   0.559   8.104  3.1000 -0.1859  1.7190
  130OSM   H16T14011   5.024   0.695   8.164 -1.3905 -2.0800 -0.2916
  130OSM   C17S14012   5.235   0.728   8.167  0.7386 -0.5277 -0.1599
  130OSM   H17S14013   5.248   0.832   8.129  0.6616 -0.7838 -0.9181
  130OSM   H17T14014   5.314   0.676   8.109 -1.5920 -1.3727 -2.8048
  130OSM   C18S14015   5.257   0.728   8.321  0.5399  0.2828 -0.7512
  130OSM   H18S14016   5.254   0.624   8.360  2.1783  0.5098  0.0318
  130OSM   H18T14017   5.195   0.806   8.370  0.0793 -0.1959 -0.5608
  130OSM   H18U14018   5.362   0.756   8.344 -0.4424  1.6931  2.5841
  130OSM    C1F14019   4.387   0.407   6.568  0.0707  0.3554  0.2005
  130OSM     OF14020   4.385   0.302   6.506 -0.2146 -0.2107 -0.0076
  130OSM    C2F14021   4.256   0.473   6.609  0.2192  0.4092 -0.5835
  130OSM    H2F14022   4.183   0.443   6.531 -0.3698 -1.3661  0.5846
  130OSM    H2G14023   4.252   0.582   6.625  0.8036  0.0292  3.0109
  130OSM    C3F14024   4.218   0.426   6.744  0.2070 -0.3889 -0.5308
  130OSM    H3F14025   4.195   0.318   6.733  0.5853 -0.4728 -0.5287
  130OSM    H3G14026   4.120   0.471   6.768  1.0204 -0.4922  3.7244
  130OSM    C4F14027   4.309   0.457   6.870 -0.3065  0.2799  0.4481
  130OSM    H4F14028   4.307   0.564   6.899 -1.1110 -0.1542  2.1138
  130OSM    H4G14029   4.416   0.431   6.860 -0.1813  0.4069  1.4582
  130OSM    C5F14030   4.253   0.391   7.005 -0.0382 -0.0139  0.0973
  130OSM    H5F14031   4.223   0.285   6.991 -1.3771  0.4439 -0.7224
  130OSM    H5G14032   4.160   0.446   7.031  0.2796 -0.6464  2.8238
  130OSM    C6F14033   4.351   0.391   7.121 -0.7424  0.1575  1.0587
  130OSM    H6F14034   4.373   0.499   7.139  0.0137  0.1712  0.1408
  130OSM    H6G14035   4.440   0.334   7.089 -1.9874  0.8161 -4.7711
  130OSM    C7F14036   4.285   0.344   7.253  0.0353  0.3727  0.1293
  130OSM    H7F14037   4.257   0.237   7.237  1.5614 -0.3177  1.7481
  130OSM    H7G14038   4.186   0.392   7.267  0.0429 -0.0570  1.8291
  130OSM    C8F14039   4.369   0.357   7.376 -0.2330  0.4179  0.9022
  130OSM    H8F14040   4.470   0.313   7.362  0.5150  1.5891  2.3330
  130OSM    H8G14041   4.329   0.301   7.463  1.2835 -2.0386  0.1208
  130OSM    C9F14042   4.383   0.504   7.408  0.6381 -0.1638 -1.2334
  130OSM    H9F14043   4.301   0.567   7.369 -0.4932 -1.7166 -1.4433
  130OSM   C10F14044   4.458   0.557   7.506 -0.8323  0.3525  0.2175
  130OSM   H10F14045   4.466   0.667   7.503  2.6010  0.2017  0.3600
  130OSM   C11F14046   4.542   0.476   7.600 -0.0585  0.1315  0.0232
  130OSM   H11F14047   4.632   0.527   7.639  1.0004 -0.7610 -1.1902
  130OSM   H11G14048   4.584   0.385   7.553 -0.5842 -1.3855  2.3450
  130OSM   C12F14049   4.454   0.434   7.723  0.0699 -0.2940  0.1760
  130OSM   H12F14050   4.357   0.394   7.687  0.9075 -0.0560 -2.5850
  130OSM   H12G14051   4.430   0.525   7.781 -0.4005 -0.4597  0.2468
  130OSM   C13F14052   4.529   0.334   7.812  0.0297  0.6395  0.3889
  130OSM   H13F14053   4.631   0.374   7.827  0.5026  0.9081 -2.8840
  130OSM   H13G14054   4.543   0.243   7.750  3.4431  1.5305 -0.3359
  130OSM   C14F14055   4.451   0.309   7.938 -0.1362  0.7664  0.1350
  130OSM   H14F14056   4.346   0.292   7.906  0.5789 -0.0342 -2.0045
  130OSM   H14G14057   4.455   0.400   8.001 -2.3405  0.9215  0.1304
  130OSM   C15F14058   4.497   0.199   8.042 -0.0888  0.4407  0.4239
  130OSM   H15F14059   4.440   0.211   8.136 -1.9558 -0.1701 -0.5825
  130OSM   H15G14060   4.602   0.227   8.064  0.1559 -0.6934  0.7693
  130OSM   C16F14061   4.496   0.054   7.989 -0.3151 -0.8111  0.2063
  130OSM   H16F14062   4.547   0.056   7.890 -0.8257  1.0801 -0.0593
  130OSM   H16G14063   4.391   0.018   7.994 -0.2499 -0.8875  1.6034
  130OSM   C17F14064   4.572  -0.051   8.075  0.4167 -0.8807 -0.4385
  130OSM   H17F14065   4.516  -0.058   8.170  1.9783  1.4151  0.7558
  130OSM   H17G14066   4.669  -0.005   8.105 -0.2505 -0.7811  1.6938
  130OSM   C18F14067   4.588  -0.183   7.997  0.3204 -0.6464 -0.4309
  130OSM   H18F14068   4.618  -0.269   8.060 -1.5275 -0.6739  0.4720
  130OSM   H18G14069   4.669  -0.168   7.922  2.0331 -1.4108  1.2057
  130OSM   H18H14070   4.491  -0.209   7.949 -0.5317 -0.4715  1.1362
  131OSM      N14071   2.518   3.226   5.714  0.2271 -0.3051 -0.4706
  131OSM    C1514072   2.594   3.272   5.603 -1.0332  0.5677 -0.4459
  131OSM   H15A14073   2.544   3.348   5.544 -0.3545 -0.3019 -2.2426
  131OSM   H15B14074   2.610   3.186   5.539 -0.7569 -0.1195  0.5299
  131OSM   H15C14075   2.694   3.303   5.630 -1.5000  1.4266  0.3169
  131OSM    C1414076   2.378   3.206   5.667 -0.2439 -0.2699  0.6793
  131OSM   H14A14077   2.346   3.283   5.598 -2.6634 -1.7188  0.0771
  131OSM   H14B14078   2.306   3.209   5.747 -2.5835 -0.6530 -1.3093
  131OSM   H14C14079   2.374   3.115   5.609  1.3290 -0.2152  0.4470
  131OSM    C1314080   2.575   3.092   5.760  0.3033 -0.5329 -0.3046
  131OSM   H13A14081   2.674   3.106   5.802  0.1054  0.8389 -0.2504
  131OSM   H13B14082   2.593   3.026   5.676  2.6084  2.4813 -2.4237
  131OSM   H13C14083   2.512   3.061   5.842 -0.2120 -0.4496 -0.6651
  131OSM    C1214084   2.514   3.328   5.830  0.2702 -0.2877 -0.4333
  131OSM   H12A14085   2.498   3.429   5.795  2.3777  0.1197 -0.3625
  131OSM   H12B14086   2.610   3.332   5.879 -0.3879 -1.2673  1.0112
  131OSM    C1114087   2.420   3.293   5.950  0.4119 -0.1388 -1.1343
  131OSM   H11A14088   2.450   3.349   6.042  2.5819  0.9639 -2.4345
  131OSM   H11B14089   2.442   3.187   5.974 -0.6705 -0.0559  0.3864
  131OSM      P14090   2.211   3.452   5.940 -0.0748  0.0876  0.3661
  131OSM    O1314091   2.312   3.556   5.921 -0.6500 -0.0296  0.4588
  131OSM    O1414092   2.090   3.457   5.852  0.0755 -0.2113 -0.2820
  131OSM    O1114093   2.155   3.442   6.089  0.3828  0.6107 -0.4815
  131OSM    O1214094   2.276   3.308   5.919 -0.3629  0.3663  0.0388
  131OSM    C1S14095   2.143   3.570   6.157 -0.0070 -0.1567  0.2360
  131OSM    H1S14096   2.048   3.613   6.119  0.1715 -0.5312 -0.6489
  131OSM    H1T14097   2.222   3.646   6.140 -1.1394  1.3784  1.5267
  131OSM     NF14098   2.089   3.681   6.366  0.2722  0.1329 -0.3372
  131OSM    HNF14099   2.158   3.753   6.369 -0.9326  1.2792  1.5150
  131OSM    C2S14100   2.123   3.549   6.311  0.0356 -0.0927 -0.0079
  131OSM    H2S14101   2.043   3.476   6.333  0.0334 -0.1509 -0.2091
  131OSM    C3S14102   2.254   3.497   6.370 -0.0012 -0.8698 -0.2244
  131OSM    H3S14103   2.331   3.570   6.338 -0.6881 -0.1597 -0.2738
  131OSM     O314104   2.300   3.372   6.313  0.0315  0.0105  0.1485
  131OSM    HO314105   2.230   3.356   6.250 -0.7896 -0.5895  1.1821
  131OSM    C4S14106   2.258   3.486   6.521 -0.4053 -0.0892  0.3596
  131OSM    H4S14107   2.228   3.383   6.546  1.3900 -0.1996  2.3479
  131OSM    C5S14108   2.285   3.575   6.617 -0.6020 -0.0255  0.4868
  131OSM    H5S14109   2.311   3.677   6.585  0.2031 -0.9337 -2.0076
  131OSM    C6S14110   2.292   3.546   6.760 -0.0355 -0.6401 -0.1205
  131OSM    H6S14111   2.218   3.609   6.813 -1.0824 -1.9181 -0.0012
  131OSM    H6T14112   2.394   3.569   6.798 -0.0888 -0.1528 -0.2658
  131OSM    C7S14113   2.250   3.401   6.805 -0.7016  0.6240  0.6518
  131OSM    H7S14114   2.321   3.329   6.760 -2.8674 -1.4944  0.4132
  131OSM    H7T14115   2.145   3.390   6.771 -0.8058 -0.8526  1.4031
  131OSM    C8S14116   2.253   3.382   6.958 -0.0010 -0.0514 -0.2612
  131OSM    H8S14117   2.183   3.300   6.983 -0.9623  0.1152 -2.2035
  131OSM    H8T14118   2.211   3.477   6.998  0.7822  0.1329  0.1474
  131OSM    C9S14119   2.391   3.350   7.018 -0.1741 -1.0698  0.6344
  131OSM    H9S14120   2.470   3.399   6.956  0.7047 -3.0316  0.1203
  131OSM    H9T14121   2.420   3.246   6.994  1.9469 -0.7930  1.7027
  131OSM   C10S14122   2.399   3.379   7.172  0.4300  0.6345 -0.5032
  131OSM   H10S14123   2.330   3.308   7.223  1.5288  1.3718  2.1998
  131OSM   H10T14124   2.365   3.482   7.196 -1.0982  0.2372 -0.8391
  131OSM   C11S14125   2.538   3.353   7.230 -0.2170  0.1760 -0.1682
  131OSM   H11S14126   2.614   3.427   7.199 -0.1091 -0.3741 -1.2601
  131OSM   H11T14127   2.572   3.251   7.203  0.7016  0.5016 -0.2588
  131OSM   C12S14128   2.531   3.344   7.391 -0.6654 -0.3696  0.1005
  131OSM   H12S14129   2.449   3.275   7.421 -1.6870  1.6196  2.1630
  131OSM   H12T14130   2.513   3.443   7.438  0.2764 -0.1935  0.1114
  131OSM   C13S14131   2.675   3.301   7.445 -0.0471 -0.7609 -0.4727
  131OSM   H13S14132   2.728   3.396   7.425  0.0614  0.2392  3.7916
  131OSM   H13T14133   2.712   3.210   7.391  0.5197 -1.5175  1.1335
  131OSM   C14S14134   2.688   3.285   7.603 -0.5686  0.1961 -0.3627
  131OSM   H14S14135   2.790   3.316   7.635 -0.8864  1.9511 -0.9449
  131OSM   H14T14136   2.679   3.177   7.627 -0.5295  0.4166  0.6939
  131OSM   C15S14137   2.596   3.367   7.692 -0.1935 -0.1004 -0.5371
  131OSM   H15S14138   2.489   3.342   7.679 -0.7195  0.8155  1.6134
  131OSM   H15T14139   2.606   3.474   7.664  1.6120  0.1925  0.9761
  131OSM   C16S14140   2.637   3.345   7.836 -0.6286  0.5759  0.5943
  131OSM   H16S14141   2.748   3.347   7.843 -0.2909 -0.8985 -2.5005
  131OSM   H16T14142   2.586   3.251   7.866 -0.3954 -0.4949 -2.0857
  131OSM   C17S14143   2.577   3.452   7.925  0.4282 -0.4996 -0.4536
  131OSM   H17S14144   2.470   3.476   7.904  0.8789  0.4242 -1.8948
  131OSM   H17T14145   2.637   3.543   7.905 -1.3582  0.7120 -0.5975
  131OSM   C18S14146   2.596   3.424   8.076 -0.0093 -0.5141  0.0465
  131OSM   H18S14147   2.701   3.396   8.100  0.3721 -0.2509 -1.2295
  131OSM   H18T14148   2.514   3.356   8.107 -1.6741  1.0882 -0.6521
  131OSM   H18U14149   2.581   3.522   8.126 -0.0314  0.1247 -1.1730
  131OSM    C1F14150   1.964   3.729   6.369  0.8233 -0.3866  0.0259
  131OSM     OF14151   1.876   3.661   6.311 -0.1414 -0.9223  0.0193
  131OSM    C2F14152   1.934   3.861   6.441  0.4135 -0.1964 -0.2709
  131OSM    H2F14153   1.850   3.911   6.387  1.7016  1.7374 -0.5979
  131OSM    H2G14154   2.021   3.929   6.431  0.1015  0.0292 -1.7979
  131OSM    C3F14155   1.904   3.827   6.592 -0.2173 -0.6343  0.2206
  131OSM    H3F14156   1.986   3.777   6.648  1.9597  1.3583 -1.0240
  131OSM    H3G14157   1.808   3.770   6.589  0.2929 -1.4567 -1.7967
  131OSM    C4F14158   1.884   3.963   6.672  0.3177  0.3255 -0.0424
  131OSM    H4F14159   1.810   4.019   6.611  1.0461 -0.4620 -1.6935
  131OSM    H4G14160   1.981   4.015   6.653 -0.4458  1.1414 -1.9815
  131OSM    C5F14161   1.847   3.955   6.817 -0.1269  0.1327 -0.1733
  131OSM    H5F14162   1.743   3.920   6.831 -1.1941  1.4610 -3.7609
  131OSM    H5G14163   1.863   4.060   6.850  1.2936  0.9733 -3.1692
  131OSM    C6F14164   1.945   3.858   6.889  0.6716 -0.0925  0.1122
  131OSM    H6F14165   2.046   3.861   6.843  0.0632  1.1717 -1.1973
  131OSM    H6G14166   1.913   3.753   6.871  1.0892 -0.0317 -1.0722
  131OSM    C7F14167   1.957   3.883   7.039 -0.2959  0.1263  0.3542
  131OSM    H7F14168   1.857   3.846   7.072 -0.0244  0.2801  1.4016
  131OSM    H7G14169   1.969   3.993   7.042 -0.7266  0.1638  1.1973
  131OSM    C8F14170   2.068   3.796   7.105  0.0591 -0.5891  0.0060
  131OSM    H8F14171   2.156   3.818   7.041 -0.3796  1.3604  0.0038
  131OSM    H8G14172   2.044   3.687   7.107  0.8207 -0.7559  0.8886
  131OSM    C9F14173   2.104   3.847   7.236 -0.3742 -0.3621 -0.3687
  131OSM    H9F14174   2.179   3.927   7.250  0.8636 -1.1103 -2.2875
  131OSM   C10F14175   2.073   3.787   7.350 -0.7492  0.0857 -0.0640
  131OSM   H10F14176   2.104   3.838   7.442  2.1007 -0.8723 -0.3925
  131OSM   C11F14177   1.994   3.663   7.376  0.0595  0.3388 -0.2291
  131OSM   H11F14178   2.065   3.585   7.409 -0.6960 -0.0460  0.5022
  131OSM   H11G14179   1.942   3.626   7.285 -1.3829 -1.6832  1.3354
  131OSM   C12F14180   1.891   3.700   7.486 -0.0622  1.5678  0.0335
  131OSM   H12F14181   1.935   3.736   7.582 -0.5092  0.2193  0.7828
  131OSM   H12G14182   1.820   3.615   7.501  1.6209 -0.2319 -1.6194
  131OSM   C13F14183   1.794   3.812   7.441 -0.2216 -0.0295  0.5130
  131OSM   H13F14184   1.772   3.780   7.337  1.2643 -2.4686  0.8704
  131OSM   H13G14185   1.851   3.907   7.441 -0.0858  0.1752  5.4855
  131OSM   C14F14186   1.659   3.817   7.515  0.0070 -1.0450  0.2048
  131OSM   H14F14187   1.673   3.850   7.620 -1.0154 -1.2767  0.4224
  131OSM   H14G14188   1.620   3.713   7.522  0.0886 -1.0082  1.4733
  131OSM   C15F14189   1.543   3.890   7.439  0.0914  0.5389  0.1931
  131OSM   H15F14190   1.506   3.818   7.363 -1.5683  1.0887  0.4305
  131OSM   H15G14191   1.579   3.979   7.383 -2.3873 -0.2760 -2.9674
  131OSM   C16F14192   1.420   3.924   7.529 -0.0924 -0.1501 -0.4319
  131OSM   H16F14193   1.331   3.966   7.477  0.3027  0.8659 -0.3155
  131OSM   H16G14194   1.452   4.009   7.593  1.5321 -1.8029  1.0870
  131OSM   C17F14195   1.382   3.819   7.642  0.9905  0.1344  0.2130
  131OSM   H17F14196   1.290   3.867   7.682 -0.6855 -3.6004  1.2805
  131OSM   H17G14197   1.455   3.814   7.725  0.3399 -3.9288  0.7269
  131OSM   C18F14198   1.346   3.682   7.579  0.2716 -0.0706  0.1482
  131OSM   H18F14199   1.436   3.643   7.526  2.1132  4.0578 -0.0919
  131OSM   H18G14200   1.265   3.687   7.503 -0.9890 -0.7636  1.3945
  131OSM   H18H14201   1.318   3.606   7.655  2.9801 -0.1936  1.1413
  132OSM      N14202   3.959   4.807   5.978 -1.2464 -0.5052  0.5863
  132OSM    C1514203   3.927   4.944   5.926  0.6138  0.2308 -0.0082
  132OSM   H15A14204   3.880   4.949   5.829 -0.1290 -0.2170  0.3204
  132OSM   H15B14205   4.006   5.015   5.944  0.7407 -0.1364  0.8958
  132OSM   H15C14206   3.844   4.979   5.985 -1.1431 -1.8452 -1.0718
  132OSM    C1414207   3.873   4.706   5.899 -0.5306  0.3550  0.3092
  132OSM   H14A14208   3.889   4.713   5.792 -1.9544 -1.6586 -0.0923
  132OSM   H14B14209   3.766   4.713   5.917 -0.7249 -1.0170 -0.1765
  132OSM   H14C14210   3.914   4.607   5.912 -0.2369 -0.0715 -3.0218
  132OSM    C1314211   4.101   4.785   5.940  0.3498  0.7837  0.0790
  132OSM   H13A14212   4.166   4.853   5.993  1.0472 -0.5465  0.9873
  132OSM   H13B14213   4.111   4.797   5.833 -4.1820  0.0594 -0.6398
  132OSM   H13C14214   4.129   4.684   5.968 -0.3149  1.4397  3.5562
  132OSM    C1214215   3.929   4.799   6.128 -0.0974  0.4199 -0.4753
  132OSM   H12A14216   3.824   4.803   6.152 -0.1040 -0.1921 -0.3915
  132OSM   H12B14217   3.971   4.883   6.181 -2.0619  0.4474  1.1573
  132OSM    C1114218   3.975   4.666   6.203 -0.6278  0.1778 -0.0756
  132OSM   H11A14219   3.998   4.693   6.309  1.4945  0.8793 -0.6610
  132OSM   H11B14220   4.069   4.628   6.157 -1.4043 -1.3033 -0.4876
  132OSM      P14221   3.757   4.541   6.288 -0.6120  0.3410 -0.2071
  132OSM    O1314222   3.627   4.534   6.219  0.0199 -0.0145 -0.0120
  132OSM    O1414223   3.797   4.433   6.380  0.1339  0.1823 -0.3275
  132OSM    O1114224   3.763   4.681   6.366 -0.3296  0.3623 -0.4027
  132OSM    O1214225   3.873   4.563   6.182 -0.1542 -0.2603  0.3537
  132OSM    C1S14226   3.751   4.689   6.510 -0.4908  0.2325  0.3266
  132OSM    H1S14227   3.832   4.628   6.555 -0.2585  1.3612  1.5279
  132OSM    H1T14228   3.651   4.654   6.546  0.7627 -1.7793  2.0620
  132OSM     NF14229   3.763   4.824   6.714  0.3065  0.7215 -0.5284
  132OSM    HNF14230   3.678   4.854   6.758 -0.6425  0.1624 -1.9110
  132OSM    C2S14231   3.764   4.831   6.565  0.0549  0.3698 -0.2898
  132OSM    H2S14232   3.866   4.862   6.536  0.3394  0.3490  0.6788
  132OSM    C3S14233   3.660   4.928   6.505 -0.2788 -0.7709 -0.1015
  132OSM    H3S14234   3.558   4.891   6.528  0.0143 -2.5765 -1.5044
  132OSM     O314235   3.665   4.928   6.357  0.3311  0.1379 -0.1901
  132OSM    HO314236   3.722   4.851   6.347 -1.1007 -1.1352  0.8482
  132OSM    C4S14237   3.683   5.068   6.570 -0.3517  0.7738  0.1313
  132OSM    H4S14238   3.783   5.102   6.540 -0.0364 -1.3491 -1.5220
  132OSM    C5S14239   3.591   5.135   6.632  0.5954 -1.5435 -0.3052
  132OSM    H5S14240   3.496   5.085   6.654  1.2274 -1.8696  1.8855
  132OSM    C6S14241   3.615   5.271   6.697 -0.0104 -0.0526 -0.1817
  132OSM    H6S14242   3.526   5.330   6.666  1.2572  1.7823 -0.5193
  132OSM    H6T14243   3.702   5.322   6.651 -0.4219 -1.0646 -2.1718
  132OSM    C7S14244   3.612   5.263   6.848  0.1878 -0.2113  0.1281
  132OSM    H7S14245   3.513   5.223   6.876 -0.4160  1.3133  0.2831
  132OSM    H7T14246   3.619   5.365   6.892  0.5223 -1.4088  3.0822
  132OSM    C8S14247   3.718   5.180   6.918 -0.2743 -0.0461 -1.1200
  132OSM    H8S14248   3.820   5.219   6.900  1.2291 -3.5939 -0.9653
  132OSM    H8T14249   3.721   5.075   6.884  2.2290 -0.2477 -0.4527
  132OSM    C9S14250   3.682   5.156   7.064 -0.5894 -0.2564  0.3273
  132OSM    H9S14251   3.746   5.077   7.109  2.5920  1.9148 -0.0955
  132OSM    H9T14252   3.579   5.117   7.050 -0.6814  0.4990 -1.2940
  132OSM   C10S14253   3.680   5.284   7.151 -0.3684  0.6004 -0.1707
  132OSM   H10S14254   3.611   5.364   7.116 -0.3497  1.3925  1.5342
  132OSM   H10T14255   3.780   5.331   7.151  0.5218 -1.1011 -2.1309
  132OSM   C11S14256   3.645   5.244   7.296  0.0023 -0.2140 -0.2285
  132OSM   H11S14257   3.690   5.143   7.311 -0.6453 -0.7031 -1.4172
  132OSM   H11T14258   3.537   5.217   7.303  0.1164 -2.1392 -3.5460
  132OSM   C12S14259   3.697   5.353   7.397 -0.1479  0.2528 -0.3211
  132OSM   H12S14260   3.670   5.455   7.363 -0.3715  0.3530  0.1548
  132OSM   H12T14261   3.808   5.341   7.393 -0.3872 -2.2471 -0.8491
  132OSM   C13S14262   3.642   5.347   7.541 -0.5347 -0.1802 -1.0976
  132OSM   H13S14263   3.675   5.253   7.590 -2.5099 -0.1467  0.4183
  132OSM   H13T14264   3.531   5.336   7.548 -0.6593  1.1726 -0.6268
  132OSM   C14S14265   3.697   5.467   7.620 -0.0332 -0.0379 -1.0058
  132OSM   H14S14266   3.625   5.551   7.612 -0.0676 -0.1720 -2.3799
  132OSM   H14T14267   3.788   5.499   7.564 -0.2924 -0.7694 -1.8818
  132OSM   C15S14268   3.734   5.442   7.769 -0.5975  1.1748 -0.1233
  132OSM   H15S14269   3.646   5.411   7.829  0.7311 -3.0515  0.0091
  132OSM   H15T14270   3.760   5.541   7.812  2.6440  0.7228 -0.7450
  132OSM   C16S14271   3.854   5.349   7.793 -0.1262  0.1927 -0.3431
  132OSM   H16S14272   3.934   5.394   7.731 -0.2552  1.7738  0.5850
  132OSM   H16T14273   3.828   5.252   7.747  0.0661  0.5102 -1.1352
  132OSM   C17S14274   3.889   5.331   7.941 -0.4957 -0.9991  0.5704
  132OSM   H17S14275   3.793   5.346   7.993  0.0370  3.3765  0.6691
  132OSM   H17T14276   3.941   5.423   7.977 -2.9287  0.5621  0.3580
  132OSM   C18S14277   3.978   5.214   7.972 -0.8647 -0.1172 -0.0261
  132OSM   H18S14278   3.984   5.193   8.081  1.7173  1.9066  0.3132
  132OSM   H18T14279   4.080   5.233   7.932 -0.4142 -2.2920 -0.0166
  132OSM   H18U14280   3.938   5.124   7.920 -1.3284 -0.6656  1.2492
  132OSM    C1F14281   3.847   4.753   6.791 -0.3206  0.0298 -0.3301
  132OSM     OF14282   3.939   4.690   6.744 -0.4180 -0.1029  0.2912
  132OSM    C2F14283   3.795   4.747   6.932 -0.1206  0.1844 -0.0806
  132OSM    H2F14284   3.694   4.702   6.927 -0.2352  0.5000 -0.7502
  132OSM    H2G14285   3.781   4.853   6.961  0.9195  0.0490  1.0078
  132OSM    C3F14286   3.892   4.689   7.031  0.3474 -0.0376 -0.5872
  132OSM    H3F14287   3.992   4.736   7.023  0.5889 -0.5263 -0.4515
  132OSM    H3G14288   3.905   4.584   6.996 -1.9414 -0.1993 -1.1272
  132OSM    C4F14289   3.852   4.680   7.178 -0.6847  0.1551  0.0543
  132OSM    H4F14290   3.750   4.645   7.205 -0.1288 -0.4715  1.4162
  132OSM    H4G14291   3.850   4.785   7.214  2.5640 -0.0359  1.0954
  132OSM    C5F14292   3.955   4.597   7.261 -0.1000 -0.2221 -0.4200
  132OSM    H5F14293   4.058   4.639   7.252  0.3007 -0.8532  1.0144
  132OSM    H5G14294   3.953   4.492   7.225 -5.1165 -0.2770 -0.6789
  132OSM    C6F14295   3.906   4.606   7.405 -0.0957 -0.1822  0.4558
  132OSM    H6F14296   3.886   4.712   7.433 -0.7355 -0.5221  1.3373
  132OSM    H6G14297   3.991   4.578   7.471  0.6982 -1.6138 -1.1117
  132OSM    C7F14298   3.799   4.500   7.436  1.0971 -0.3596 -0.2228
  132OSM    H7F14299   3.832   4.397   7.411 -0.1410 -1.0768  0.9437
  132OSM    H7G14300   3.717   4.522   7.365 -0.1593  0.7162  1.4764
  132OSM    C8F14301   3.739   4.506   7.574  0.2369 -0.5335 -0.3123
  132OSM    H8F14302   3.692   4.606   7.589  0.7187 -0.4723  0.8836
  132OSM    H8G14303   3.822   4.496   7.647  1.2483  1.4794 -1.1012
  132OSM    C9F14304   3.642   4.398   7.613 -0.3194 -0.7831  0.4210
  132OSM    H9F14305   3.633   4.318   7.538 -0.1040  0.5399 -1.0557
  132OSM   C10F14306   3.568   4.390   7.725 -0.3491 -0.0704 -0.1814
  132OSM   H10F14307   3.518   4.295   7.748  0.8707 -1.0190 -1.3084
  132OSM   C11F14308   3.565   4.492   7.835 -0.2341 -0.4190  0.7554
  132OSM   H11F14309   3.462   4.530   7.848 -0.4608 -0.7271 -0.0712
  132OSM   H11G14310   3.635   4.574   7.808 -1.4521 -0.0978 -1.6472
  132OSM   C12F14311   3.615   4.451   7.971 -0.7849  0.0834 -0.0664
  132OSM   H12F14312   3.721   4.418   7.964 -1.1972 -1.5137  0.7029
  132OSM   H12G14313   3.555   4.364   8.005  0.8498 -1.1817 -0.2647
  132OSM   C13F14314   3.599   4.555   8.080 -0.1667 -0.0383 -0.1318
  132OSM   H13F14315   3.489   4.567   8.092 -0.0717  0.1514  0.5822
  132OSM   H13G14316   3.638   4.656   8.055  1.7018 -0.6605  0.1270
  132OSM   C14F14317   3.646   4.505   8.215 -0.2747  0.1568  0.5152
  132OSM   H14F14318   3.757   4.492   8.213 -0.1412  0.3039  3.6018
  132OSM   H14G14319   3.614   4.399   8.224  1.5155 -0.4931 -0.1046
  132OSM   C15F14320   3.596   4.587   8.339  0.5373 -0.0977  0.2735
  132OSM   H15F14321   3.485   4.592   8.335  0.5400 -0.7930 -2.3522
  132OSM   H15G14322   3.638   4.689   8.322 -0.6761  0.7414  1.9934
  132OSM   C16F14323   3.649   4.536   8.466 -0.5668  0.3229 -0.5641
  132OSM   H16F14324   3.760   4.536   8.470 -0.5462 -1.2167 -0.4901
  132OSM   H16G14325   3.616   4.432   8.488  0.8443  0.2467  1.4757
  132OSM   C17F14326   3.605   4.632   8.576 -0.1857 -0.0115  0.4427
  132OSM   H17F14327   3.496   4.623   8.593 -0.1333 -1.0471  0.2779
  132OSM   H17G14328   3.621   4.737   8.543 -0.8964 -0.1450 -0.3712
  132OSM   C18F14329   3.666   4.614   8.711  0.2877 -1.0150 -0.6649
  132OSM   H18F14330   3.777   4.618   8.706  0.3129 -1.6915 -0.7229
  132OSM   H18G14331   3.633   4.520   8.760 -0.6228  1.0444  3.0885
  132OSM   H18H14332   3.635   4.689   8.786 -1.1027 -1.5040 -0.7318
  133OSM      N14333   4.735   4.813   6.339 -0.5354  0.3341  0.3077
  133OSM    C1514334   4.694   4.744   6.461 -0.1087 -0.2912  0.5223
  133OSM   H15A14335   4.587   4.727   6.460  0.0225 -1.1957  0.8881
  133OSM   H15B14336   4.720   4.799   6.550  2.8043 -0.9679  0.1752
  133OSM   H15C14337   4.730   4.642   6.460 -1.4728 -0.9039 -3.4050
  133OSM    C1414338   4.891   4.797   6.342 -0.3769 -0.7422 -0.7665
  133OSM   H14A14339   4.921   4.696   6.365  2.6224 -0.1316 -1.5558
  133OSM   H14B14340   4.939   4.843   6.427  0.0826 -1.1176 -0.8215
  133OSM   H14C14341   4.942   4.828   6.252 -1.3596 -0.0326 -1.0991
  133OSM    C1314342   4.679   4.740   6.223 -0.1271 -0.2917 -1.0788
  133OSM   H13A14343   4.688   4.633   6.238  0.0276  0.0807  2.2077
  133OSM   H13B14344   4.722   4.778   6.131 -1.1575  0.4307 -1.2737
  133OSM   H13C14345   4.574   4.764   6.218 -0.4606 -1.2095  0.8410
  133OSM    C1214346   4.702   4.963   6.335  0.6527  0.7097 -0.1657
  133OSM   H12A14347   4.743   5.006   6.245  0.7033 -1.7965 -1.4445
  133OSM   H12B14348   4.755   5.007   6.418 -1.8293  0.4408  1.6686
  133OSM    C1114349   4.549   5.008   6.342  0.0735  0.1707  1.1612
  133OSM   H11A14350   4.548   5.118   6.325 -0.0018  0.0310  0.1632
  133OSM   H11B14351   4.513   4.974   6.441 -3.9049  4.1317  1.3719
  133OSM      P14352   4.324   4.917   6.242  0.5042 -0.1072  0.3975
  133OSM    O1314353   4.255   5.021   6.160 -0.2310  0.0532  0.8957
  133OSM    O1414354   4.293   4.774   6.210  0.1098  0.0875 -0.4202
  133OSM    O1114355   4.287   4.955   6.390 -0.2393 -0.7984 -0.7679
  133OSM    O1214356   4.474   4.940   6.237 -0.4208 -0.2421 -0.7710
  133OSM    C1S14357   4.278   4.846   6.489 -0.2758 -0.3627 -0.0135
  133OSM    H1S14358   4.368   4.781   6.482  0.3445  0.3552  1.0096
  133OSM    H1T14359   4.186   4.785   6.481 -1.5315  1.4964 -0.4737
  133OSM     NF14360   4.277   4.785   6.731 -0.2780  0.0132 -0.2920
  133OSM    HNF14361   4.186   4.761   6.766  0.2961 -1.4616  0.2595
  133OSM    C2S14362   4.280   4.896   6.640  0.5219 -0.2509  0.2099
  133OSM    H2S14363   4.370   4.960   6.656 -0.8805  2.3073 -1.4636
  133OSM    C3S14364   4.155   4.985   6.650  1.0870  0.6115 -0.1814
  133OSM    H3S14365   4.062   4.927   6.635  0.7679  1.2441 -0.6593
  133OSM     O314366   4.142   5.092   6.554  0.2477  0.3475 -0.1592
  133OSM    HO314367   4.204   5.077   6.482  0.3127  2.1059 -0.5326
  133OSM    C4S14368   4.151   5.030   6.796 -0.0550  0.4955  0.4159
  133OSM    H4S14369   4.114   4.950   6.862 -2.0176 -0.1393 -1.3483
  133OSM    C5S14370   4.190   5.146   6.845  0.7029 -0.0652 -0.3270
  133OSM    H5S14371   4.253   5.213   6.784  1.0657  0.3020  0.4354
  133OSM    C6S14372   4.182   5.186   6.986 -0.2241 -0.9364 -0.3036
  133OSM    H6S14373   4.137   5.285   7.004  3.5193  0.8686  0.0109
  133OSM    H6T14374   4.285   5.188   7.028 -0.4373  0.1223  0.1893
  133OSM    C7S14375   4.082   5.100   7.076  0.3632  0.3678 -0.1961
  133OSM    H7S14376   4.107   4.993   7.064  1.3884  0.6185 -0.4485
  133OSM    H7T14377   3.979   5.121   7.040  0.9268  2.3997 -0.7943
  133OSM    C8S14378   4.081   5.137   7.226 -0.2810 -0.3621 -0.6128
  133OSM    H8S14379   4.020   5.229   7.237 -1.1979 -1.0399  0.2731
  133OSM    H8T14380   4.186   5.141   7.263 -0.8922 -1.5825  1.4268
  133OSM    C9S14381   4.014   5.029   7.303 -0.2393 -0.0745 -0.4895
  133OSM    H9S14382   4.084   4.943   7.298 -1.3493 -1.0565  0.2870
  133OSM    H9T14383   3.917   4.992   7.265 -0.4851 -0.6198  0.6197
  133OSM   C10S14384   3.992   5.063   7.453  1.1474 -0.0907  0.3818
  133OSM   H10S14385   3.893   5.111   7.470  0.8204 -0.8621  0.7129
  133OSM   H10T14386   4.061   5.146   7.482 -0.6354  2.0607 -1.2096
  133OSM   C11S14387   4.003   4.937   7.542  0.4131  0.2211 -0.9666
  133OSM   H11S14388   4.101   4.886   7.527  0.4027  0.5321 -2.2145
  133OSM   H11T14389   3.926   4.864   7.510  1.1815 -0.8182 -0.5016
  133OSM   C12S14390   3.979   4.953   7.693  0.7713  0.5603 -0.3374
  133OSM   H12S14391   3.882   5.002   7.717  0.9167  1.5929 -1.7145
  133OSM   H12T14392   4.056   5.020   7.737  0.0088 -0.3016  2.5418
  133OSM   C13S14393   3.985   4.816   7.760  0.1386 -0.2386  0.5812
  133OSM   H13S14394   4.086   4.779   7.732  1.7717  2.4922  2.2850
  133OSM   H13T14395   3.905   4.745   7.733 -1.1546  0.3675  2.5989
  133OSM   C14S14396   3.977   4.816   7.917  0.0578  0.0878 -0.5416
  133OSM   H14S14397   3.892   4.870   7.964 -0.5302  0.2196 -1.7199
  133OSM   H14T14398   4.066   4.875   7.950 -0.6846  1.2828 -0.6041
  133OSM   C15S14399   3.977   4.666   7.966  0.1578  0.1248  0.3294
  133OSM   H15S14400   4.040   4.613   7.892  0.8308  0.5444  0.5951
  133OSM   H15T14401   3.882   4.619   7.932  0.8162  0.0851 -1.5489
  133OSM   C16S14402   3.999   4.642   8.112 -0.2615  0.1423 -0.7388
  133OSM   H16S14403   4.104   4.643   8.147 -0.2034  0.3895 -0.9183
  133OSM   H16T14404   3.952   4.543   8.132  1.0662 -0.6154 -1.3007
  133OSM   C17S14405   3.946   4.747   8.217 -0.4914 -1.0473  0.7334
  133OSM   H17S14406   3.836   4.736   8.216 -0.5050 -0.9721 -0.6942
  133OSM   H17T14407   3.962   4.852   8.181 -2.4112 -0.8783  0.2773
  133OSM   C18S14408   4.000   4.730   8.356  0.7064 -0.4037 -0.3047
  133OSM   H18S14409   4.051   4.630   8.357  1.1281 -0.2061  1.9855
  133OSM   H18T14410   3.915   4.729   8.427  1.1138  2.6963  0.3572
  133OSM   H18U14411   4.069   4.811   8.388  0.5274  0.5831 -2.2593
  133OSM    C1F14412   4.390   4.713   6.768 -0.3755 -0.1862  1.0764
  133OSM     OF14413   4.497   4.737   6.718 -0.0040  0.2466 -0.5149
  133OSM    C2F14414   4.374   4.615   6.874 -0.4191  0.2665 -0.2698
  133OSM    H2F14415   4.371   4.518   6.819 -2.0302 -1.1450  2.1404
  133OSM    H2G14416   4.278   4.628   6.928 -0.3996 -1.7285  0.3273
  133OSM    C3F14417   4.484   4.616   6.982  0.2369 -0.1861  0.2288
  133OSM    H3F14418   4.500   4.712   7.035 -1.0389  0.0661  0.2021
  133OSM    H3G14419   4.575   4.593   6.923 -0.9341  0.1229 -1.7965
  133OSM    C4F14420   4.455   4.508   7.089  0.4203 -0.1528 -0.1659
  133OSM    H4F14421   4.550   4.470   7.132 -0.4166 -1.9659  0.1860
  133OSM    H4G14422   4.394   4.424   7.050  0.3880 -1.0064  1.6125
  133OSM    C5F14423   4.375   4.560   7.207  0.0313  0.1772 -0.6608
  133OSM    H5F14424   4.270   4.539   7.180 -0.1909  2.4300 -1.7670
  133OSM    H5G14425   4.388   4.670   7.213  0.6161  0.0914 -0.1765
  133OSM    C6F14426   4.408   4.502   7.343 -0.2155  0.7746 -0.1583
  133OSM    H6F14427   4.514   4.523   7.367  0.0477  0.2789 -0.8731
  133OSM    H6G14428   4.395   4.393   7.327  1.2539  0.4314  0.8235
  133OSM    C7F14429   4.321   4.565   7.463 -0.2249  0.2137 -0.0892
  133OSM    H7F14430   4.218   4.525   7.452  0.0718 -0.6160  0.0001
  133OSM    H7G14431   4.320   4.675   7.448 -3.7513  0.5561  1.7300
  133OSM    C8F14432   4.382   4.513   7.601 -0.3399 -0.2857  0.0355
  133OSM    H8F14433   4.492   4.528   7.597 -0.7701  4.0029 -4.9444
  133OSM    H8G14434   4.354   4.405   7.607  1.3114 -0.7126  4.4755
  133OSM    C9F14435   4.315   4.587   7.712 -0.0404  0.6448  0.5784
  133OSM    H9F14436   4.208   4.599   7.689  0.2191 -1.1575 -2.0309
  133OSM   C10F14437   4.368   4.637   7.826  0.7330  0.1251  0.0419
  133OSM   H10F14438   4.311   4.680   7.910  3.4121  0.1976  1.9602
  133OSM   C11F14439   4.511   4.632   7.866 -0.3275 -0.8193 -0.3134
  133OSM   H11F14440   4.574   4.695   7.799  0.5776 -0.5320  0.7724
  133OSM   H11G14441   4.549   4.528   7.867 -0.1916 -0.7807 -1.2762
  133OSM   C12F14442   4.528   4.700   8.013 -0.0254  0.0158 -0.1412
  133OSM   H12F14443   4.499   4.806   8.028 -2.3817 -0.7819  1.5594
  133OSM   H12G14444   4.639   4.706   8.024 -0.1043 -0.3561  1.0175
  133OSM   C13F14445   4.474   4.604   8.122 -0.2325 -0.2729  0.0753
  133OSM   H13F14446   4.495   4.498   8.094 -0.1126  0.4466 -2.8148
  133OSM   H13G14447   4.363   4.609   8.123 -0.1775  2.3532 -0.1299
  133OSM   C14F14448   4.533   4.635   8.267  0.3613  0.1892  0.0491
  133OSM   H14F14449   4.644   4.637   8.263  0.3858  2.2518  0.7473
  133OSM   H14G14450   4.497   4.544   8.320  0.7210 -0.7341 -1.2298
  133OSM   C15F14451   4.489   4.759   8.341  0.5250 -0.1644 -0.0342
  133OSM   H15F14452   4.388   4.788   8.307  0.0026 -0.5010  1.1740
  133OSM   H15G14453   4.565   4.838   8.325 -0.3021  0.7664  0.5533
  133OSM   C16F14454   4.484   4.735   8.492  0.4582  0.2745 -0.2057
  133OSM   H16F14455   4.491   4.834   8.543  3.3523  0.2291 -0.3530
  133OSM   H16G14456   4.578   4.680   8.516  0.5713  0.1741 -0.8757
  133OSM   C17F14457   4.356   4.661   8.541 -0.7380  0.5842  0.4429
  133OSM   H17F14458   4.341   4.568   8.482 -1.4845  0.3593  0.9694
  133OSM   H17G14459   4.273   4.731   8.517  1.6649  3.5472  0.1005
  133OSM   C18F14460   4.354   4.620   8.691  0.3616 -0.2649  0.6784
  133OSM   H18F14461   4.393   4.707   8.749 -0.9225  0.5732  0.3207
  133OSM   H18G14462   4.430   4.543   8.715  0.5224 -0.1436  0.5532
  133OSM   H18H14463   4.255   4.594   8.736 -0.0009  0.5169  0.3437
  134OSM      N14464   5.211   0.676   6.359  0.1165 -0.3397  0.5213
  134OSM    C1514465   5.253   0.575   6.260 -0.7451  0.1046 -0.5745
  134OSM   H15A14466   5.253   0.476   6.304  2.5063  1.3455  2.7301
  134OSM   H15B14467   5.354   0.595   6.230 -0.2173  1.2248  1.7235
  134OSM   H15C14468   5.189   0.588   6.174 -3.1851  1.9557  1.3549
  134OSM    C1414469   5.201   0.803   6.285  0.0921 -0.2525 -0.6952
  134OSM   H14A14470   5.291   0.839   6.238  1.3835 -0.1650  1.7009
  134OSM   H14B14471   5.185   0.878   6.362  2.8097 -0.8366  0.5337
  134OSM   H14C14472   5.114   0.807   6.221 -0.3897 -2.8610 -0.3050
  134OSM    C1314473   5.079   0.646   6.415 -0.1579 -0.4383  0.8493
  134OSM   H13A14474   5.068   0.553   6.468 -1.3736  0.2911  1.9225
  134OSM   H13B14475   5.011   0.638   6.332 -2.4482  1.9526  2.3378
  134OSM   H13C14476   5.038   0.726   6.475  1.5415  0.5585  0.7685
  134OSM    C1214477   5.316   0.699   6.465 -1.0724 -0.6957 -0.3868
  134OSM   H12A14478   5.348   0.602   6.499 -0.5197 -0.4873 -0.3126
  134OSM   H12B14479   5.260   0.757   6.538 -0.9914 -0.1920 -0.7249
  134OSM    C1114480   5.450   0.765   6.426 -0.0206 -0.2737  0.1864
  134OSM   H11A14481   5.505   0.729   6.336 -1.7792  1.0991 -1.5211
  134OSM   H11B14482   5.504   0.756   6.523  1.6763 -1.2280 -0.8089
  134OSM      P14483   5.543   1.013   6.400 -0.0917  0.9371  0.0055
  134OSM    O1314484   5.636   0.990   6.284 -0.0700 -0.0195  0.8145
  134OSM    O1414485   5.479   1.145   6.410  0.2050 -0.1558 -0.0019
  134OSM    O1114486   5.631   0.984   6.532 -0.2248 -0.8709  0.0351
  134OSM    O1214487   5.426   0.904   6.393  0.2452 -0.3919  0.6823
  134OSM    C1S14488   5.558   1.008   6.654 -0.2456  0.7454  0.0674
  134OSM    H1S14489   5.477   0.932   6.650  2.3451 -2.2000 -0.8075
  134OSM    H1T14490   5.508   1.106   6.670  1.1808  1.4015  0.6931
  134OSM     NF14491   5.670   1.097   6.840  0.7195 -0.6046 -0.3103
  134OSM    HNF14492   5.760   1.139   6.833  0.4965 -0.1883 -0.7534
  134OSM    C2S14493   5.641   0.973   6.779  0.1278  0.7986  0.1039
  134OSM    H2S14494   5.572   0.909   6.839 -0.2332 -0.2873 -1.4206
  134OSM    C3S14495   5.769   0.890   6.748  0.6172 -0.1125  0.4614
  134OSM    H3S14496   5.830   0.946   6.675 -1.0300 -1.1538 -1.8217
  134OSM     O314497   5.738   0.768   6.681 -0.1504 -0.5793 -0.3619
  134OSM    HO314498   5.655   0.790   6.639 -0.7765  1.5200  1.7563
  134OSM    C4S14499   5.846   0.869   6.873  0.1450  0.1441  0.0618
  134OSM    H4S14500   5.785   0.821   6.952 -0.5800 -0.2142 -0.7076
  134OSM    C5S14501   5.974   0.899   6.893 -0.0591  0.1052 -0.6574
  134OSM    H5S14502   6.032   0.944   6.811  1.7413 -0.1099  0.4559
  134OSM    C6S14503   6.046   0.865   7.023 -0.3848  0.0324  0.3767
  134OSM    H6S14504   6.129   0.938   7.036  1.5270 -1.9755 -0.1122
  134OSM    H6T14505   6.097   0.767   7.014 -2.1928 -0.8192 -1.5008
  134OSM    C7S14506   5.967   0.880   7.151  0.2272  0.1716  1.1679
  134OSM    H7S14507   5.872   0.825   7.131 -0.4880  1.7634 -0.0091
  134OSM    H7T14508   5.950   0.989   7.163  1.2585  0.4839  0.1019
  134OSM    C8S14509   6.047   0.815   7.264  0.7985 -0.2871  0.2382
  134OSM    H8S14510   6.151   0.849   7.243  0.9698 -1.7194 -1.5413
  134OSM    H8T14511   6.036   0.704   7.254 -3.1922  0.0608 -0.8484
  134OSM    C9S14512   5.985   0.861   7.393 -0.5050  0.0573  0.0220
  134OSM    H9S14513   5.971   0.971   7.398 -0.5117  0.1006 -0.8277
  134OSM    H9T14514   6.064   0.831   7.466 -0.4624  1.5019  0.5907
  134OSM   C10S14515   5.861   0.781   7.433 -0.6103  0.2527  0.0459
  134OSM   H10S14516   5.880   0.672   7.440  1.9557  0.6728  0.5301
  134OSM   H10T14517   5.782   0.801   7.358 -1.4710  3.2077  1.5904
  134OSM   C11S14518   5.809   0.835   7.560  0.1525 -0.0498 -0.3319
  134OSM   H11S14519   5.728   0.764   7.589  0.1153  0.1604  0.0843
  134OSM   H11T14520   5.761   0.931   7.532  3.0466  2.0468  1.3945
  134OSM   C12S14521   5.908   0.854   7.674  0.5434 -0.1446  0.2245
  134OSM   H12S14522   5.960   0.950   7.654 -0.9770  0.5059 -0.7254
  134OSM   H12T14523   5.987   0.776   7.670  1.1450  0.5137 -2.1719
  134OSM   C13S14524   5.835   0.867   7.810 -0.5659  0.2734  0.1865
  134OSM   H13S14525   5.758   0.787   7.811  0.1524 -0.4574 -0.9688
  134OSM   H13T14526   5.779   0.962   7.800 -0.8279  0.0910 -0.1005
  134OSM   C14S14527   5.929   0.864   7.933 -0.0094 -0.9132 -0.3905
  134OSM   H14S14528   6.000   0.947   7.914 -1.1714 -0.0298 -0.9694
  134OSM   H14T14529   5.990   0.771   7.945  1.2574 -0.2623 -1.5526
  134OSM   C15S14530   5.854   0.896   8.066 -0.0504  0.3309  0.5948
  134OSM   H15S14531   5.775   0.821   8.089  1.8061 -1.9022  0.1542
  134OSM   H15T14532   5.814   0.997   8.046 -0.9986 -0.4575 -1.8435
  134OSM   C16S14533   5.956   0.887   8.181  0.3214  0.5268  0.2237
  134OSM   H16S14534   6.055   0.932   8.160  0.1054  0.1103 -1.9794
  134OSM   H16T14535   5.985   0.780   8.188  2.3319  0.9385 -1.0216
  134OSM   C17S14536   5.907   0.936   8.320 -0.2445 -0.0169  0.2838
  134OSM   H17S14537   5.980   0.917   8.401  1.7914 -0.7563 -1.5937
  134OSM   H17T14538   5.816   0.874   8.330  1.5789 -3.1514 -0.9112
  134OSM   C18S14539   5.873   1.087   8.327 -0.2413  0.0145 -0.6308
  134OSM   H18S14540   5.967   1.146   8.328  0.0363 -0.4257 -0.5707
  134OSM   H18T14541   5.810   1.120   8.413 -2.8020 -1.3957 -1.8300
  134OSM   H18U14542   5.802   1.104   8.243 -1.9045 -0.5500  0.5967
  134OSM    C1F14543   5.577   1.162   6.916 -0.0952  0.2464  0.8270
  134OSM     OF14544   5.458   1.130   6.913  0.5422  0.6083  0.5477
  134OSM    C2F14545   5.636   1.266   7.004  0.8865 -0.9219  0.2824
  134OSM    H2F14546   5.567   1.351   7.024  1.0176 -0.5595 -0.7476
  134OSM    H2G14547   5.724   1.311   6.953 -1.2112  3.3414  0.0326
  134OSM    C3F14548   5.684   1.204   7.131 -0.1511  0.0261 -0.1279
  134OSM    H3F14549   5.741   1.111   7.111  0.8309 -0.1467  2.9453
  134OSM    H3G14550   5.590   1.178   7.184 -1.2999  1.0195 -1.6155
  134OSM    C4F14551   5.772   1.295   7.216 -0.5404  0.0728 -0.4453
  134OSM    H4F14552   5.720   1.393   7.230  1.6860  1.1359  0.8747
  134OSM    H4G14553   5.867   1.314   7.162 -1.3558  1.5408 -1.4235
  134OSM    C5F14554   5.800   1.233   7.361 -0.1157 -0.2606 -0.6466
  134OSM    H5F14555   5.842   1.130   7.357  1.9513  0.3433  2.5960
  134OSM    H5G14556   5.703   1.219   7.415  0.2090 -0.5100 -0.1255
  134OSM    C6F14557   5.885   1.330   7.449  0.5330 -0.0314 -1.2000
  134OSM    H6F14558   5.818   1.418   7.450 -0.6307 -0.8964 -0.4355
  134OSM    H6G14559   5.980   1.351   7.394 -0.7548  1.1442 -3.0641
  134OSM    C7F14560   5.912   1.272   7.592  0.0888  0.8862 -0.2108
  134OSM    H7F14561   6.019   1.243   7.602 -0.6218 -1.1956  2.6444
  134OSM    H7G14562   5.864   1.172   7.594  0.0614  0.9001 -0.1612
  134OSM    C8F14563   5.869   1.354   7.714 -0.2155 -0.3180 -0.3888
  134OSM    H8F14564   5.765   1.392   7.719  0.6394  2.1043  3.8330
  134OSM    H8G14565   5.928   1.447   7.696  0.7054 -0.8893 -0.3911
  134OSM    C9F14566   5.906   1.290   7.842 -0.5286  0.6310  0.5698
  134OSM    H9F14567   5.992   1.221   7.844 -0.0785  1.1606  3.0468
  134OSM   C10F14568   5.839   1.289   7.956  0.4651 -0.6534 -1.3531
  134OSM   H10F14569   5.870   1.219   8.036  1.5962  1.6887  0.3946
  134OSM   C11F14570   5.704   1.363   7.976  0.5288  0.1256 -0.8844
  134OSM   H11F14571   5.633   1.284   8.010  0.2491  0.6569 -0.2056
  134OSM   H11G14572   5.660   1.412   7.887 -1.2625  0.5372  0.1847
  134OSM   C12F14573   5.716   1.475   8.085 -0.4838  0.0349  0.4653
  134OSM   H12F14574   5.616   1.523   8.091 -0.0131  0.8769  2.3304
  134OSM   H12G14575   5.786   1.553   8.048 -1.3614  1.0378  0.8622
  134OSM   C13F14576   5.747   1.426   8.223  0.2168 -0.0484  0.0440
  134OSM   H13F14577   5.838   1.363   8.232  1.3492  1.1184 -2.3658
  134OSM   H13G14578   5.663   1.363   8.261 -0.8244 -0.2168 -2.3559
  134OSM   C14F14579   5.751   1.530   8.339  0.1792  0.0496 -0.3954
  134OSM   H14F14580   5.648   1.568   8.356 -0.2546  0.1037 -2.8082
  134OSM   H14G14581   5.813   1.616   8.304 -0.0262  0.4752  0.2693
  134OSM   C15F14582   5.804   1.471   8.471 -0.1820  0.2365 -0.0196
  134OSM   H15F14583   5.911   1.443   8.456 -0.2173 -0.5065  0.9935
  134OSM   H15G14584   5.750   1.377   8.497  0.6094 -0.5421 -1.0714
  134OSM   C16F14585   5.782   1.561   8.595  0.1070 -0.4113  0.2678
  134OSM   H16F14586   5.674   1.581   8.610 -0.1035  0.2140 -1.7572
  134OSM   H16G14587   5.840   1.656   8.594 -1.4127  0.6049  1.7667
  134OSM   C17F14588   5.806   1.485   8.731 -0.4897 -0.2106  0.5900
  134OSM   H17F14589   5.917   1.475   8.738 -0.1708  3.3315  3.1241
  134OSM   H17G14590   5.767   1.382   8.720  2.5025 -1.2263 -2.3465
  134OSM   C18F14591   5.740   1.559   8.845 -0.3613  0.0292 -0.7883
  134OSM   H18F14592   5.768   1.521   8.945  2.1232  1.3521 -0.8946
  134OSM   H18G14593   5.631   1.540   8.834 -0.1504 -1.4241 -0.4616
  134OSM   H18H14594   5.758   1.669   8.836  1.1767 -0.1962 -0.8279
  135OSM      N14595   4.772   1.448   6.289  0.3081  0.4288  0.2424
  135OSM    C1514596   4.738   1.344   6.185  0.3411  0.1695 -0.3813
  135OSM   H15A14597   4.769   1.386   6.091 -0.4561  0.9669 -0.2987
  135OSM   H15B14598   4.632   1.325   6.195  0.5246 -0.1515  1.2620
  135OSM   H15C14599   4.793   1.254   6.205 -2.4279 -1.3921  0.8467
  135OSM    C1414600   4.904   1.505   6.234 -0.1463  0.6186 -0.1856
  135OSM   H14A14601   4.917   1.489   6.128 -0.7639 -3.0995  0.1409
  135OSM   H14B14602   4.974   1.431   6.271 -4.3837 -3.9366 -0.1850
  135OSM   H14C14603   4.926   1.604   6.272  3.0660 -0.0723  0.0707
  135OSM    C1314604   4.661   1.551   6.285 -0.7972  0.5301  0.4115
  135OSM   H13A14605   4.677   1.625   6.362 -2.7666  0.3266  1.0687
  135OSM   H13B14606   4.560   1.518   6.305 -1.6514  2.2474 -0.8194
  135OSM   H13C14607   4.664   1.603   6.190 -3.2526 -0.6314 -0.3644
  135OSM    C1214608   4.785   1.391   6.429 -0.1106  0.4676  0.1427
  135OSM   H12A14609   4.683   1.382   6.464  0.2350  0.5611  1.1970
  135OSM   H12B14610   4.824   1.456   6.506  0.5890  0.2604 -0.0316
  135OSM    C1114611   4.853   1.252   6.448  0.5892  0.6910  0.0203
  135OSM   H11A14612   4.786   1.176   6.402 -0.2030  1.0475  0.5721
  135OSM   H11B14613   4.850   1.231   6.557 -2.1671 -0.7828 -0.2409
  135OSM      P14614   5.056   1.146   6.323 -0.1719  0.1268  0.3079
  135OSM    O1314615   4.947   1.078   6.249  0.5249 -0.1280 -0.0255
  135OSM    O1414616   5.171   1.193   6.241 -0.1826  1.0399 -0.0824
  135OSM    O1114617   5.104   1.060   6.445 -0.1493 -0.3517 -0.8410
  135OSM    O1214618   4.987   1.266   6.387 -0.1633  0.3569 -0.3494
  135OSM    C1S14619   5.184   1.130   6.545  0.7710  0.7670  0.2366
  135OSM    H1S14620   5.179   1.241   6.542  1.8930  0.9064  2.1709
  135OSM    H1T14621   5.293   1.111   6.537  0.5710 -0.2748 -0.0527
  135OSM     NF14622   5.210   1.204   6.776 -0.6804 -0.7267 -0.2765
  135OSM    HNF14623   5.295   1.165   6.812  1.6109  1.6099 -2.7180
  135OSM    C2S14624   5.145   1.108   6.691  0.5537 -0.4331 -0.3741
  135OSM    H2S14625   5.036   1.130   6.693  0.4959 -0.5640  2.7875
  135OSM    C3S14626   5.152   0.951   6.737  0.1310 -0.2074 -0.3054
  135OSM    H3S14627   5.259   0.921   6.732 -0.1639 -2.1157  2.4915
  135OSM     O314628   5.087   0.850   6.659  0.1944  0.0440  0.2257
  135OSM    HO314629   5.064   0.891   6.576  0.9969 -1.0159 -0.5576
  135OSM    C4S14630   5.101   0.944   6.873 -0.1050  0.3327 -0.4488
  135OSM    H4S14631   4.993   0.961   6.885 -0.5500 -1.7898 -1.0598
  135OSM    C5S14632   5.160   0.918   6.992 -0.2402  0.5206 -0.2969
  135OSM    H5S14633   5.269   0.922   7.004 -0.2620  0.6316 -0.1251
  135OSM    C6S14634   5.084   0.925   7.121  0.1560  0.6047 -0.1616
  135OSM    H6S14635   5.106   0.841   7.190 -0.0786  0.8254  0.1875
  135OSM    H6T14636   4.974   0.925   7.107 -0.1084 -1.2706  1.4386
  135OSM    C7S14637   5.100   1.065   7.195 -0.2782 -0.3676 -0.9621
  135OSM    H7S14638   5.068   1.154   7.136 -0.6845 -0.0906 -0.3314
  135OSM    H7T14639   5.209   1.080   7.203 -0.6044  1.8443  0.1634
  135OSM    C8S14640   5.045   1.082   7.339 -0.2779  0.4415 -0.0454
  135OSM    H8S14641   5.088   0.996   7.394 -0.3421 -0.1028 -0.8366
  135OSM    H8T14642   4.936   1.071   7.328 -0.7247 -2.2503  4.4938
  135OSM    C9S14643   5.092   1.218   7.405 -0.6989 -0.2762 -0.1020
  135OSM    H9S14644   5.066   1.301   7.336 -0.3925 -1.1700 -1.3373
  135OSM    H9T14645   5.201   1.206   7.425 -0.5346 -2.1816 -1.7956
  135OSM   C10S14646   5.006   1.230   7.539  0.6464  0.0455  0.4233
  135OSM   H10S14647   4.898   1.211   7.524  0.4304  1.4965  0.0334
  135OSM   H10T14648   5.021   1.337   7.566  1.6538 -0.1627  0.7467
  135OSM   C11S14649   5.052   1.151   7.667  0.0878  0.4564  0.1269
  135OSM   H11S14650   5.162   1.163   7.682  0.1283 -0.0931  0.3145
  135OSM   H11T14651   5.060   1.041   7.654  1.1428  0.4103  1.0350
  135OSM   C12S14652   4.982   1.198   7.794 -0.3813  0.3287 -0.4380
  135OSM   H12S14653   4.876   1.178   7.770 -0.4234 -0.6424  0.4420
  135OSM   H12T14654   5.007   1.304   7.815  1.3073 -0.3921  1.6206
  135OSM   C13S14655   5.006   1.103   7.911 -0.2439  0.7524 -0.5099
  135OSM   H13S14656   5.111   1.105   7.948 -0.5831 -0.3625  0.6102
  135OSM   H13T14657   4.984   1.002   7.869 -0.2565  1.1363 -1.4543
  135OSM   C14S14658   4.927   1.141   8.036 -0.3347  0.1413 -0.4995
  135OSM   H14S14659   4.839   1.202   8.006  1.6930  2.2454 -2.5968
  135OSM   H14T14660   4.996   1.199   8.101  0.7063 -2.3564  0.7816
  135OSM   C15S14661   4.885   1.012   8.109  0.4214 -0.7241  0.5594
  135OSM   H15S14662   4.978   0.961   8.143 -1.1095 -1.7420  3.5470
  135OSM   H15T14663   4.845   0.941   8.033  1.0515 -2.7519  2.0345
  135OSM   C16S14664   4.793   1.030   8.229  0.4723  0.2281 -0.1803
  135OSM   H16S14665   4.725   0.943   8.223  1.8506 -0.8709 -0.4795
  135OSM   H16T14666   4.734   1.123   8.218  0.8643  0.4419 -0.4778
  135OSM   C17S14667   4.863   1.027   8.370 -0.5177 -0.5193 -0.4758
  135OSM   H17S14668   4.897   1.128   8.403  2.3486 -1.6311  0.2815
  135OSM   H17T14669   4.959   0.971   8.369 -1.2279 -1.8714  1.3085
  135OSM   C18S14670   4.773   0.980   8.482 -0.2798 -0.1012  0.2318
  135OSM   H18S14671   4.697   1.057   8.504  0.1058  0.7020 -1.1431
  135OSM   H18T14672   4.841   0.957   8.567  0.8683 -0.2927 -0.7160
  135OSM   H18U14673   4.716   0.891   8.449  0.0060  0.0645 -0.7245
  135OSM    C1F14674   5.167   1.325   6.812  0.2190  0.2385  1.0987
  135OSM     OF14675   5.052   1.350   6.774 -0.1772 -0.4457 -0.2372
  135OSM    C2F14676   5.249   1.429   6.894  0.0286  0.2949 -0.2328
  135OSM    H2F14677   5.220   1.528   6.853  1.6737  1.8555  2.1067
  135OSM    H2G14678   5.358   1.412   6.879  0.4414  0.8486  1.8065
  135OSM    C3F14679   5.219   1.436   7.046  0.4514  0.5747  0.2428
  135OSM    H3F14680   5.225   1.332   7.084  1.3394  0.3180 -0.5701
  135OSM    H3G14681   5.112   1.452   7.073  0.0799 -0.5085 -0.5241
  135OSM    C4F14682   5.296   1.536   7.132 -0.0627 -0.3992  0.3568
  135OSM    H4F14683   5.265   1.640   7.112  1.5886  0.7713  3.2396
  135OSM    H4G14684   5.403   1.549   7.105 -0.0543  2.7446  1.5686
  135OSM    C5F14685   5.280   1.520   7.284  0.4121 -0.7995  0.4324
  135OSM    H5F14686   5.312   1.415   7.302  2.4077 -0.7273 -2.0810
  135OSM    H5G14687   5.177   1.526   7.325  1.1308  2.4587  2.1163
  135OSM    C6F14688   5.359   1.624   7.362 -0.8209 -0.0449 -0.2687
  135OSM    H6F14689   5.319   1.727   7.347  0.4877  0.4487 -0.5645
  135OSM    H6G14690   5.459   1.635   7.315 -0.3238 -2.1818  0.1751
  135OSM    C7F14691   5.365   1.604   7.511  0.5027  0.3801  0.5113
  135OSM    H7F14692   5.268   1.640   7.551 -0.6706 -2.4677  0.4347
  135OSM    H7G14693   5.442   1.672   7.553  0.5908  0.4718  0.1977
  135OSM    C8F14694   5.391   1.461   7.557  0.1466 -0.3837 -0.2275
  135OSM    H8F14695   5.455   1.404   7.486 -0.6889 -1.3667 -0.2137
  135OSM    H8G14696   5.297   1.404   7.572 -0.5110  0.6022 -0.5132
  135OSM    C9F14697   5.463   1.466   7.686 -0.0653 -0.1407 -0.5804
  135OSM    H9F14698   5.571   1.488   7.679  0.5529 -2.2405  1.4001
  135OSM   C10F14699   5.405   1.457   7.809 -0.1022 -0.1266 -0.2740
  135OSM   H10F14700   5.472   1.458   7.896 -0.4485 -2.3918  0.0681
  135OSM   C11F14701   5.263   1.434   7.835  0.5372  0.0075  0.2614
  135OSM   H11F14702   5.241   1.325   7.830  1.0802 -0.0456 -1.4166
  135OSM   H11G14703   5.205   1.482   7.753 -0.3956  1.5433  1.7581
  135OSM   C12F14704   5.196   1.491   7.969  0.3655  0.2196  0.3565
  135OSM   H12F14705   5.240   1.444   8.059  2.2973  0.5694 -0.3579
  135OSM   H12G14706   5.094   1.449   7.979  1.1563 -1.6101  1.2436
  135OSM   C13F14707   5.211   1.642   7.977  0.4043  0.2957 -0.3814
  135OSM   H13F14708   5.167   1.690   7.887 -0.2060 -3.9326 -2.5960
  135OSM   H13G14709   5.320   1.660   7.968  0.4877 -0.5810 -1.3832
  135OSM   C14F14710   5.148   1.698   8.102 -0.3872  0.4853 -0.1308
  135OSM   H14F14711   5.179   1.629   8.183  1.9470  0.4115 -0.9939
  135OSM   H14G14712   5.037   1.700   8.100 -0.4063  0.3856  0.5878
  135OSM   C15F14713   5.208   1.832   8.141 -0.6701 -0.3197  0.2513
  135OSM   H15F14714   5.202   1.903   8.056  4.3682  1.2399  0.8353
  135OSM   H15G14715   5.315   1.815   8.167 -0.5058  0.2773 -0.0143
  135OSM   C16F14716   5.153   1.883   8.275  0.0454  0.6616  0.3941
  135OSM   H16F14717   5.201   1.981   8.295 -0.8712  1.4786 -1.1697
  135OSM   H16G14718   5.172   1.813   8.359 -3.8311  2.8411  3.4913
  135OSM   C17F14719   5.000   1.899   8.284  0.0505 -0.1624 -0.9654
  135OSM   H17F14720   4.958   1.797   8.268  1.1747 -0.9152  0.6750
  135OSM   H17G14721   4.956   1.962   8.203  0.6755  0.1233 -1.0856
  135OSM   C18F14722   4.946   1.958   8.419 -0.7173  0.6529 -0.0082
  135OSM   H18F14723   4.850   1.923   8.463 -0.0480  2.3824  3.1769
  135OSM   H18G14724   4.946   2.068   8.404 -1.7196  0.4872 -1.3582
  135OSM   H18H14725   5.016   1.950   8.506 -4.3743  2.9037  3.5277
  136OSM      N14726   3.041   1.313   5.931 -0.2748  0.2807  0.4192
  136OSM    C1514727   3.058   1.230   5.811  0.2007  0.1177  0.3498
  136OSM   H15A14728   2.987   1.148   5.815 -0.5803  0.7506 -0.2386
  136OSM   H15B14729   3.157   1.189   5.800 -0.2280 -0.8066 -0.2000
  136OSM   H15C14730   3.029   1.279   5.720 -0.6340 -2.8893 -1.1308
  136OSM    C1414731   3.122   1.434   5.909  0.7392 -0.3070 -0.7698
  136OSM   H14A14732   3.228   1.414   5.900  0.9298 -1.2237  2.1630
  136OSM   H14B14733   3.097   1.520   5.969 -1.2225  3.0157 -5.7297
  136OSM   H14C14734   3.089   1.469   5.813 -0.6330  0.4733 -0.0434
  136OSM    C1314735   2.902   1.362   5.950 -0.1355  0.1917  0.1365
  136OSM   H13A14736   2.827   1.284   5.956 -1.1085  0.8814 -2.0008
  136OSM   H13B14737   2.859   1.427   5.875  0.5545  1.4280  0.7974
  136OSM   H13C14738   2.899   1.427   6.035  0.4626  0.9036 -0.3793
  136OSM    C1214739   3.083   1.239   6.057  0.2191  0.3980  0.7693
  136OSM   H12A14740   3.172   1.180   6.042 -0.2832 -0.5083  1.3466
  136OSM   H12B14741   3.003   1.169   6.075  0.3539 -0.1417 -0.5895
  136OSM    C1114742   3.100   1.323   6.184 -0.3601 -0.0608 -0.5188
  136OSM   H11A14743   3.174   1.404   6.163 -1.6199  1.4632  0.6943
  136OSM   H11B14744   3.149   1.254   6.256 -1.0647 -1.3739 -1.2744
  136OSM      P14745   2.869   1.315   6.304 -0.1710 -0.0937 -0.1207
  136OSM    O1314746   2.745   1.402   6.298 -0.3935 -0.7128 -0.2317
  136OSM    O1414747   2.859   1.185   6.244  0.9289  0.8268  0.2813
  136OSM    O1114748   2.928   1.308   6.451  0.5269  0.1028  0.1677
  136OSM    O1214749   2.985   1.390   6.224  0.3845  0.8753  0.6909
  136OSM    C1S14750   2.991   1.423   6.505 -0.1095 -0.1201  0.1694
  136OSM    H1S14751   2.928   1.513   6.497 -1.1538 -0.7111  1.3412
  136OSM    H1T14752   3.087   1.449   6.456 -0.1193  1.9315  1.1428
  136OSM     NF14753   3.058   1.504   6.730  0.5030  0.0161  0.4121
  136OSM    HNF14754   3.158   1.509   6.731  0.4547  2.5762  0.0828
  136OSM    C2S14755   2.997   1.391   6.659 -0.5315  0.6299  0.2430
  136OSM    H2S14756   2.896   1.369   6.700 -0.9516 -0.4602 -1.3064
  136OSM    C3S14757   3.069   1.255   6.689 -0.2588 -0.4771  0.7494
  136OSM    H3S14758   3.162   1.240   6.630 -0.2854  1.0390  0.2575
  136OSM     O314759   2.995   1.137   6.653  0.4613 -0.5555 -0.3702
  136OSM    HO314760   2.930   1.176   6.594 -0.0477 -0.1934  0.4146
  136OSM    C4S14761   3.091   1.250   6.839  0.5676 -0.0658  0.1880
  136OSM    H4S14762   3.006   1.278   6.903  0.9776 -0.6321  1.0021
  136OSM    C5S14763   3.213   1.244   6.903  0.7449  0.4266 -0.2878
  136OSM    H5S14764   3.306   1.251   6.845  0.5262  2.1728 -0.4866
  136OSM    C6S14765   3.231   1.242   7.051 -0.2871 -0.8575 -0.1343
  136OSM    H6S14766   3.248   1.139   7.089 -0.0286 -0.3826  1.0710
  136OSM    H6T14767   3.142   1.280   7.106 -0.6654 -3.0635  0.8988
  136OSM    C7S14768   3.349   1.335   7.087  0.2809  0.6471 -0.3086
  136OSM    H7S14769   3.332   1.436   7.044 -1.9554  0.6063  0.3269
  136OSM    H7T14770   3.438   1.294   7.036  1.5518  0.6720  1.7642
  136OSM    C8S14771   3.380   1.337   7.239  0.3818  0.4072  0.0050
  136OSM    H8S14772   3.479   1.387   7.251  1.4394 -0.6652 -3.1990
  136OSM    H8T14773   3.384   1.233   7.278 -1.0166 -0.1664 -1.2994
  136OSM    C9S14774   3.276   1.415   7.322 -0.1327  0.0366 -0.3401
  136OSM    H9S14775   3.175   1.368   7.317 -0.2260  0.1090  0.6867
  136OSM    H9T14776   3.256   1.515   7.278 -0.3895 -1.3206 -3.6947
  136OSM   C10S14777   3.330   1.432   7.470 -0.0139  0.5715 -0.1962
  136OSM   H10S14778   3.389   1.525   7.467 -0.1527  0.7981  2.0698
  136OSM   H10T14779   3.393   1.345   7.497 -1.8986 -1.1457 -1.0062
  136OSM   C11S14780   3.223   1.448   7.577  0.2096 -0.0481  0.0269
  136OSM   H11S14781   3.149   1.366   7.563  0.3733  0.0022 -1.2377
  136OSM   H11T14782   3.172   1.546   7.567  0.5347  0.1545  0.3483
  136OSM   C12S14783   3.297   1.456   7.710 -0.2844 -0.5416  0.1743
  136OSM   H12S14784   3.386   1.521   7.717 -0.3959 -0.3511 -0.1913
  136OSM   H12T14785   3.348   1.357   7.713  1.9502  0.5177 -0.8134
  136OSM   C13S14786   3.211   1.479   7.835  0.0405 -0.8410 -0.4074
  136OSM   H13S14787   3.126   1.410   7.850 -0.9516  0.4899  0.2352
  136OSM   H13T14788   3.181   1.585   7.841  2.8058 -0.0361  0.9995
  136OSM   C14S14789   3.308   1.461   7.956  0.0458 -0.2526  0.6279
  136OSM   H14S14790   3.405   1.512   7.943  1.0291 -1.8780  1.2645
  136OSM   H14T14791   3.340   1.354   7.954  0.7680 -0.0300 -0.7901
  136OSM   C15S14792   3.244   1.500   8.087 -0.3794 -0.1264  0.3871
  136OSM   H15S14793   3.219   1.608   8.088 -0.6256 -0.1627 -0.7422
  136OSM   H15T14794   3.327   1.478   8.157  0.4543 -0.8523 -0.7810
  136OSM   C16S14795   3.122   1.409   8.114  0.0509  0.4543  0.9117
  136OSM   H16S14796   3.152   1.302   8.105 -1.6389  0.0527 -0.4975
  136OSM   H16T14797   3.039   1.424   8.042 -0.5531 -1.5531  1.1083
  136OSM   C17S14798   3.059   1.439   8.241  0.3911 -0.6858  0.0248
  136OSM   H17S14799   3.132   1.450   8.324 -0.1836  1.3461  0.3132
  136OSM   H17T14800   2.978   1.364   8.255  0.4402 -1.1048 -1.7401
  136OSM   C18S14801   2.991   1.577   8.241 -1.1252  0.0629 -0.0331
  136OSM   H18S14802   2.911   1.591   8.317 -0.8122  1.3193  0.0931
  136OSM   H18T14803   2.937   1.585   8.145  1.4410 -0.7941 -1.6443
  136OSM   H18U14804   3.062   1.662   8.246 -1.1822  0.1419 -0.5135
  136OSM    C1F14805   2.987   1.617   6.742  0.0391  0.1526 -0.2115
  136OSM     OF14806   2.867   1.610   6.725  0.0424 -0.3687  0.4489
  136OSM    C2F14807   3.054   1.745   6.780 -0.1006 -0.1350 -0.5032
  136OSM    H2F14808   3.127   1.774   6.701 -0.9084 -1.6298 -1.8403
  136OSM    H2G14809   3.107   1.727   6.876 -1.3121 -0.1302  0.1872
  136OSM    C3F14810   2.957   1.862   6.809  0.6168  0.2131  0.3923
  136OSM    H3F14811   2.894   1.879   6.719  0.3765 -3.3995 -0.2419
  136OSM    H3G14812   3.028   1.945   6.833  2.2726 -1.0672  0.0597
  136OSM    C4F14813   2.876   1.847   6.936  0.4758 -0.6789  0.8467
  136OSM    H4F14814   2.811   1.757   6.932 -0.2052 -0.1790 -1.6514
  136OSM    H4G14815   2.807   1.934   6.935  2.1758  0.7624  1.9809
  136OSM    C5F14816   2.972   1.846   7.061 -0.9504  0.4732 -0.1235
  136OSM    H5F14817   3.051   1.924   7.056  0.9204 -1.2820  0.5556
  136OSM    H5G14818   3.026   1.749   7.061  1.2265  1.5898 -1.5060
  136OSM    C6F14819   2.896   1.866   7.195  0.0448 -0.4202 -0.0195
  136OSM    H6F14820   2.803   1.804   7.187  0.6734 -1.1803 -4.7898
  136OSM    H6G14821   2.875   1.973   7.211  0.6829 -0.4133  0.8025
  136OSM    C7F14822   2.979   1.827   7.319 -0.1307 -0.2684 -0.0817
  136OSM    H7F14823   3.082   1.843   7.282 -0.5333  2.0433 -0.3221
  136OSM    H7G14824   2.953   1.721   7.341  0.7304 -0.2730  0.9633
  136OSM    C8F14825   2.943   1.903   7.446  0.8876 -0.1838 -0.1870
  136OSM    H8F14826   2.837   1.881   7.471  0.3908  1.5662 -0.6347
  136OSM    H8G14827   2.936   2.011   7.419 -0.1512  0.8734  3.5961
  136OSM    C9F14828   3.035   1.896   7.563 -0.4828 -0.0597 -0.3660
  136OSM    H9F14829   3.111   1.974   7.551 -1.9914  1.2259 -2.2233
  136OSM   C10F14830   3.030   1.812   7.673  0.0927 -0.5660  0.2444
  136OSM   H10F14831   3.118   1.824   7.738  0.0169  0.4568  0.1831
  136OSM   C11F14832   2.915   1.713   7.695  0.1769  0.6786  0.8078
  136OSM   H11F14833   2.953   1.618   7.740 -2.7775 -0.1621  1.7369
  136OSM   H11G14834   2.861   1.682   7.604  0.0551  2.7414  0.1164
  136OSM   C12F14835   2.807   1.768   7.792  0.2857  0.4651 -0.4105
  136OSM   H12F14836   2.715   1.706   7.793  0.4806  0.1613 -0.7472
  136OSM   H12G14837   2.784   1.873   7.764  0.1335  1.6770  3.7125
  136OSM   C13F14838   2.856   1.781   7.945 -0.1825 -0.1090 -0.1729
  136OSM   H13F14839   2.965   1.768   7.960 -0.3711 -0.8017  0.6874
  136OSM   H13G14840   2.822   1.690   8.000 -0.0439 -1.0460 -1.5834
  136OSM   C14F14841   2.813   1.901   8.019 -0.4579 -0.2848  0.3633
  136OSM   H14F14842   2.704   1.916   8.036  0.1726  1.1672  4.1728
  136OSM   H14G14843   2.846   1.995   7.969 -1.7269 -0.8706 -1.7199
  136OSM   C15F14844   2.853   1.908   8.172  0.2632  0.3664  0.1769
  136OSM   H15F14845   2.962   1.923   8.189 -0.3335  2.0668  3.2105
  136OSM   H15G14846   2.817   1.813   8.215  2.4219  0.1003  1.5308
  136OSM   C16F14847   2.787   2.027   8.249 -0.2003  0.2101 -0.4036
  136OSM   H16F14848   2.678   2.018   8.230 -0.9423 -1.6056  3.5624
  136OSM   H16G14849   2.822   2.127   8.217 -0.0545  0.8252  1.5506
  136OSM   C17F14850   2.795   2.022   8.406  0.3969  0.0416 -0.6143
  136OSM   H17F14851   2.902   2.021   8.436 -0.3846 -2.4967  2.6657
  136OSM   H17G14852   2.742   1.928   8.433 -0.4661  0.5180 -0.6259
  136OSM   C18F14853   2.721   2.131   8.484  0.1480 -0.3198  0.1419
  136OSM   H18F14854   2.742   2.127   8.593 -2.2754 -0.0944  0.6822
  136OSM   H18G14855   2.613   2.138   8.458  0.1806  0.7402  0.2187
  136OSM   H18H14856   2.776   2.221   8.449  1.7045 -1.9284 -1.8189
  137OSM      N14857   0.059   0.232   6.635 -0.4004 -0.1421  0.3342
  137OSM    C1514858   0.119   0.338   6.549  0.1055 -0.0602 -0.1240
  137OSM   H15A14859   0.211   0.307   6.501  0.3366 -0.1804  0.3942
  137OSM   H15B14860   0.124   0.428   6.609  0.3696  0.7347 -1.2970
  137OSM   H15C14861   0.047   0.371   6.476 -0.3620  0.3776  0.5306
  137OSM    C1414862   0.114   0.257   6.777  0.0573 -0.0156 -0.7398
  137OSM   H14A14863   0.091   0.186   6.855 -0.9826  1.8649  0.7523
  137OSM   H14B14864   0.065   0.346   6.815  0.8026 -0.5693  1.6942
  137OSM   H14C14865   0.221   0.272   6.774  0.3007 -1.7264 -1.3695
  137OSM    C1314866  -0.096   0.255   6.638 -0.4958  0.6813  0.0672
  137OSM   H13A14867  -0.122   0.322   6.719 -1.2088 -0.0042  0.4219
  137OSM   H13B14868  -0.132   0.157   6.664  0.5050 -0.2749 -1.9968
  137OSM   H13C14869  -0.142   0.284   6.545  0.1759  0.8959 -0.2058
  137OSM    C1214870   0.091   0.094   6.575  0.3639 -0.7090  0.0292
  137OSM   H12A14871   0.196   0.095   6.551 -0.0644  0.0037 -2.0615
  137OSM   H12B14872   0.051   0.088   6.475 -0.0388 -0.1395  0.1557
  137OSM    C1114873   0.072  -0.042   6.657 -0.6467 -0.2245  0.0082
  137OSM   H11A14874   0.127  -0.033   6.753  3.2786  0.2535 -2.0984
  137OSM   H11B14875   0.118  -0.126   6.600  0.0327  0.7680 -0.9557
  137OSM      P14876  -0.147  -0.149   6.603 -0.0180  0.4419 -0.2303
  137OSM    O1314877  -0.291  -0.108   6.604 -0.7651 -0.4711 -0.2452
  137OSM    O1414878  -0.090  -0.156   6.462 -0.3986  0.3271  0.3654
  137OSM    O1114879  -0.143  -0.288   6.677 -0.4704  0.2797  0.1911
  137OSM    O1214880  -0.065  -0.053   6.691  0.3976 -0.2905  0.1513
  137OSM    C1S14881  -0.093  -0.317   6.811  0.5831 -0.1596  0.4884
  137OSM    H1S14882  -0.080  -0.222   6.866  0.0891 -1.6354  3.3243
  137OSM    H1T14883   0.005  -0.369   6.803  0.9012  0.4386  0.4970
  137OSM     NF14884  -0.145  -0.405   7.033  0.2585 -1.0141 -0.2386
  137OSM    HNF14885  -0.127  -0.500   7.056 -0.8567 -1.2581 -0.3247
  137OSM    C2S14886  -0.198  -0.393   6.896 -0.0863 -0.1502 -0.1812
  137OSM    H2S14887  -0.281  -0.319   6.900 -0.3270 -0.4508  0.7113
  137OSM    C3S14888  -0.231  -0.528   6.829 -0.8165  0.0106 -0.3860
  137OSM    H3S14889  -0.135  -0.583   6.822 -0.8663 -0.0294 -0.7386
  137OSM     O314890  -0.283  -0.515   6.705  0.4813  0.1600 -0.3869
  137OSM    HO314891  -0.249  -0.429   6.678  0.2240 -0.1046 -1.6264
  137OSM    C4S14892  -0.333  -0.593   6.916  0.8596 -0.2585  0.1130
  137OSM    H4S14893  -0.438  -0.566   6.899 -0.0220 -3.3208  0.1555
  137OSM    C5S14894  -0.304  -0.688   7.007  0.4780 -0.2428  0.2034
  137OSM    H5S14895  -0.200  -0.721   7.019  0.5089  0.4715  2.1816
  137OSM    C6S14896  -0.394  -0.759   7.098  0.5634  0.0330 -0.1779
  137OSM    H6S14897  -0.394  -0.868   7.075  0.0557 -0.0362  0.1543
  137OSM    H6T14898  -0.499  -0.723   7.094 -0.3907 -2.4393  0.7014
  137OSM    C7S14899  -0.337  -0.732   7.242 -0.0250  0.5696  0.8727
  137OSM    H7S14900  -0.324  -0.622   7.252 -1.2972  0.9390 -0.9177
  137OSM    H7T14901  -0.236  -0.769   7.267  0.8260  2.1795 -0.0266
  137OSM    C8S14902  -0.433  -0.787   7.349  0.0885  0.6755 -0.5654
  137OSM    H8S14903  -0.439  -0.896   7.330 -0.0096  0.6705 -0.5043
  137OSM    H8T14904  -0.535  -0.746   7.338 -0.1423  0.1967 -0.2243
  137OSM    C9S14905  -0.387  -0.765   7.492  0.1547  0.2846  0.5338
  137OSM    H9S14906  -0.308  -0.841   7.509  0.7207  0.3894 -1.4197
  137OSM    H9T14907  -0.471  -0.803   7.554 -0.6154  1.7231  0.4371
  137OSM   C10S14908  -0.356  -0.619   7.518 -0.7603  0.2764  0.6046
  137OSM   H10S14909  -0.439  -0.560   7.473  1.2797  3.7772  1.1072
  137OSM   H10T14910  -0.259  -0.596   7.470 -1.0513  0.8632  0.2955
  137OSM   C11S14911  -0.358  -0.581   7.670 -0.7808  0.5246 -0.9760
  137OSM   H11S14912  -0.440  -0.635   7.722  0.9560  0.6922  2.2273
  137OSM   H11T14913  -0.380  -0.472   7.679  1.2552  0.7767  2.4236
  137OSM   C12S14914  -0.228  -0.610   7.752 -0.1727  0.3739  0.3149
  137OSM   H12S14915  -0.149  -0.545   7.708 -0.4036  0.2022 -0.3623
  137OSM   H12T14916  -0.202  -0.717   7.753 -1.0850  0.1056 -1.4958
  137OSM   C13S14917  -0.236  -0.552   7.894  0.1632  0.5877  0.3246
  137OSM   H13S14918  -0.327  -0.585   7.949  0.6762 -2.0548 -0.2702
  137OSM   H13T14919  -0.238  -0.441   7.897 -1.5495  0.5783  2.8069
  137OSM   C14S14920  -0.106  -0.584   7.970  0.0251 -0.5118 -0.0372
  137OSM   H14S14921  -0.019  -0.552   7.909  0.4684  3.0431  2.1408
  137OSM   H14T14922  -0.102  -0.694   7.960 -1.1333 -0.6035  0.3116
  137OSM   C15S14923  -0.090  -0.518   8.101  0.1679  0.1336 -0.5668
  137OSM   H15S14924  -0.131  -0.416   8.093  1.0657  0.6380  0.9126
  137OSM   H15T14925   0.015  -0.507   8.135 -0.1609  0.2778  0.4265
  137OSM   C16S14926  -0.167  -0.583   8.213 -0.5214  0.2636 -0.3463
  137OSM   H16S14927  -0.117  -0.669   8.261  1.7867  1.1427 -1.0220
  137OSM   H16T14928  -0.263  -0.619   8.169 -1.1810  2.8200 -1.1961
  137OSM   C17S14929  -0.203  -0.479   8.321  0.2552  0.3489 -0.1887
  137OSM   H17S14930  -0.244  -0.383   8.285 -1.2755  0.0723  0.7381
  137OSM   H17T14931  -0.105  -0.464   8.373  0.9597 -1.1267 -1.0009
  137OSM   C18S14932  -0.310  -0.536   8.411 -0.2793  0.3071 -0.0965
  137OSM   H18S14933  -0.409  -0.534   8.362 -1.6645  0.6202  2.5285
  137OSM   H18T14934  -0.332  -0.462   8.492  0.9967  0.7153 -0.0882
  137OSM   H18U14935  -0.289  -0.635   8.456 -0.4091  0.2900 -0.0759
  137OSM    C1F14936  -0.123  -0.315   7.126  0.4908  0.0882  0.5453
  137OSM     OF14937  -0.136  -0.194   7.104  0.8099 -0.3418  0.0191
  137OSM    C2F14938  -0.094  -0.372   7.267  0.0227  0.1557 -0.8587
  137OSM    H2F14939  -0.016  -0.450   7.258  0.2218  0.2127  0.2422
  137OSM    H2G14940  -0.183  -0.431   7.300  0.6057 -0.8121 -0.9738
  137OSM    C3F14941  -0.038  -0.268   7.369 -0.5475 -0.1055  0.8815
  137OSM    H3F14942  -0.108  -0.183   7.385 -0.2761 -0.1949  2.7419
  137OSM    H3G14943   0.055  -0.226   7.327 -0.9337 -0.4021 -0.3041
  137OSM    C4F14944  -0.010  -0.341   7.496  0.7234  0.4256  0.2308
  137OSM    H4F14945   0.067  -0.421   7.487  1.3304  0.7204  2.2788
  137OSM    H4G14946  -0.107  -0.385   7.527  1.0570  0.7229  1.7809
  137OSM    C5F14947   0.062  -0.260   7.597  0.4962 -0.0620 -0.5134
  137OSM    H5F14948  -0.008  -0.194   7.654  0.2837  0.5330 -1.4370
  137OSM    H5G14949   0.118  -0.182   7.541  0.2365  1.7975  1.6420
  137OSM    C6F14950   0.146  -0.325   7.714 -0.4657 -0.0474  0.5109
  137OSM    H6F14951   0.198  -0.415   7.675  0.5047  0.6089  0.2477
  137OSM    H6G14952   0.080  -0.359   7.797  0.9422 -1.4609  1.1132
  137OSM    C7F14953   0.256  -0.227   7.757  0.3420  0.5677 -0.1667
  137OSM    H7F14954   0.313  -0.205   7.665 -0.6885  1.9543 -0.5019
  137OSM    H7G14955   0.322  -0.283   7.826 -0.0145 -0.3159 -0.5307
  137OSM    C8F14956   0.216  -0.092   7.823  0.3771 -0.4515  0.6619
  137OSM    H8F14957   0.166  -0.025   7.749 -0.5863  0.2317  1.8802
  137OSM    H8G14958   0.304  -0.032   7.853  1.5598 -1.5235 -0.5796
  137OSM    C9F14959   0.122  -0.117   7.942  0.2109  0.9189  0.6650
  137OSM    H9F14960   0.034  -0.169   7.901  1.4866  0.3874 -1.5768
  137OSM   C10F14961   0.154  -0.106   8.068  0.6403  0.2029  0.0833
  137OSM   H10F14962   0.085  -0.140   8.147 -0.5120 -1.7713 -1.6729
  137OSM   C11F14963   0.282  -0.053   8.127  0.2826 -0.3029  0.2211
  137OSM   H11F14964   0.272  -0.013   8.230 -0.3473  0.2879 -0.0641
  137OSM   H11G14965   0.317   0.029   8.062 -0.8711  0.2523  0.2675
  137OSM   C12F14966   0.392  -0.163   8.127 -0.3933  0.7914 -0.0653
  137OSM   H12F14967   0.453  -0.140   8.037  0.5115  2.9739  1.0283
  137OSM   H12G14968   0.354  -0.267   8.126  0.3320  0.5303 -0.6588
  137OSM   C13F14969   0.485  -0.148   8.246  0.3579  0.8226 -0.5038
  137OSM   H13F14970   0.422  -0.169   8.336 -1.5017  0.5939 -1.7840
  137OSM   H13G14971   0.533  -0.049   8.233 -1.1381  1.3523 -2.5859
  137OSM   C14F14972   0.595  -0.254   8.247  0.2698  0.3855 -0.1306
  137OSM   H14F14973   0.651  -0.244   8.151 -0.9318  1.0570 -0.7875
  137OSM   H14G14974   0.552  -0.356   8.245 -0.0028  0.4281  1.9426
  137OSM   C15F14975   0.698  -0.239   8.364  0.3512 -0.6579  0.0868
  137OSM   H15F14976   0.755  -0.145   8.348  0.1492 -0.9175 -2.7336
  137OSM   H15G14977   0.769  -0.321   8.339 -0.9213 -1.8472  0.2627
  137OSM   C16F14978   0.644  -0.263   8.506 -0.6852  0.2172 -0.9161
  137OSM   H16F14979   0.566  -0.342   8.504  0.8359 -1.3258 -1.6767
  137OSM   H16G14980   0.599  -0.170   8.548 -0.0265  0.6156 -1.0787
  137OSM   C17F14981   0.745  -0.325   8.603 -0.6444 -0.3996  0.0293
  137OSM   H17F14982   0.829  -0.257   8.629 -0.1802 -1.3371  1.0584
  137OSM   H17G14983   0.798  -0.409   8.552 -1.1275 -0.5856 -0.1668
  137OSM   C18F14984   0.678  -0.371   8.732 -0.8401  0.0417 -0.2946
  137OSM   H18F14985   0.757  -0.413   8.798 -1.4983  1.8989  1.8103
  137OSM   H18G14986   0.601  -0.448   8.712 -1.1032  0.2587 -0.1325
  137OSM   H18H14987   0.628  -0.294   8.795  3.0175  2.2537  0.3750
  138OSM      N14988   6.260   3.053   6.172  0.7633 -0.0507 -0.3279
  138OSM    C1514989   6.162   3.168   6.153 -0.6489 -0.4942  0.0559
  138OSM   H15A14990   6.061   3.131   6.169 -0.7998 -0.6066 -1.0690
  138OSM   H15B14991   6.180   3.211   6.056 -3.0881  1.6603  0.4435
  138OSM   H15C14992   6.181   3.242   6.230  0.0141 -2.5988  2.0193
  138OSM    C1414993   6.229   2.936   6.089 -0.1885 -0.1101 -0.3871
  138OSM   H14A14994   6.131   2.908   6.123  0.2038 -0.0029  0.8886
  138OSM   H14B14995   6.292   2.848   6.100 -0.1917 -0.0930 -0.2300
  138OSM   H14C14996   6.212   2.959   5.985 -1.8799  0.5531  0.0139
  138OSM    C1314997   6.396   3.106   6.124 -0.2893 -0.4296  0.1053
  138OSM   H13A14998   6.393   3.136   6.021 -0.9757  1.4037  0.6251
  138OSM   H13B14999   6.471   3.029   6.133 -0.2582 -0.3264  0.8244
  138OSM   H13C15000   6.424   3.187   6.189 -3.1889  0.6249  0.1939
  138OSM    C1215001   6.267   3.013   6.320 -0.4821 -0.3076  0.0620
  138OSM   H12A15002   6.317   3.099   6.363 -0.2494  0.0850 -0.9712
  138OSM   H12B15003   6.322   2.921   6.332  1.9490  1.2045  1.3680
  138OSM    C1115004   6.128   2.973   6.384 -0.2493  0.0779  0.3966
  138OSM   H11A15005   6.063   3.064   6.389  0.1749  0.3780  0.4726
  138OSM   H11B15006   6.152   2.938   6.486 -1.7576 -2.0354  0.0918
  138OSM      P15007   6.102   2.716   6.309 -0.4123 -0.1308  0.3292
  138OSM    O1315008   6.010   2.648   6.218  0.2953 -1.0023 -0.5169
  138OSM    O1415009   6.245   2.689   6.284 -0.5648  0.8932  0.0088
  138OSM    O1115010   6.062   2.680   6.459 -0.2177  0.0142  0.2397
  138OSM    O1215011   6.063   2.867   6.310  0.5629  0.6811 -0.3671
  138OSM    C1S15012   6.142   2.592   6.545  0.1776  0.1737  0.3238
  138OSM    H1S15013   6.244   2.573   6.506  0.3485 -1.7313  1.5568
  138OSM    H1T15014   6.085   2.498   6.564 -0.5473  1.0167  2.6535
  138OSM     NF15015   6.271   2.593   6.758  0.1922 -0.9258  0.0458
  138OSM    HNF15016   6.246   2.553   6.846 -0.3316 -1.1289 -0.1935
  138OSM    C2S15017   6.169   2.667   6.683 -0.0589  0.7187  0.6780
  138OSM    H2S15018   6.208   2.765   6.650  1.8852  1.6806  5.1519
  138OSM    C3S15019   6.038   2.699   6.760 -0.1918 -0.4733  0.3052
  138OSM    H3S15020   5.985   2.604   6.781 -3.1452  1.1857  0.7729
  138OSM     O315021   5.949   2.782   6.679  0.2886 -0.2199 -0.0181
  138OSM    HO315022   5.969   2.775   6.586 -0.1841  0.7758 -0.2031
  138OSM    C4S15023   6.069   2.765   6.887  0.3883 -0.2837  0.2488
  138OSM    H4S15024   6.113   2.865   6.881  0.3563 -0.2240  0.9158
  138OSM    C5S15025   6.050   2.704   7.008 -0.0138 -0.2381 -0.4695
  138OSM    H5S15026   6.012   2.602   7.019  0.1971 -0.2159  0.5384
  138OSM    C6S15027   6.077   2.775   7.145 -0.1655  0.0028 -0.1321
  138OSM    H6S15028   5.997   2.835   7.194 -0.2725  1.3896 -1.9056
  138OSM    H6T15029   6.165   2.841   7.131  0.3610  0.0655  2.7476
  138OSM    C7S15030   6.111   2.673   7.259  0.1090 -0.3200  0.1951
  138OSM    H7S15031   6.191   2.608   7.218 -0.8850 -0.8633 -0.9446
  138OSM    H7T15032   6.034   2.597   7.286 -0.4064  0.8848  2.3322
  138OSM    C8S15033   6.170   2.728   7.393  0.1815 -0.9721 -0.4053
  138OSM    H8S15034   6.095   2.796   7.439 -0.6371 -1.0718 -1.5405
  138OSM    H8T15035   6.252   2.800   7.373 -0.6183  0.2560  0.6086
  138OSM    C9S15036   6.213   2.618   7.490  0.3178 -0.6518 -0.2242
  138OSM    H9S15037   6.307   2.566   7.460  1.4263  0.8315  0.5005
  138OSM    H9T15038   6.130   2.545   7.489 -2.9217  2.7231 -1.4293
  138OSM   C10S15039   6.241   2.674   7.629 -0.2664  0.5627 -0.4197
  138OSM   H10S15040   6.147   2.710   7.676  0.7410 -1.8725  4.0538
  138OSM   H10T15041   6.313   2.758   7.616  0.6049 -0.0959  0.0888
  138OSM   C11S15042   6.294   2.560   7.714  0.8144  0.5214 -0.4057
  138OSM   H11S15043   6.392   2.517   7.685  0.4070  0.3120 -1.5288
  138OSM   H11T15044   6.227   2.473   7.698  2.4804 -0.7038 -1.0122
  138OSM   C12S15045   6.285   2.588   7.868 -0.0377 -0.6733  0.5357
  138OSM   H12S15046   6.335   2.687   7.872 -0.3275 -0.4083 -1.3914
  138OSM   H12T15047   6.340   2.510   7.925 -0.5953 -1.9229 -0.5712
  138OSM   C13S15048   6.140   2.593   7.927 -0.2881  0.2328 -0.6458
  138OSM   H13S15049   6.101   2.491   7.909  0.5857  0.2902 -3.4882
  138OSM   H13T15050   6.080   2.663   7.864  0.2236  0.4941 -0.8494
  138OSM   C14S15051   6.147   2.634   8.079  0.6498 -0.4070 -0.5690
  138OSM   H14S15052   6.189   2.737   8.084  1.0390 -0.6273  1.4397
  138OSM   H14T15053   6.214   2.574   8.143 -0.5779  0.3119  1.4702
  138OSM   C15S15054   6.012   2.643   8.151 -0.0501 -0.1757  0.1377
  138OSM   H15S15055   5.951   2.551   8.136 -2.2522  0.8053  2.4036
  138OSM   H15T15056   5.950   2.720   8.101 -3.0087 -1.0056  2.2117
  138OSM   C16S15057   6.003   2.670   8.303  0.6359 -0.0516 -0.2384
  138OSM   H16S15058   6.082   2.744   8.328  1.7812 -1.9496  2.0511
  138OSM   H16T15059   6.032   2.580   8.361 -0.2291 -0.3575 -0.2627
  138OSM   C17S15060   5.868   2.720   8.351  0.8871 -0.1275  0.4851
  138OSM   H17S15061   5.789   2.657   8.305  0.1969  0.9944  0.1157
  138OSM   H17T15062   5.861   2.824   8.314 -0.7088  0.0914  1.3235
  138OSM   C18S15063   5.865   2.717   8.508 -0.4747  0.2581  0.4773
  138OSM   H18S15064   5.758   2.725   8.537 -1.4083 -0.3148 -2.4350
  138OSM   H18T15065   5.920   2.798   8.560 -0.7159  0.5594  0.2629
  138OSM   H18U15066   5.897   2.617   8.544  0.8986  0.4333 -0.2009
  138OSM    C1F15067   6.401   2.575   6.719 -0.4693  0.5573 -0.2346
  138OSM     OF15068   6.432   2.629   6.615  0.3189  0.4004  0.1704
  138OSM    C2F15069   6.494   2.488   6.801 -0.7619  0.2019  1.0630
  138OSM    H2F15070   6.530   2.419   6.722 -0.0010  1.5926  0.1372
  138OSM    H2G15071   6.439   2.426   6.874 -0.9390 -0.2138  0.5831
  138OSM    C3F15072   6.618   2.553   6.865 -0.5583 -0.4545  0.0350
  138OSM    H3F15073   6.664   2.621   6.790 -2.2241  0.1600 -0.4708
  138OSM    H3G15074   6.690   2.473   6.894  0.4107  0.5163  0.3777
  138OSM    C4F15075   6.587   2.636   6.986  0.0021 -0.1009 -0.5143
  138OSM    H4F15076   6.512   2.718   6.977  1.1342  1.1046  0.4924
  138OSM    H4G15077   6.682   2.683   7.020 -0.5103 -0.0970  0.9553
  138OSM    C5F15078   6.525   2.543   7.097  0.6918 -0.0967 -0.2554
  138OSM    H5F15079   6.592   2.455   7.089  0.2062 -0.3769 -1.4794
  138OSM    H5G15080   6.422   2.513   7.067  1.4965 -0.3351 -3.0190
  138OSM    C6F15081   6.499   2.597   7.242  0.5086  0.0694 -0.0813
  138OSM    H6F15082   6.456   2.515   7.303  0.0111  0.2954 -0.1244
  138OSM    H6G15083   6.429   2.680   7.218  2.0549  1.2556 -0.6405
  138OSM    C7F15084   6.630   2.645   7.304  0.4640  0.5991  0.4580
  138OSM    H7F15085   6.664   2.732   7.243 -1.7163  0.5137 -0.9746
  138OSM    H7G15086   6.712   2.572   7.285 -0.1938  0.1154 -0.6321
  138OSM    C8F15087   6.609   2.676   7.455  0.8977  0.4283  0.9231
  138OSM    H8F15088   6.581   2.589   7.518 -1.3379  0.8578  0.6174
  138OSM    H8G15089   6.517   2.739   7.461 -2.2926 -3.3333 -2.2267
  138OSM    C9F15090   6.720   2.753   7.517  0.9653 -0.3062 -0.1629
  138OSM    H9F15091   6.761   2.824   7.444  1.6302 -0.4239  0.0913
  138OSM   C10F15092   6.767   2.759   7.639 -0.4740 -0.1464  1.6692
  138OSM   H10F15093   6.857   2.820   7.658 -0.9255  0.6038  1.4300
  138OSM   C11F15094   6.733   2.687   7.766 -0.6902 -0.0577  0.7828
  138OSM   H11F15095   6.831   2.656   7.809  0.8282 -0.3052 -2.5215
  138OSM   H11G15096   6.662   2.602   7.756 -1.3295  0.6127 -0.7763
  138OSM   C12F15097   6.677   2.778   7.876  0.3098  0.0736  0.1016
  138OSM   H12F15098   6.577   2.815   7.844  0.4097 -2.3425 -3.5330
  138OSM   H12G15099   6.747   2.864   7.884  0.3114  0.2333 -1.3738
  138OSM   C13F15100   6.667   2.707   8.010 -0.1242 -0.3875 -0.3940
  138OSM   H13F15101   6.766   2.665   8.039 -0.0839  0.1058  0.2004
  138OSM   H13G15102   6.585   2.631   8.010  0.2748 -0.8210 -0.0857
  138OSM   C14F15103   6.633   2.809   8.125 -0.5882  0.1158  0.3003
  138OSM   H14F15104   6.657   2.911   8.088  0.5299  0.0694  0.8640
  138OSM   H14G15105   6.695   2.789   8.215 -0.1152 -2.8511 -0.5688
  138OSM   C15F15106   6.486   2.797   8.166  0.0799 -0.6110 -0.4541
  138OSM   H15F15107   6.468   2.696   8.210 -0.2796  0.1801  1.2854
  138OSM   H15G15108   6.427   2.812   8.074  2.3661  0.5434 -1.8344
  138OSM   C16F15109   6.442   2.892   8.275  0.3312 -0.3075  0.6944
  138OSM   H16F15110   6.333   2.874   8.286  0.1980 -0.9130 -1.2814
  138OSM   H16G15111   6.447   2.988   8.220  2.2861 -2.0302 -2.4299
  138OSM   C17F15112   6.517   2.882   8.412 -0.3458 -0.8727 -0.8596
  138OSM   H17F15113   6.622   2.895   8.379 -0.5778 -1.1388 -1.7339
  138OSM   H17G15114   6.499   2.778   8.449 -0.2660 -0.8784 -0.8366
  138OSM   C18F15115   6.468   2.978   8.517 -0.2039  0.3618  0.2835
  138OSM   H18F15116   6.535   2.973   8.606  1.9973  0.6880 -1.2938
  138OSM   H18G15117   6.368   2.946   8.556 -0.6636  1.1391 -0.2272
  138OSM   H18H15118   6.460   3.085   8.486 -0.4991  0.4427  0.6234
  139OSM      N15119   4.471   2.715   6.456 -0.4156  0.0391  0.1715
  139OSM    C1515120   4.624   2.742   6.461 -0.0814 -0.8219 -0.0707
  139OSM   H15A15121   4.664   2.659   6.405 -0.0070 -0.5149 -0.4784
  139OSM   H15B15122   4.662   2.740   6.562 -3.0513 -0.0578  1.1572
  139OSM   H15C15123   4.636   2.834   6.406 -1.8647 -1.8478 -2.3543
  139OSM    C1415124   4.454   2.564   6.486  0.0103 -0.2215 -0.4018
  139OSM   H14A15125   4.495   2.534   6.582  0.7560  2.4881  0.2232
  139OSM   H14B15126   4.510   2.511   6.410 -1.3268 -0.6572 -1.1039
  139OSM   H14C15127   4.352   2.530   6.492  0.2387 -0.7044  1.0304
  139OSM    C1315128   4.392   2.795   6.553  0.4998  0.5107  0.1819
  139OSM   H13A15129   4.418   2.761   6.652  2.3555  0.1535 -0.3799
  139OSM   H13B15130   4.286   2.783   6.537  0.2806  3.7141 -1.7733
  139OSM   H13C15131   4.411   2.901   6.542  0.1043  0.4361 -1.5154
  139OSM    C1215132   4.430   2.752   6.309 -0.1089 -0.4177 -0.1958
  139OSM   H12A15133   4.327   2.724   6.295  0.0266 -0.9782 -0.1254
  139OSM   H12B15134   4.490   2.690   6.244  0.3322  1.2931 -1.4828
  139OSM    C1115135   4.434   2.899   6.259  0.3772  0.0192 -0.1639
  139OSM   H11A15136   4.361   2.959   6.318 -0.0699 -0.2672 -0.4221
  139OSM   H11B15137   4.399   2.904   6.153  1.2884 -0.5807 -0.5009
  139OSM      P15138   4.580   3.105   6.235 -0.6043 -0.3754 -0.1483
  139OSM    O1315139   4.722   3.130   6.209  0.2028 -0.4126 -0.2279
  139OSM    O1415140   4.486   3.131   6.122 -0.3338 -0.5994  0.2722
  139OSM    O1115141   4.528   3.189   6.357 -0.2856  0.0148  0.4772
  139OSM    O1215142   4.565   2.955   6.272 -0.2217 -0.0541 -0.5308
  139OSM    C1S15143   4.614   3.238   6.456 -0.2864 -0.2459 -0.5166
  139OSM    H1S15144   4.669   3.330   6.425 -2.2605  1.2751  0.2573
  139OSM    H1T15145   4.684   3.156   6.482  0.3817  0.2528 -0.7070
  139OSM     NF15146   4.631   3.313   6.698  0.2014  0.5067 -0.9452
  139OSM    HNF15147   4.670   3.241   6.754 -0.8374  0.0219 -0.8326
  139OSM    C2S15148   4.539   3.272   6.591  0.2936 -0.3863 -0.0782
  139OSM    H2S15149   4.467   3.355   6.572  1.2130  0.3738 -0.3191
  139OSM    C3S15150   4.446   3.153   6.636  0.2484  0.5054 -0.0234
  139OSM    H3S15151   4.511   3.064   6.650 -0.8651 -0.4652 -0.8015
  139OSM     O315152   4.342   3.114   6.541  0.2055  0.0403 -0.1040
  139OSM    HO315153   4.371   3.153   6.459 -0.0084 -0.6627 -0.5246
  139OSM    C4S15154   4.371   3.183   6.762  0.1454 -0.1846 -1.6072
  139OSM    H4S15155   4.304   3.269   6.765  1.5699  0.9575  1.8404
  139OSM    C5S15156   4.385   3.111   6.882 -0.1925 -0.3467  0.3208
  139OSM    H5S15157   4.458   3.031   6.897  1.0382  0.6062 -0.3969
  139OSM    C6S15158   4.324   3.142   7.015 -0.2285 -0.5324  0.2690
  139OSM    H6S15159   4.301   3.050   7.073  0.9187 -0.0442  1.5420
  139OSM    H6T15160   4.225   3.191   7.002 -0.0429  0.2140  1.4758
  139OSM    C7S15161   4.411   3.233   7.108 -0.2929  0.2289  0.0678
  139OSM    H7S15162   4.446   3.324   7.056  2.1534 -0.7165 -0.0483
  139OSM    H7T15163   4.510   3.185   7.123 -0.3544 -0.3543 -1.2973
  139OSM    C8S15164   4.343   3.268   7.240 -0.3684 -0.5030 -0.4718
  139OSM    H8S15165   4.252   3.206   7.252 -0.3530 -0.1872  1.5448
  139OSM    H8T15166   4.313   3.375   7.238 -1.5596 -0.8365 -1.5770
  139OSM    C9S15167   4.437   3.245   7.363  0.5383 -0.0056 -0.3121
  139OSM    H9S15168   4.526   3.310   7.352  1.1635 -0.7528  0.2488
  139OSM    H9T15169   4.485   3.145   7.364  2.6052  0.9613  0.3371
  139OSM   C10S15170   4.368   3.265   7.498  0.6163  0.5029  0.2063
  139OSM   H10S15171   4.278   3.200   7.502  1.0783 -0.2237 -0.5942
  139OSM   H10T15172   4.334   3.370   7.512 -2.4901 -0.6360  2.2681
  139OSM   C11S15173   4.456   3.259   7.622  0.5179  0.3356  0.6954
  139OSM   H11S15174   4.541   3.328   7.608  1.7062 -1.2020  0.1486
  139OSM   H11T15175   4.499   3.157   7.633 -0.6833 -0.3244 -0.5255
  139OSM   C12S15176   4.365   3.280   7.741 -0.3452 -1.0469 -0.0788
  139OSM   H12S15177   4.286   3.201   7.743 -0.0359 -1.3473  1.0946
  139OSM   H12T15178   4.317   3.380   7.733 -0.5663 -0.8525  2.7003
  139OSM   C13S15179   4.449   3.280   7.871  0.7901  0.4447  0.5832
  139OSM   H13S15180   4.384   3.341   7.938 -1.4149  0.0093 -1.0498
  139OSM   H13T15181   4.548   3.326   7.849  0.4758  1.2616  0.8562
  139OSM   C14S15182   4.464   3.135   7.927 -0.5724 -0.2075  0.3392
  139OSM   H14S15183   4.530   3.070   7.865 -0.2613  0.1987  0.2413
  139OSM   H14T15184   4.359   3.098   7.925 -1.7738  2.8907  1.0577
  139OSM   C15S15185   4.511   3.135   8.074  0.0475 -0.0456 -0.0593
  139OSM   H15S15186   4.481   3.040   8.123 -0.7506 -0.7789 -1.8894
  139OSM   H15T15187   4.450   3.221   8.108 -1.6450 -0.6601 -1.3749
  139OSM   C16S15188   4.664   3.150   8.092 -0.2096 -0.1216 -0.9613
  139OSM   H16S15189   4.709   3.224   8.023  0.3546  0.7812  0.3346
  139OSM   H16T15190   4.702   3.055   8.049 -1.7656 -0.9470 -0.6080
  139OSM   C17S15191   4.707   3.181   8.237  0.0896  0.6107  0.5051
  139OSM   H17S15192   4.659   3.114   8.311  0.6325  2.5547  2.7545
  139OSM   H17T15193   4.671   3.285   8.254 -0.9499  0.6099 -1.4077
  139OSM   C18S15194   4.859   3.182   8.261 -0.6086  0.1356  0.0124
  139OSM   H18S15195   4.893   3.166   8.365  0.8916 -2.3928 -0.7795
  139OSM   H18T15196   4.913   3.274   8.230 -2.4578  0.9440 -0.9742
  139OSM   H18U15197   4.906   3.104   8.197  0.8402  1.0555 -0.0866
  139OSM    C1F15198   4.680   3.440   6.700  0.2824  1.0372 -0.5553
  139OSM     OF15199   4.640   3.518   6.612 -0.1865  0.3168 -0.0694
  139OSM    C2F15200   4.780   3.481   6.805 -0.1528 -0.8932 -1.0782
  139OSM    H2F15201   4.873   3.495   6.746 -0.0571 -1.4880 -1.0743
  139OSM    H2G15202   4.796   3.396   6.876  3.9096 -0.2500 -0.9502
  139OSM    C3F15203   4.760   3.611   6.874 -0.8823  0.8575 -0.9596
  139OSM    H3F15204   4.756   3.693   6.799  1.1349  3.3197  1.3914
  139OSM    H3G15205   4.847   3.620   6.943 -2.0419  2.4443  0.3714
  139OSM    C4F15206   4.645   3.619   6.967  0.4630 -0.0686 -0.4496
  139OSM    H4F15207   4.549   3.602   6.913  0.2533  2.5854 -1.0533
  139OSM    H4G15208   4.630   3.717   7.018 -0.8678  0.3615 -1.5974
  139OSM    C5F15209   4.644   3.519   7.087 -0.2317  0.5049 -0.0021
  139OSM    H5F15210   4.662   3.415   7.055 -2.3114 -0.2982  1.2486
  139OSM    H5G15211   4.542   3.512   7.130 -0.7315 -2.0775 -1.4611
  139OSM    C6F15212   4.754   3.551   7.186  0.8406 -0.5369 -0.3075
  139OSM    H6F15213   4.852   3.569   7.137  0.5078  2.3525 -0.0745
  139OSM    H6G15214   4.761   3.458   7.248 -0.5640 -1.2201 -1.1272
  139OSM    C7F15215   4.717   3.660   7.276 -0.3442 -0.1058 -0.1262
  139OSM    H7F15216   4.613   3.650   7.312 -0.6421  1.3194 -0.4918
  139OSM    H7G15217   4.722   3.750   7.210  0.2580  0.5411  0.7802
  139OSM    C8F15218   4.808   3.681   7.390  0.9254  0.2530  0.1412
  139OSM    H8F15219   4.908   3.713   7.352  0.1427 -0.1719 -2.5095
  139OSM    H8G15220   4.827   3.577   7.425  0.5073 -0.6805 -2.2159
  139OSM    C9F15221   4.743   3.763   7.499 -0.5929  0.0298 -0.2704
  139OSM    H9F15222   4.740   3.866   7.462 -0.0426 -0.0840 -0.6484
  139OSM   C10F15223   4.692   3.720   7.615  0.0626  0.3477  0.1722
  139OSM   H10F15224   4.652   3.799   7.681  1.8036  0.0157  1.7214
  139OSM   C11F15225   4.687   3.575   7.670  0.7680  0.1284  0.4869
  139OSM   H11F15226   4.743   3.505   7.604 -3.1906 -0.9330 -2.0799
  139OSM   H11G15227   4.583   3.538   7.679  0.5561  0.5158 -0.2731
  139OSM   C12F15228   4.734   3.577   7.817 -0.0989 -0.2179  0.3813
  139OSM   H12F15229   4.838   3.615   7.823 -0.5962  1.0211  1.8273
  139OSM   H12G15230   4.740   3.471   7.849  0.6249 -0.7622 -1.4166
  139OSM   C13F15231   4.643   3.654   7.917 -0.6743  0.2997 -0.7400
  139OSM   H13F15232   4.551   3.595   7.937 -0.1690 -0.6625 -1.1851
  139OSM   H13G15233   4.608   3.753   7.879  1.3168  0.8686 -1.2235
  139OSM   C14F15234   4.719   3.671   8.051 -0.4300  0.0368 -0.3077
  139OSM   H14F15235   4.770   3.770   8.056  0.1309 -0.3052  1.5749
  139OSM   H14G15236   4.789   3.585   8.058 -1.9302 -1.1239  0.8959
  139OSM   C15F15237   4.632   3.672   8.171  0.8367 -0.2226  1.1265
  139OSM   H15F15238   4.564   3.584   8.171  0.0185  0.3761  2.6970
  139OSM   H15G15239   4.567   3.761   8.160 -1.0378 -1.7174 -0.4596
  139OSM   C16F15240   4.716   3.682   8.294 -0.1162 -0.2123 -1.0062
  139OSM   H16F15241   4.659   3.729   8.377  0.8013 -1.3364  0.3179
  139OSM   H16G15242   4.807   3.742   8.273  0.0882 -0.7812 -1.7764
  139OSM   C17F15243   4.763   3.548   8.362  0.2062  0.5401  0.1061
  139OSM   H17F15244   4.842   3.562   8.439  1.7465  0.5614 -1.4138
  139OSM   H17G15245   4.798   3.477   8.284 -0.6587 -0.9235  0.9971
  139OSM   C18F15246   4.648   3.479   8.438 -0.0456 -0.5462 -0.2993
  139OSM   H18F15247   4.647   3.534   8.534  3.4574 -0.3426 -0.2753
  139OSM   H18G15248   4.662   3.370   8.454  1.8145 -0.4703 -1.1148
  139OSM   H18H15249   4.558   3.489   8.373 -0.7720  0.1905  0.7925
  140OSM      N15250   5.199   5.398   6.215  0.1652  0.5800 -0.6935
  140OSM    C1515251   5.049   5.394   6.262 -0.1101 -0.2666 -0.4199
  140OSM   H15A15252   5.031   5.480   6.325 -2.5497 -1.4987  0.6909
  140OSM   H15B15253   5.025   5.306   6.319  0.7588 -1.0233 -1.1794
  140OSM   H15C15254   4.989   5.400   6.172  0.4150  1.0529 -0.7109
  140OSM    C1415255   5.211   5.287   6.124 -0.1278  0.1444  0.5400
  140OSM   H14A15256   5.128   5.268   6.057  1.9913 -0.8481 -1.9890
  140OSM   H14B15257   5.224   5.195   6.178  4.6443  1.0381  1.3364
  140OSM   H14C15258   5.303   5.298   6.067 -0.2928  0.4162  0.3243
  140OSM    C1315259   5.220   5.526   6.138 -0.2260  0.7011 -0.6151
  140OSM   H13A15260   5.159   5.547   6.052  2.0430  2.0835 -1.9777
  140OSM   H13B15261   5.324   5.534   6.112 -0.5876  2.0294 -1.7423
  140OSM   H13C15262   5.216   5.606   6.210 -2.1342  1.0888 -1.0895
  140OSM    C1215263   5.287   5.384   6.333 -0.6185 -0.1461  0.1265
  140OSM   H12A15264   5.283   5.477   6.388 -2.5327  0.3961 -0.8657
  140OSM   H12B15265   5.390   5.383   6.301 -0.8516  1.7269 -0.7942
  140OSM    C1115266   5.267   5.272   6.441  0.2128 -0.1391  0.2214
  140OSM   H11A15267   5.162   5.269   6.477  0.4659 -2.9068  0.9503
  140OSM   H11B15268   5.323   5.302   6.532 -2.7162  1.9274  1.4945
  140OSM      P15269   5.447   5.116   6.368 -0.3554  0.1246 -0.3151
  140OSM    O1315270   5.456   4.981   6.309 -0.0162 -0.0924  0.5113
  140OSM    O1415271   5.516   5.223   6.291  0.0685  0.7492 -0.0844
  140OSM    O1115272   5.500   5.111   6.513 -0.4089 -0.4483  0.4208
  140OSM    O1215273   5.299   5.139   6.401  0.9803  0.6559 -0.0294
  140OSM    C1S15274   5.496   5.000   6.606  0.9873 -0.1866  0.6386
  140OSM    H1S15275   5.558   4.913   6.576  1.7585  0.5723 -0.0277
  140OSM    H1T15276   5.390   4.967   6.604  1.5340 -2.7152 -4.9221
  140OSM     NF15277   5.498   4.939   6.844  0.7205  1.0020  0.2346
  140OSM    HNF15278   5.412   4.952   6.892  2.0630  3.9708  2.1252
  140OSM    C2S15279   5.536   5.044   6.746  0.1689 -0.2220 -0.4942
  140OSM    H2S15280   5.647   5.036   6.741  0.2717  0.5040  0.4296
  140OSM    C3S15281   5.504   5.191   6.791 -0.1758  0.6311 -0.3165
  140OSM    H3S15282   5.393   5.198   6.797 -0.2276 -0.3157 -0.0012
  140OSM     O315283   5.547   5.286   6.705  0.1787  0.0144 -0.3958
  140OSM    HO315284   5.553   5.238   6.622  1.8532 -3.9396  1.7614
  140OSM    C4S15285   5.563   5.211   6.928 -0.0100  0.8553  0.0181
  140OSM    H4S15286   5.487   5.207   7.007 -0.5841 -1.4408 -0.5812
  140OSM    C5S15287   5.693   5.231   6.972  0.2712 -0.4476  0.1925
  140OSM    H5S15288   5.766   5.234   6.890 -0.6349  0.2394 -0.6171
  140OSM    C6S15289   5.756   5.253   7.110 -0.8051 -0.3250 -0.2952
  140OSM    H6S15290   5.783   5.361   7.118  1.3783 -0.8236 -0.2134
  140OSM    H6T15291   5.846   5.189   7.112 -0.3277  0.3492  0.3817
  140OSM    C7S15292   5.663   5.216   7.232 -0.4931  0.2088 -0.0305
  140OSM    H7S15293   5.621   5.114   7.219  0.6635 -0.6829  2.5827
  140OSM    H7T15294   5.579   5.289   7.239 -0.3305  0.2701  1.5426
  140OSM    C8S15295   5.749   5.212   7.354  0.4171  0.6132  0.4989
  140OSM    H8S15296   5.807   5.307   7.361  2.6245 -0.5506 -0.7570
  140OSM    H8T15297   5.828   5.139   7.325  1.0521  1.2393  0.6335
  140OSM    C9S15298   5.674   5.180   7.480  0.0674  0.4515  0.9365
  140OSM    H9S15299   5.602   5.100   7.457 -0.0455  0.7203  0.3361
  140OSM    H9T15300   5.613   5.263   7.521  0.7835  0.9256  1.0659
  140OSM   C10S15301   5.767   5.118   7.578 -0.5113 -0.4433 -0.1783
  140OSM   H10S15302   5.847   5.192   7.601  0.9092 -2.1524  0.5351
  140OSM   H10T15303   5.804   5.026   7.530 -0.6520 -0.2007 -0.7539
  140OSM   C11S15304   5.689   5.077   7.707 -0.0739  0.0688 -0.4145
  140OSM   H11S15305   5.756   5.023   7.777 -0.0838 -1.8208 -1.7776
  140OSM   H11T15306   5.604   5.011   7.682 -0.2561  0.3559 -0.5662
  140OSM   C12S15307   5.641   5.188   7.809 -0.0583  0.0596  0.2400
  140OSM   H12S15308   5.576   5.259   7.753  1.0091  1.3305  0.5737
  140OSM   H12T15309   5.735   5.240   7.835  0.6663 -0.8856 -0.4150
  140OSM   C13S15310   5.569   5.133   7.939 -0.4393  0.1272  0.6399
  140OSM   H13S15311   5.644   5.066   7.988  0.3561  1.2690  1.0432
  140OSM   H13T15312   5.470   5.086   7.922 -1.0619  1.7221 -0.3736
  140OSM   C14S15313   5.555   5.244   8.044 -1.1430 -0.1188 -0.6226
  140OSM   H14S15314   5.480   5.317   8.008  0.0912  2.3524  1.4468
  140OSM   H14T15315   5.650   5.297   8.066 -0.8584 -1.1045  0.6753
  140OSM   C15S15316   5.511   5.193   8.182  0.5756 -0.3385  0.0620
  140OSM   H15S15317   5.569   5.106   8.219  0.6363  0.0943  0.9919
  140OSM   H15T15318   5.406   5.160   8.163  0.4145  1.0123 -1.6323
  140OSM   C16S15319   5.528   5.290   8.288  0.1153 -0.5153 -0.9766
  140OSM   H16S15320   5.475   5.387   8.273 -2.5843 -1.8983 -1.0035
  140OSM   H16T15321   5.635   5.313   8.307 -0.1517  0.6229 -0.7304
  140OSM   C17S15322   5.475   5.241   8.425  0.0881 -0.1376 -0.0094
  140OSM   H17S15323   5.523   5.141   8.432  0.3195  0.0546  1.5272
  140OSM   H17T15324   5.365   5.230   8.429  0.1409 -0.4710  1.3475
  140OSM   C18S15325   5.529   5.317   8.550  0.1640 -0.6263 -0.0028
  140OSM   H18S15326   5.640   5.312   8.542  0.2631 -1.7986  1.5103
  140OSM   H18T15327   5.510   5.273   8.651 -3.2546 -0.4058 -0.4249
  140OSM   H18U15328   5.496   5.423   8.554  1.3116 -0.2699  0.2794
  140OSM    C1F15329   5.550   4.820   6.852  0.2469  0.4520  0.4781
  140OSM     OF15330   5.641   4.784   6.774 -0.1652 -0.2599 -0.6620
  140OSM    C2F15331   5.491   4.729   6.957 -0.1474 -0.8675 -0.1038
  140OSM    H2F15332   5.380   4.730   6.954 -0.2088 -2.9136 -0.1329
  140OSM    H2G15333   5.524   4.780   7.049  0.2836 -0.1527 -0.6521
  140OSM    C3F15334   5.559   4.591   6.961 -0.0588  0.7124 -0.4367
  140OSM    H3F15335   5.669   4.583   6.952 -0.1197 -2.2716  0.2941
  140OSM    H3G15336   5.530   4.543   6.865  0.1775  1.3072 -0.8143
  140OSM    C4F15337   5.529   4.522   7.095  1.2441  0.0892 -0.1482
  140OSM    H4F15338   5.579   4.590   7.167 -0.9923  0.3776  1.2262
  140OSM    H4G15339   5.581   4.424   7.107 -0.1814 -1.0712 -2.6240
  140OSM    C5F15340   5.389   4.521   7.138 -0.0588  0.1800 -0.7435
  140OSM    H5F15341   5.323   4.537   7.049 -1.2980  1.5679  0.3802
  140OSM    H5G15342   5.365   4.613   7.196  1.0898 -0.4880  0.8543
  140OSM    C6F15343   5.359   4.399   7.237  0.3255  0.3496  0.7239
  140OSM    H6F15344   5.379   4.305   7.181  3.7084 -0.7992  3.4770
  140OSM    H6G15345   5.249   4.404   7.254 -0.2432  0.6739 -2.5216
  140OSM    C7F15346   5.437   4.402   7.371 -0.0889  0.4909 -0.0421
  140OSM    H7F15347   5.543   4.426   7.350 -0.3419  1.6349 -0.0745
  140OSM    H7G15348   5.424   4.301   7.417 -0.7183 -0.8533 -2.9499
  140OSM    C8F15349   5.375   4.499   7.467  0.0111 -0.2202  0.0533
  140OSM    H8F15350   5.358   4.601   7.427 -2.3888 -1.2269 -1.6985
  140OSM    H8G15351   5.453   4.522   7.543 -0.5721  3.7299 -0.3538
  140OSM    C9F15352   5.251   4.449   7.534 -0.0215 -0.1087  0.1566
  140OSM    H9F15353   5.154   4.472   7.486 -0.1587 -0.1389  0.4176
  140OSM   C10F15354   5.251   4.401   7.664 -0.2020  0.2858  0.5100
  140OSM   H10F15355   5.158   4.390   7.722  0.9201 -3.2370  1.8629
  140OSM   C11F15356   5.379   4.373   7.743  0.6822 -0.0413 -1.0137
  140OSM   H11F15357   5.473   4.373   7.683  0.8444  2.2028 -0.8498
  140OSM   H11G15358   5.370   4.273   7.791  0.5135  1.5420  2.5906
  140OSM   C12F15359   5.414   4.467   7.856 -0.4766  0.1996 -0.0308
  140OSM   H12F15360   5.505   4.430   7.908  0.2424  2.0677  0.1143
  140OSM   H12G15361   5.331   4.457   7.929 -0.0224 -0.7951  0.3717
  140OSM   C13F15362   5.431   4.609   7.816  0.0751  0.3154 -0.2863
  140OSM   H13F15363   5.329   4.650   7.798 -0.5851  0.1040  2.5343
  140OSM   H13G15364   5.496   4.626   7.727  1.8619  3.1331  1.3557
  140OSM   C14F15365   5.505   4.704   7.922  0.2964  0.5920  0.3880
  140OSM   H14F15366   5.440   4.710   8.012 -1.6650  0.6310 -0.9666
  140OSM   H14G15367   5.535   4.797   7.870  3.6250 -0.6822 -0.2372
  140OSM   C15F15368   5.644   4.648   7.960  0.5877 -0.1717  0.5092
  140OSM   H15F15369   5.672   4.622   7.856 -0.3707  2.6723 -0.5472
  140OSM   H15G15370   5.626   4.557   8.022 -0.5767 -1.2181 -1.2752
  140OSM   C16F15371   5.745   4.739   8.031 -0.0188  0.3765 -0.1528
  140OSM   H16F15372   5.695   4.778   8.122  1.0080  1.8127 -0.1644
  140OSM   H16G15373   5.757   4.829   7.966  0.4678  0.6238  0.2749
  140OSM   C17F15374   5.883   4.680   8.069  0.0758 -0.6486  0.8161
  140OSM   H17F15375   5.950   4.747   8.127  1.3969  0.5203 -1.8406
  140OSM   H17G15376   5.946   4.673   7.978  0.5858 -0.0914  1.1237
  140OSM   C18F15377   5.879   4.548   8.149 -0.0388  0.5635  0.1435
  140OSM   H18F15378   5.811   4.572   8.234 -1.5858 -1.4733 -0.4542
  140OSM   H18G15379   5.983   4.532   8.187 -0.5873  1.6711  2.2774
  140OSM   H18H15380   5.831   4.463   8.097 -1.3754  0.2856  1.7386
  141OSM      N15381   5.984   0.954   6.368 -0.1751 -0.4526 -0.1095
  141OSM    C1515382   5.944   0.996   6.230  0.3197  0.0732  0.3874
  141OSM   H15A15383   5.838   0.992   6.212  0.4484  0.1785 -0.4281
  141OSM   H15B15384   6.000   0.934   6.161 -0.6934  1.4624 -1.7839
  141OSM   H15C15385   5.974   1.098   6.211 -1.5019  0.3686 -1.2881
  141OSM    C1415386   6.133   0.920   6.368  0.1747  0.5453  0.8414
  141OSM   H14A15387   6.188   0.998   6.317  0.2755 -0.2725 -0.3507
  141OSM   H14B15388   6.145   0.823   6.323 -4.2284  0.1285  0.1449
  141OSM   H14C15389   6.166   0.916   6.470 -2.6102 -0.0019  1.7826
  141OSM    C1315390   5.967   1.072   6.465  0.6042  1.0732  0.2677
  141OSM   H13A15391   5.865   1.107   6.456 -0.3753 -1.5293  0.3681
  141OSM   H13B15392   6.024   1.152   6.421  0.9518 -0.6182 -2.5693
  141OSM   H13C15393   5.995   1.049   6.567 -0.7998  0.8699  0.6326
  141OSM    C1215394   5.895   0.842   6.412 -0.1730  0.2532 -0.3570
  141OSM   H12A15395   5.794   0.879   6.421 -1.1687 -1.8377 -1.8265
  141OSM   H12B15396   5.924   0.802   6.508 -1.2089 -2.2835 -1.0093
  141OSM    C1115397   5.881   0.718   6.319  0.0647  0.4218 -0.0486
  141OSM   H11A15398   5.868   0.749   6.213 -1.2611 -2.2528 -0.7510
  141OSM   H11B15399   5.787   0.667   6.348  1.0185  0.1721  2.9944
  141OSM      P15400   6.043   0.522   6.238 -0.1585  0.2606 -0.2818
  141OSM    O1315401   6.010   0.568   6.099 -0.3160  0.1232  0.4340
  141OSM    O1415402   6.184   0.491   6.271 -0.4315  0.0620 -0.1756
  141OSM    O1115403   5.957   0.394   6.280 -0.2337 -0.3892  0.2741
  141OSM    O1215404   5.998   0.631   6.345 -0.8241 -0.0547  0.1511
  141OSM    C1S15405   5.977   0.328   6.402 -0.6294 -0.1611 -0.1769
  141OSM    H1S15406   6.080   0.331   6.443 -1.6608 -1.4206  2.8289
  141OSM    H1T15407   5.967   0.219   6.389 -1.0022 -0.1534  0.0311
  141OSM     NF15408   5.903   0.310   6.635 -0.0643  0.6714  0.2258
  141OSM    HNF15409   5.851   0.227   6.651 -1.5050  1.2558 -1.1784
  141OSM    C2S15410   5.871   0.379   6.507 -0.3949 -0.0204  0.0574
  141OSM    H2S15411   5.883   0.489   6.520  0.1901 -0.0763  0.0223
  141OSM    C3S15412   5.727   0.360   6.463  0.5719 -0.6280  0.0534
  141OSM    H3S15413   5.705   0.252   6.448 -1.1802 -0.1624 -1.0597
  141OSM     O315414   5.690   0.412   6.332 -0.2589 -0.1103 -0.0640
  141OSM    HO315415   5.774   0.420   6.286 -0.7998  0.5204 -0.9842
  141OSM    C4S15416   5.641   0.409   6.578  0.4118 -0.1380 -0.0619
  141OSM    H4S15417   5.660   0.513   6.610 -0.2114  0.1976 -0.7380
  141OSM    C5S15418   5.542   0.336   6.640 -0.3763  0.1885  0.1963
  141OSM    H5S15419   5.538   0.228   6.620  0.5331 -0.2055  1.9168
  141OSM    C6S15420   5.454   0.382   6.751 -0.4409 -0.0161 -0.6734
  141OSM    H6S15421   5.460   0.292   6.816  0.3789  0.0563 -0.6422
  141OSM    H6T15422   5.351   0.403   6.715 -0.7281  0.5241  0.4083
  141OSM    C7S15423   5.517   0.500   6.841  0.0964  0.2326  0.3196
  141OSM    H7S15424   5.523   0.590   6.777  0.6900 -0.4364 -0.5931
  141OSM    H7T15425   5.621   0.472   6.870  1.4996  2.4721 -2.2112
  141OSM    C8S15426   5.434   0.544   6.963 -0.5686 -0.1619  0.3932
  141OSM    H8S15427   5.437   0.459   7.034  3.2645  0.6457  1.4826
  141OSM    H8T15428   5.334   0.584   6.939 -0.3402  0.7400  0.8707
  141OSM    C9S15429   5.512   0.644   7.051  0.2959  0.1162 -0.6873
  141OSM    H9S15430   5.515   0.746   7.007  0.9257 -0.1496 -1.2783
  141OSM    H9T15431   5.611   0.599   7.071  0.5318  0.9490  0.0801
  141OSM   C10S15432   5.449   0.673   7.184 -0.0288 -0.2072  0.3533
  141OSM   H10S15433   5.405   0.592   7.246 -4.0201  2.5155  1.4663
  141OSM   H10T15434   5.361   0.739   7.168  1.0007  1.6778  1.9673
  141OSM   C11S15435   5.545   0.749   7.274  0.5159  0.1672  1.0513
  141OSM   H11S15436   5.616   0.800   7.205 -0.0327  3.1257  2.5266
  141OSM   H11T15437   5.602   0.672   7.330  1.3633 -0.0812 -0.1002
  141OSM   C12S15438   5.475   0.856   7.358  0.8102 -0.8694  0.3846
  141OSM   H12S15439   5.427   0.934   7.296  0.6996  0.4188  2.0208
  141OSM   H12T15440   5.555   0.907   7.415  2.5311 -3.5468  0.5390
  141OSM   C13S15441   5.364   0.783   7.447 -0.0922 -0.0983  0.1034
  141OSM   H13S15442   5.413   0.698   7.498 -4.5167 -2.7266  0.4781
  141OSM   H13T15443   5.282   0.743   7.383  1.6174 -0.8126 -1.7553
  141OSM   C14S15444   5.310   0.873   7.557  0.9924  0.9763  0.2579
  141OSM   H14S15445   5.211   0.838   7.593  0.1124  2.4798 -0.5959
  141OSM   H14T15446   5.281   0.974   7.520 -1.0664  0.3571  0.0410
  141OSM   C15S15447   5.400   0.879   7.680 -0.0688 -0.3480  0.0149
  141OSM   H15S15448   5.505   0.891   7.647  0.2342  0.1292  1.0936
  141OSM   H15T15449   5.400   0.789   7.745 -0.1205 -0.9146 -0.7623
  141OSM   C16S15450   5.374   1.000   7.770  0.2211 -0.1840  0.3902
  141OSM   H16S15451   5.268   1.004   7.803  0.0876  3.8054  0.0323
  141OSM   H16T15452   5.383   1.093   7.709  2.2028 -0.9884 -0.6153
  141OSM   C17S15453   5.469   1.029   7.889  0.1602 -0.5538  0.1196
  141OSM   H17S15454   5.430   1.111   7.953 -1.7982 -2.5785  1.6869
  141OSM   H17T15455   5.557   1.063   7.831 -0.1485  0.4441  0.2099
  141OSM   C18S15456   5.504   0.915   7.982  0.5124  0.1014 -0.2762
  141OSM   H18S15457   5.554   0.954   8.074  0.4021  1.7720 -0.8906
  141OSM   H18T15458   5.575   0.843   7.936  1.7344  0.6409  0.6901
  141OSM   H18U15459   5.413   0.862   8.014  0.3087 -1.1887 -2.8034
  141OSM    C1F15460   6.002   0.341   6.718  0.4138  0.3106 -0.2493
  141OSM     OF15461   6.080   0.431   6.685 -0.1257  0.5576  0.0695
  141OSM    C2F15462   6.020   0.264   6.841 -0.9312 -0.9320 -0.2627
  141OSM    H2F15463   6.127   0.236   6.835 -0.9130 -0.5810 -3.6135
  141OSM    H2G15464   5.962   0.169   6.836 -2.6198  0.0873 -1.2182
  141OSM    C3F15465   6.000   0.347   6.971  0.6030  0.3782  0.2030
  141OSM    H3F15466   5.906   0.407   6.969  0.1256 -0.3620  0.0539
  141OSM    H3G15467   6.074   0.431   6.967 -0.5500  1.4212  0.0527
  141OSM    C4F15468   6.030   0.280   7.104  0.5579  0.1274 -0.1418
  141OSM    H4F15469   6.140   0.268   7.111  0.5840 -0.3342 -1.2073
  141OSM    H4G15470   5.978   0.183   7.114  2.3346 -1.5165 -4.4395
  141OSM    C5F15471   5.992   0.362   7.221  0.3539 -0.2091 -0.0211
  141OSM    H5F15472   5.883   0.380   7.221  0.3766 -0.0614  0.6052
  141OSM    H5G15473   6.047   0.456   7.200 -0.4439 -0.4767 -4.0043
  141OSM    C6F15474   6.039   0.307   7.360  0.4678  0.4679  0.2634
  141OSM    H6F15475   6.150   0.307   7.368  0.3652 -0.7511  2.5160
  141OSM    H6G15476   6.008   0.203   7.383  2.6194  0.1098  1.8885
  141OSM    C7F15477   5.975   0.390   7.464  0.2191 -0.3453 -0.0412
  141OSM    H7F15478   5.866   0.389   7.444  0.5706  0.2609 -2.1855
  141OSM    H7G15479   6.005   0.495   7.444  1.2720 -0.5952  0.1929
  141OSM    C8F15480   6.010   0.353   7.606 -0.0733  0.4341  0.3586
  141OSM    H8F15481   6.121   0.355   7.605 -0.0663  0.1224  0.3544
  141OSM    H8G15482   5.971   0.250   7.617  1.1527 -0.0119  0.6667
  141OSM    C9F15483   5.935   0.462   7.687  0.1067 -0.5441  0.0262
  141OSM    H9F15484   5.831   0.485   7.659 -0.8586 -1.2159  2.7278
  141OSM   C10F15485   5.975   0.527   7.799  0.9444  0.8346  0.2413
  141OSM   H10F15486   5.902   0.589   7.853  1.3054 -0.3437  2.1831
  141OSM   C11F15487   6.096   0.502   7.881 -1.0810  0.6313 -0.8427
  141OSM   H11F15488   6.146   0.598   7.905 -0.5175 -0.7384  4.7255
  141OSM   H11G15489   6.170   0.437   7.830 -2.0966 -0.9786 -0.3464
  141OSM   C12F15490   6.051   0.447   8.015  0.8395 -0.1494 -0.2726
  141OSM   H12F15491   6.011   0.344   8.002  0.9788 -0.2033 -0.2707
  141OSM   H12G15492   5.973   0.509   8.065 -3.1741 -3.2036 -2.1983
  141OSM   C13F15493   6.168   0.418   8.113 -0.3216  0.0031 -0.4681
  141OSM   H13F15494   6.197   0.511   8.165 -1.8805  1.0867 -1.4369
  141OSM   H13G15495   6.254   0.383   8.052 -0.8884  1.0649 -1.9423
  141OSM   C14F15496   6.136   0.301   8.208  0.7846 -0.1967 -0.5623
  141OSM   H14F15497   6.231   0.263   8.251  0.2973  1.3160  2.0333
  141OSM   H14G15498   6.089   0.222   8.146  1.5376  0.2565 -1.7674
  141OSM   C15F15499   6.052   0.346   8.329 -1.1135  0.1246  0.5626
  141OSM   H15F15500   5.949   0.355   8.288 -0.0585  1.4845 -2.0868
  141OSM   H15G15501   6.095   0.446   8.354  0.9818 -0.2400 -1.2623
  141OSM   C16F15502   6.055   0.253   8.444 -0.2866  0.2320 -1.1233
  141OSM   H16F15503   6.159   0.223   8.469 -0.4698  0.0896 -0.5245
  141OSM   H16G15504   5.994   0.163   8.420 -0.9940  0.0293  1.2027
  141OSM   C17F15505   5.986   0.320   8.574  0.3302  1.2147 -0.6228
  141OSM   H17F15506   5.900   0.388   8.553 -0.4493  1.2787  2.3686
  141OSM   H17G15507   6.068   0.370   8.629 -0.1417  1.1040  0.2031
  141OSM   C18F15508   5.934   0.209   8.673 -1.1550  0.4996 -0.2418
  141OSM   H18F15509   5.902   0.258   8.768 -0.1871  2.8985 -1.0613
  141OSM   H18G15510   6.010   0.129   8.688 -1.3949  0.3442  0.1449
  141OSM   H18H15511   5.848   0.151   8.635  0.2901 -1.8512 -0.1572
  142OSM      N15512   6.482   2.362   6.261  0.7087  0.4625  0.4115
  142OSM    C1515513   6.603   2.429   6.210 -0.6751 -0.4853  0.4160
  142OSM   H15A15514   6.594   2.449   6.104 -0.8768  0.5478  0.6120
  142OSM   H15B15515   6.690   2.370   6.237  0.1694 -0.1158 -1.2991
  142OSM   H15C15516   6.606   2.524   6.262  1.4394 -0.4585  0.3411
  142OSM    C1415517   6.356   2.435   6.216  0.3196  0.1128 -0.3264
  142OSM   H14A15518   6.268   2.390   6.259 -0.4048  0.4223 -1.4401
  142OSM   H14B15519   6.354   2.460   6.110 -0.4219 -2.4411 -0.9796
  142OSM   H14C15520   6.364   2.535   6.257  2.8531  0.0485 -0.5119
  142OSM    C1315521   6.473   2.228   6.200  0.1571  0.4347 -0.6022
  142OSM   H13A15522   6.566   2.175   6.212  1.3392  2.1541 -1.7468
  142OSM   H13B15523   6.454   2.232   6.094  0.5807  1.0243 -0.6616
  142OSM   H13C15524   6.402   2.167   6.254  1.4623 -1.2563 -0.7267
  142OSM    C1215525   6.487   2.352   6.411 -0.1646 -0.8842  0.2999
  142OSM   H12A15526   6.521   2.450   6.443 -0.9318 -0.2738 -0.6844
  142OSM   H12B15527   6.566   2.284   6.438  1.0047  0.2766 -0.1396
  142OSM    C1115528   6.356   2.313   6.486  1.1412 -0.2071 -0.4960
  142OSM   H11A15529   6.284   2.390   6.450  2.2453  0.8951 -0.4084
  142OSM   H11B15530   6.373   2.333   6.594 -0.2867 -2.2768  0.1757
  142OSM      P15531   6.156   2.158   6.452 -0.1165 -0.0466 -0.1256
  142OSM    O1315532   6.102   2.232   6.341  0.0792  0.0569  0.3994
  142OSM    O1415533   6.133   2.010   6.448  0.4785 -0.0888 -0.6166
  142OSM    O1115534   6.087   2.223   6.582 -0.0944 -0.1297  0.3058
  142OSM    O1215535   6.311   2.181   6.469  0.4021 -0.2379 -0.2970
  142OSM    C1S15536   6.141   2.192   6.712  0.1323  0.2213  0.2007
  142OSM    H1S15537   6.223   2.260   6.743 -1.3136  2.0394  0.2484
  142OSM    H1T15538   6.161   2.083   6.717 -0.4308  0.1250  0.4613
  142OSM     NF15539   6.088   2.186   6.946 -0.5184 -0.3370 -0.1303
  142OSM    HNF15540   6.058   2.104   6.995 -1.7248 -0.4129 -0.9452
  142OSM    C2S15541   6.025   2.217   6.822 -1.3399  0.7380 -0.3415
  142OSM    H2S15542   5.996   2.324   6.824  0.1783  1.1932 -1.1974
  142OSM    C3S15543   5.905   2.127   6.786 -0.5740  0.5069  1.0431
  142OSM    H3S15544   5.944   2.023   6.793  2.1247  1.3284 -0.4116
  142OSM     O315545   5.852   2.133   6.655 -0.3118 -0.5621 -0.1026
  142OSM    HO315546   5.922   2.186   6.616 -1.0864  0.3266 -0.2986
  142OSM    C4S15547   5.803   2.158   6.892 -0.5227  0.1871  0.1742
  142OSM    H4S15548   5.785   2.081   6.968  0.0868 -0.7971 -0.6634
  142OSM    C5S15549   5.732   2.276   6.898  0.0171  0.2216  0.4162
  142OSM    H5S15550   5.740   2.345   6.813 -0.0864 -0.4378 -0.1371
  142OSM    C6S15551   5.635   2.318   7.004  0.5307  0.4356  0.7345
  142OSM    H6S15552   5.538   2.264   6.994  0.8403  0.0677 -0.6167
  142OSM    H6T15553   5.609   2.426   7.000 -3.4631 -0.3921  0.6119
  142OSM    C7S15554   5.685   2.301   7.154  0.8836 -0.1456  1.0608
  142OSM    H7S15555   5.698   2.192   7.174 -0.3234 -0.4786  0.1576
  142OSM    H7T15556   5.607   2.345   7.219  0.4068  1.5929 -0.5946
  142OSM    C8S15557   5.816   2.373   7.190  0.0734  0.3276 -0.4096
  142OSM    H8S15558   5.798   2.483   7.189 -0.9109  0.1985  0.7919
  142OSM    H8T15559   5.887   2.353   7.107 -0.5914  2.9401 -1.7269
  142OSM    C9S15560   5.884   2.331   7.325  0.4319 -0.3056 -0.1788
  142OSM    H9S15561   5.976   2.386   7.356  0.5119  0.0718 -1.0364
  142OSM    H9T15562   5.911   2.224   7.322 -0.0034 -0.4502  0.9045
  142OSM   C10S15563   5.777   2.351   7.442  0.5088 -0.3999  0.5164
  142OSM   H10S15564   5.703   2.269   7.434  1.6789 -1.3925 -0.5355
  142OSM   H10T15565   5.724   2.448   7.431 -2.8136 -2.1489 -0.4159
  142OSM   C11S15566   5.845   2.360   7.574 -0.1791  0.7647  0.4785
  142OSM   H11S15567   5.773   2.408   7.643 -1.5423 -0.3665 -0.1151
  142OSM   H11T15568   5.934   2.427   7.564  0.6023 -0.2533  0.4133
  142OSM   C12S15569   5.898   2.220   7.618  0.0955 -0.4462 -0.5589
  142OSM   H12S15570   5.965   2.176   7.540  0.5225 -0.5093 -0.1651
  142OSM   H12T15571   5.824   2.137   7.623  1.8981 -2.1259 -0.2528
  142OSM   C13S15572   5.967   2.219   7.758 -0.0482 -0.2626  0.1353
  142OSM   H13S15573   6.077   2.239   7.762  0.1099 -1.0238  4.7365
  142OSM   H13T15574   5.974   2.111   7.783  2.2151 -0.4248 -0.9011
  142OSM   C14S15575   5.885   2.300   7.864  0.3220  0.1330 -0.3652
  142OSM   H14S15576   5.778   2.272   7.858  0.6453 -1.5999  1.1016
  142OSM   H14T15577   5.888   2.407   7.834  1.9573  0.4983  0.9515
  142OSM   C15S15578   5.935   2.275   8.012  0.6810  0.4210 -0.2061
  142OSM   H15S15579   5.844   2.287   8.076  1.6527  0.6003  1.1830
  142OSM   H15T15580   6.021   2.331   8.055  0.4509  0.1665  0.6188
  142OSM   C16S15581   5.988   2.132   8.041  0.5511 -0.0644  0.1562
  142OSM   H16S15582   6.066   2.103   7.968 -0.9768  0.1623 -1.6406
  142OSM   H16T15583   5.909   2.054   8.029  2.0628 -1.5956 -0.1132
  142OSM   C17S15584   6.037   2.137   8.184 -0.5783  0.1072  0.4082
  142OSM   H17S15585   5.952   2.162   8.251 -0.6775  1.2609 -0.1273
  142OSM   H17T15586   6.112   2.219   8.190 -1.6738  1.1018  0.9291
  142OSM   C18S15587   6.084   2.006   8.238 -0.5369 -0.1336 -0.0726
  142OSM   H18S15588   6.008   1.927   8.216  0.3732 -0.9511 -0.3731
  142OSM   H18T15589   6.089   2.008   8.349  2.5386 -0.7160 -0.1085
  142OSM   H18U15590   6.190   1.992   8.209 -0.8717  0.9190 -1.9615
  142OSM    C1F15591   6.178   2.266   6.988 -0.1962  1.0803 -0.5041
  142OSM     OF15592   6.184   2.384   6.944 -0.5087 -0.1966 -0.6973
  142OSM    C2F15593   6.268   2.219   7.105 -0.1762 -0.1441 -0.4102
  142OSM    H2F15594   6.363   2.273   7.082  0.7252 -1.0663  1.0010
  142OSM    H2G15595   6.286   2.110   7.092 -0.8116 -0.4092  0.8674
  142OSM    C3F15596   6.213   2.250   7.248 -0.3187  0.1208  0.2773
  142OSM    H3F15597   6.130   2.186   7.286 -1.3464  0.4945 -1.2277
  142OSM    H3G15598   6.168   2.351   7.243 -1.0597 -0.2534 -1.7197
  142OSM    C4F15599   6.321   2.247   7.357 -0.1638  0.5108 -0.0099
  142OSM    H4F15600   6.320   2.338   7.420 -1.6859 -0.2104  1.0623
  142OSM    H4G15601   6.414   2.248   7.295 -1.7794  1.0596 -2.6063
  142OSM    C5F15602   6.328   2.132   7.451 -0.1342  0.2613 -0.6082
  142OSM    H5F15603   6.323   2.034   7.399 -3.8154  0.2265 -0.4491
  142OSM    H5G15604   6.230   2.124   7.501 -0.6197 -1.0302 -1.7088
  142OSM    C6F15605   6.446   2.136   7.548  0.3962  0.5745 -0.3086
  142OSM    H6F15606   6.479   2.237   7.580  0.7829  0.2744  0.2788
  142OSM    H6G15607   6.532   2.088   7.497  0.6316 -0.8534  1.3116
  142OSM    C7F15608   6.423   2.038   7.667  0.9931 -0.9233 -0.5363
  142OSM    H7F15609   6.518   2.018   7.721  0.6847 -0.9234  0.0158
  142OSM    H7G15610   6.390   1.940   7.628  0.2141 -0.4173 -1.1820
  142OSM    C8F15611   6.321   2.090   7.781 -0.5833  0.2689 -0.4343
  142OSM    H8F15612   6.311   1.999   7.844 -0.2073 -0.1986 -1.0386
  142OSM    H8G15613   6.217   2.100   7.745 -1.3168  3.6327  2.0827
  142OSM    C9F15614   6.361   2.210   7.855  0.4986 -0.0853  0.3654
  142OSM    H9F15615   6.331   2.302   7.802 -0.5597 -0.7393 -0.2097
  142OSM   C10F15616   6.441   2.210   7.959  0.1555 -0.4649 -0.5032
  142OSM   H10F15617   6.444   2.301   8.020  0.2421 -1.5051  1.1195
  142OSM   C11F15618   6.500   2.085   8.017 -0.2034 -0.7419 -0.1607
  142OSM   H11F15619   6.514   2.008   7.938 -0.4388  0.5423 -1.5147
  142OSM   H11G15620   6.426   2.042   8.087 -0.0908  0.6143  0.8332
  142OSM   C12F15621   6.636   2.112   8.078  0.1228 -0.5265 -0.7559
  142OSM   H12F15622   6.643   2.197   8.148  0.6268  0.2719 -1.7346
  142OSM   H12G15623   6.700   2.163   8.003 -0.2539  1.1229 -0.0083
  142OSM   C13F15624   6.704   1.986   8.126  0.2171 -0.9960  0.3884
  142OSM   H13F15625   6.770   1.944   8.047  0.9303  0.5856  0.0995
  142OSM   H13G15626   6.621   1.913   8.137 -0.9342 -0.1886 -2.2229
  142OSM   C14F15627   6.776   2.002   8.260 -0.4768 -0.6233 -0.0405
  142OSM   H14F15628   6.710   2.057   8.330  0.6415 -0.4274  0.8968
  142OSM   H14G15629   6.863   2.071   8.248  0.8867 -2.0799  1.0581
  142OSM   C15F15630   6.829   1.870   8.322 -0.0916  0.5752 -0.4906
  142OSM   H15F15631   6.874   1.818   8.235  0.9596 -0.9313  0.9036
  142OSM   H15G15632   6.746   1.815   8.372 -2.1629  1.2235 -2.9819
  142OSM   C16F15633   6.927   1.912   8.432 -0.2286  0.1837 -0.0661
  142OSM   H16F15634   6.870   1.970   8.508  0.2299  2.1215 -1.1403
  142OSM   H16G15635   6.999   1.975   8.376  0.4292 -1.2027 -0.8381
  142OSM   C17F15636   6.999   1.793   8.496  0.7795  0.4523 -0.7873
  142OSM   H17F15637   7.055   1.725   8.428  1.5172 -0.5423  0.7717
  142OSM   H17G15638   6.922   1.728   8.542  0.1263  1.4003 -0.5247
  142OSM   C18F15639   7.099   1.830   8.604  0.5021  0.1182 -0.0886
  142OSM   H18F15640   7.196   1.871   8.567  0.8594 -2.2414 -2.0990
  142OSM   H18G15641   7.133   1.738   8.656  0.1838  0.4368  0.6970
  142OSM   H18H15642   7.062   1.905   8.676  0.9754  0.2023  0.0701
  143OSM      N15643   0.343   3.538   6.132 -0.4051  0.0194  0.0814
  143OSM    C1515644   0.260   3.472   6.029  0.4693  0.2531  0.1059
  143OSM   H15A15645   0.246   3.368   6.056  2.6073 -0.1297 -0.0686
  143OSM   H15B15646   0.306   3.488   5.932  0.5450  1.2509  0.3003
  143OSM   H15C15647   0.163   3.519   6.030 -0.8031 -2.1099 -1.4291
  143OSM    C1415648   0.469   3.452   6.152 -0.3360 -0.5859 -0.2033
  143OSM   H14A15649   0.540   3.465   6.072  1.6030 -0.1283  1.5199
  143OSM   H14B15650   0.452   3.347   6.172  0.8695 -0.5920  0.9504
  143OSM   H14C15651   0.531   3.488   6.232 -1.9767  4.9705 -1.0347
  143OSM    C1315652   0.377   3.678   6.083 -0.0841 -0.9127  0.2149
  143OSM   H13A15653   0.391   3.685   5.976 -1.2221  1.0252  0.1536
  143OSM   H13B15654   0.457   3.721   6.141 -0.1158  0.1001 -0.4731
  143OSM   H13C15655   0.293   3.745   6.094 -0.4301 -0.4780 -3.6264
  143OSM    C1215656   0.277   3.530   6.272  0.5618 -0.1814 -0.3481
  143OSM   H12A15657   0.349   3.538   6.351  0.1111 -1.7982  0.2681
  143OSM   H12B15658   0.246   3.426   6.277  2.6727 -0.9990 -2.2858
  143OSM    C1115659   0.155   3.621   6.297 -0.2279  0.8561  0.1924
  143OSM   H11A15660   0.186   3.725   6.269  2.1500  0.2240  0.2518
  143OSM   H11B15661   0.132   3.633   6.404 -0.6258  1.3510  0.0548
  143OSM      P15662  -0.041   3.462   6.255 -0.2288 -0.4211  0.2499
  143OSM    O1315663  -0.151   3.466   6.155  0.1839  0.1302 -0.2661
  143OSM    O1415664   0.049   3.345   6.259  0.1071 -0.3580 -0.0764
  143OSM    O1115665  -0.088   3.494   6.402 -0.3884 -0.0106  0.6499
  143OSM    O1215666   0.045   3.588   6.221  0.2258 -0.0682 -0.2464
  143OSM    C1S15667  -0.163   3.619   6.418 -0.4970  0.3769  0.1357
  143OSM    H1S15668  -0.268   3.614   6.383 -1.0469  3.6907  0.9380
  143OSM    H1T15669  -0.116   3.705   6.366  1.8253 -0.2129  1.1413
  143OSM     NF15670  -0.286   3.752   6.602  0.6353 -0.6321  0.3143
  143OSM    HNF15671  -0.250   3.843   6.621 -0.5294 -0.0361 -0.2281
  143OSM    C2S15672  -0.182   3.646   6.573  0.2146  0.1751  0.8134
  143OSM    H2S15673  -0.220   3.549   6.610 -2.0637  0.3965 -0.7464
  143OSM    C3S15674  -0.057   3.677   6.644 -0.4159  0.3437 -1.0417
  143OSM    H3S15675  -0.005   3.766   6.602  0.2493  0.7091  0.5061
  143OSM     O315676   0.038   3.572   6.633 -0.2951 -0.0833 -0.1368
  143OSM    HO315677   0.018   3.532   6.548  0.6179  0.8071 -0.8023
  143OSM    C4S15678  -0.079   3.695   6.789 -0.3139 -0.0712 -0.5652
  143OSM    H4S15679  -0.114   3.604   6.840 -0.2648  0.6505  0.7940
  143OSM    C5S15680  -0.059   3.809   6.852 -0.9257  0.4663 -0.8478
  143OSM    H5S15681  -0.052   3.903   6.795 -0.1462  0.8131 -0.2006
  143OSM    C6S15682  -0.074   3.836   7.001  0.3641  0.2856 -0.4392
  143OSM    H6S15683  -0.153   3.909   7.030 -0.1913 -1.3326  2.4957
  143OSM    H6T15684   0.029   3.862   7.033 -0.2835 -1.2040  3.3981
  143OSM    C7S15685  -0.094   3.710   7.087  0.9451  0.0754  0.1200
  143OSM    H7S15686  -0.005   3.643   7.090  0.4509 -0.6096 -0.2788
  143OSM    H7T15687  -0.181   3.652   7.050 -1.6644  1.9346  2.8330
  143OSM    C8S15688  -0.128   3.747   7.234  0.2941 -0.4344  0.8355
  143OSM    H8S15689  -0.158   3.654   7.287 -0.5805  0.2968  1.6504
  143OSM    H8T15690  -0.213   3.818   7.234  0.6798  0.0283  1.2693
  143OSM    C9S15691  -0.006   3.806   7.310  0.1132 -0.0366  0.4569
  143OSM    H9S15692   0.037   3.890   7.252  0.5427 -0.1512  0.6065
  143OSM    H9T15693   0.059   3.716   7.314 -2.0892 -1.6789  1.0803
  143OSM   C10S15694  -0.046   3.836   7.449  0.1992 -1.0139  0.3572
  143OSM   H10S15695  -0.089   3.744   7.494 -0.5593  0.8691  3.8205
  143OSM   H10T15696  -0.119   3.919   7.446  0.5810 -0.7102 -1.4931
  143OSM   C11S15697   0.072   3.875   7.549  0.1871 -0.6365  0.1684
  143OSM   H11S15698   0.120   3.775   7.562 -0.5655 -1.4321 -2.5135
  143OSM   H11T15699   0.017   3.910   7.639 -1.7342  0.4378 -1.3409
  143OSM   C12S15700   0.172   3.986   7.499  0.2980  0.8102  0.2401
  143OSM   H12S15701   0.110   4.077   7.489  0.4065  1.2852  3.0929
  143OSM   H12T15702   0.215   3.958   7.400  0.1098 -0.5103  0.5168
  143OSM   C13S15703   0.295   3.997   7.589 -0.1492 -0.7238  0.1290
  143OSM   H13S15704   0.344   3.897   7.582 -0.1362 -0.6248 -1.8380
  143OSM   H13T15705   0.258   4.023   7.690 -0.3051  0.1360 -0.1409
  143OSM   C14S15706   0.393   4.098   7.536 -0.3955 -0.3640  0.6643
  143OSM   H14S15707   0.331   4.190   7.538 -0.2829 -0.2879  3.3364
  143OSM   H14T15708   0.433   4.083   7.433 -0.1170  1.0914  0.5419
  143OSM   C15S15709   0.513   4.122   7.629  0.7659  0.0736 -1.4175
  143OSM   H15S15710   0.585   4.194   7.586  2.6860 -1.1122 -0.3168
  143OSM   H15T15711   0.569   4.026   7.629  0.1032 -0.3199 -0.5804
  143OSM   C16S15712   0.476   4.169   7.771  0.2476 -0.3109 -1.1365
  143OSM   H16S15713   0.569   4.184   7.831 -0.4505 -1.2831  0.2488
  143OSM   H16T15714   0.417   4.091   7.825  2.2886 -3.3783 -3.0421
  143OSM   C17S15715   0.390   4.301   7.768 -0.0054 -0.3990  0.4035
  143OSM   H17S15716   0.297   4.305   7.706 -0.1081  3.6030  0.5840
  143OSM   H17T15717   0.465   4.376   7.736 -0.9082  0.0754 -0.6803
  143OSM   C18S15718   0.340   4.346   7.908 -0.4310  0.5851 -0.0449
  143OSM   H18S15719   0.272   4.434   7.903 -2.4345 -0.7966  1.1886
  143OSM   H18T15720   0.429   4.378   7.966  0.8644 -0.6027 -1.2854
  143OSM   H18U15721   0.286   4.265   7.962  1.6942 -1.8633 -1.3543
  143OSM    C1F15722  -0.416   3.726   6.593 -0.2991 -0.9113  0.9504
  143OSM     OF15723  -0.453   3.615   6.569 -0.6944 -0.1769  0.0162
  143OSM    C2F15724  -0.500   3.843   6.588 -0.5152 -0.0004  0.5166
  143OSM    H2F15725  -0.532   3.860   6.483  1.2886 -0.2516 -0.1057
  143OSM    H2G15726  -0.444   3.937   6.606 -0.5032  0.2118 -0.5696
  143OSM    C3F15727  -0.606   3.844   6.707 -0.2829 -0.0409  1.0219
  143OSM    H3F15728  -0.678   3.763   6.684  2.3971 -2.1761 -0.5496
  143OSM    H3G15729  -0.645   3.948   6.697  2.6590  1.0923  0.1339
  143OSM    C4F15730  -0.549   3.833   6.852 -0.1690  0.4873 -0.3184
  143OSM    H4F15731  -0.457   3.895   6.847  0.7343 -0.7927 -0.0394
  143OSM    H4G15732  -0.500   3.735   6.864 -0.9908  0.1286  0.1826
  143OSM    C5F15733  -0.647   3.873   6.964 -0.3544  0.5125 -0.3297
  143OSM    H5F15734  -0.669   3.982   6.953  1.9825  1.3135  1.9176
  143OSM    H5G15735  -0.587   3.881   7.058 -0.9486  2.1346 -0.0511
  143OSM    C6F15736  -0.771   3.777   6.972  0.1316 -0.3837 -0.1954
  143OSM    H6F15737  -0.735   3.672   6.973 -0.7580 -0.7008 -0.3386
  143OSM    H6G15738  -0.822   3.788   6.874 -2.4208 -2.0590  0.8061
  143OSM    C7F15739  -0.863   3.807   7.097  0.1503  0.1125 -0.8786
  143OSM    H7F15740  -0.903   3.909   7.081 -1.3985 -0.3418 -0.0974
  143OSM    H7G15741  -0.803   3.825   7.189  0.0647  1.5596 -1.0801
  143OSM    C8F15742  -0.991   3.723   7.124  0.1584  0.3523  0.3273
  143OSM    H8F15743  -1.054   3.738   7.033 -0.4485 -1.5578  0.4049
  143OSM    H8G15744  -1.046   3.770   7.209 -0.4149 -0.6740  0.5440
  143OSM    C9F15745  -0.965   3.583   7.158 -0.4072  0.1236  0.9027
  143OSM    H9F15746  -0.945   3.512   7.076  1.0504  0.4394  0.9527
  143OSM   C10F15747  -0.930   3.534   7.276  0.8853  0.9205  0.0156
  143OSM   H10F15748  -0.891   3.432   7.281 -2.1899 -0.4458 -1.2642
  143OSM   C11F15749  -0.921   3.622   7.397  0.2637 -0.3983  0.5593
  143OSM   H11F15750  -0.985   3.595   7.484 -0.1499  0.2884  0.4731
  143OSM   H11G15751  -0.948   3.726   7.371  0.6586 -0.5351 -0.4120
  143OSM   C12F15752  -0.777   3.627   7.460  0.3613  0.6606  0.2824
  143OSM   H12F15753  -0.725   3.535   7.426 -0.0286 -0.2192  1.9366
  143OSM   H12G15754  -0.781   3.633   7.571  1.2723  1.4706  0.2874
  143OSM   C13F15755  -0.683   3.735   7.408 -0.9732 -0.7731  0.0094
  143OSM   H13F15756  -0.724   3.836   7.429  2.2324  0.6910 -0.2677
  143OSM   H13G15757  -0.688   3.733   7.297  1.0676  1.3630 -0.1938
  143OSM   C14F15758  -0.541   3.739   7.468 -0.5769 -0.0131  0.9122
  143OSM   H14F15759  -0.485   3.829   7.435 -1.3063  0.2090  0.2519
  143OSM   H14G15760  -0.493   3.646   7.433  0.6628  1.3105 -1.1299
  143OSM   C15F15761  -0.525   3.745   7.625 -0.1535 -0.0934  0.3342
  143OSM   H15F15762  -0.603   3.674   7.658 -0.4738  0.2362  0.2872
  143OSM   H15G15763  -0.541   3.851   7.652  0.3215  0.0317  0.1440
  143OSM   C16F15764  -0.389   3.685   7.671 -0.3027  0.2557 -0.1408
  143OSM   H16F15765  -0.306   3.720   7.606  0.9218 -0.0341  1.2353
  143OSM   H16G15766  -0.403   3.576   7.660  3.3912 -0.4227  0.6728
  143OSM   C17F15767  -0.350   3.724   7.820  0.9766  0.2993 -0.0361
  143OSM   H17F15768  -0.440   3.707   7.882  0.3359  0.3752 -0.9280
  143OSM   H17G15769  -0.321   3.831   7.822 -0.8135  0.8794 -1.8122
  143OSM   C18F15770  -0.228   3.652   7.870  0.0357 -0.0533  0.1290
  143OSM   H18F15771  -0.227   3.652   7.981 -1.6394 -3.0045  0.2735
  143OSM   H18G15772  -0.145   3.712   7.829  1.7334 -0.9343  2.0980
  143OSM   H18H15773  -0.219   3.546   7.838  1.6549 -0.8146  2.8198
  144OSM      N15774   5.464   3.334   5.921  0.3621 -0.0725  0.4834
  144OSM    C1515775   5.438   3.192   5.901 -0.2717 -0.4340  0.2756
  144OSM   H15A15776   5.528   3.137   5.878 -0.1630 -1.2487  2.3706
  144OSM   H15B15777   5.365   3.171   5.825  0.8778  0.4027 -1.1002
  144OSM   H15C15778   5.391   3.140   5.983 -1.1733 -0.3685 -0.1891
  144OSM    C1415779   5.544   3.342   6.043 -0.0733  0.2969 -0.0982
  144OSM   H14A15780   5.539   3.437   6.094 -1.1452 -0.2099  0.7730
  144OSM   H14B15781   5.645   3.315   6.016 -1.2263 -2.7513 -1.9176
  144OSM   H14C15782   5.498   3.268   6.107 -1.3383  0.4522 -0.7878
  144OSM    C1315783   5.538   3.383   5.799  0.0008 -0.9156 -0.3084
  144OSM   H13A15784   5.621   3.315   5.784  1.2236  0.1899  1.1347
  144OSM   H13B15785   5.577   3.483   5.805  2.5099 -1.6935 -2.1307
  144OSM   H13C15786   5.474   3.374   5.712 -0.9129  2.4230 -0.0983
  144OSM    C1215787   5.329   3.400   5.929  0.2390 -0.2466 -0.2587
  144OSM   H12A15788   5.280   3.395   5.833 -1.4854 -2.7094  0.6514
  144OSM   H12B15789   5.350   3.503   5.952  2.6024 -0.2307 -2.0881
  144OSM    C1115790   5.229   3.354   6.033  0.6089  0.4680 -0.4796
  144OSM   H11A15791   5.168   3.275   5.985  1.4401 -1.6335  1.7365
  144OSM   H11B15792   5.156   3.437   6.043 -0.2661 -0.4769  1.3538
  144OSM      P15793   5.181   3.239   6.252  0.1803 -0.0640  0.2732
  144OSM    O1315794   5.069   3.332   6.269  0.4931  0.0561 -0.2444
  144OSM    O1415795   5.156   3.104   6.190 -0.4533  0.3806  0.0211
  144OSM    O1115796   5.261   3.229   6.388  0.0661  1.0124 -0.3316
  144OSM    O1215797   5.274   3.317   6.162 -0.1213  0.4509 -0.0260
  144OSM    C1S15798   5.409   3.213   6.376  0.2433  0.0520  0.1876
  144OSM    H1S15799   5.453   3.290   6.308 -0.1817  0.0121 -0.1346
  144OSM    H1T15800   5.426   3.118   6.322 -2.6881 -1.4929  1.7804
  144OSM     NF15801   5.620   3.214   6.491  0.2964 -0.0981 -0.8033
  144OSM    HNF15802   5.660   3.125   6.512 -0.0459 -0.4927 -1.7821
  144OSM    C2S15803   5.477   3.226   6.514 -0.2658  0.1098  1.0068
  144OSM    H2S15804   5.458   3.324   6.563  1.3507  0.4881  0.9351
  144OSM    C3S15805   5.426   3.118   6.615  0.5884  0.9497  0.6211
  144OSM    H3S15806   5.456   3.018   6.576 -1.1790  0.5579  0.1554
  144OSM     O315807   5.286   3.111   6.634  0.7247  0.0635 -0.2207
  144OSM    HO315808   5.255   3.160   6.558  1.4120 -1.1031 -1.2871
  144OSM    C4S15809   5.495   3.132   6.746 -0.2620 -0.4100 -0.0767
  144OSM    H4S15810   5.577   3.062   6.767  2.4394  1.9068 -2.0798
  144OSM    C5S15811   5.474   3.221   6.849  0.0118 -0.0154 -0.0954
  144OSM    H5S15812   5.398   3.301   6.850  1.2011  1.1824 -1.2187
  144OSM    C6S15813   5.563   3.222   6.972 -0.1276  0.1668 -0.7355
  144OSM    H6S15814   5.646   3.296   6.973  1.2785 -1.3586 -0.3831
  144OSM    H6T15815   5.607   3.123   6.995  0.1838  0.3605 -0.4809
  144OSM    C7S15816   5.472   3.242   7.094 -0.5430  0.2055 -0.5697
  144OSM    H7S15817   5.400   3.158   7.101  1.2525 -1.2631  1.6404
  144OSM    H7T15818   5.418   3.338   7.087  0.6968  0.9168 -0.6938
  144OSM    C8S15819   5.552   3.248   7.226  0.1194 -0.3657 -1.3793
  144OSM    H8S15820   5.589   3.351   7.239 -0.3402 -0.4623  1.0824
  144OSM    H8T15821   5.641   3.182   7.220  0.2003 -0.2828 -1.0815
  144OSM    C9S15822   5.459   3.197   7.345 -0.5602  0.1764  0.0920
  144OSM    H9S15823   5.427   3.095   7.314  0.6467  0.1447 -1.1356
  144OSM    H9T15824   5.379   3.269   7.373  0.1320  1.6088 -1.4422
  144OSM   C10S15825   5.535   3.178   7.480  0.2429 -0.5617  0.1731
  144OSM   H10S15826   5.600   3.089   7.474  1.9157  0.5435  1.0966
  144OSM   H10T15827   5.473   3.159   7.571 -1.0376 -0.1313 -0.5726
  144OSM   C11S15828   5.623   3.300   7.531 -0.3657 -0.3626  0.3403
  144OSM   H11S15829   5.562   3.393   7.535  0.3952  0.0932  2.3887
  144OSM   H11T15830   5.701   3.307   7.452 -0.4769 -0.7626  0.1891
  144OSM   C12S15831   5.685   3.274   7.665  0.3035 -0.0231  0.0469
  144OSM   H12S15832   5.757   3.189   7.662  2.0061  1.3400  0.7980
  144OSM   H12T15833   5.611   3.235   7.738 -2.5678  2.7627 -1.1628
  144OSM   C13S15834   5.754   3.401   7.734  0.5269  0.3177  0.0206
  144OSM   H13S15835   5.693   3.494   7.726  1.9118  1.1215 -1.6940
  144OSM   H13T15836   5.851   3.411   7.682  2.2948  0.2829  3.0513
  144OSM   C14S15837   5.782   3.369   7.888  0.5193  0.2574  0.1411
  144OSM   H14S15838   5.855   3.285   7.897  0.8416  0.4393 -0.6687
  144OSM   H14T15839   5.692   3.334   7.942  0.6726 -1.7572 -0.8396
  144OSM   C15S15840   5.835   3.499   7.957 -0.9528 -0.2966  0.3175
  144OSM   H15S15841   5.869   3.470   8.058  2.0199  1.0888 -0.1872
  144OSM   H15T15842   5.752   3.573   7.971  0.5326  0.8771  3.8829
  144OSM   C16S15843   5.971   3.553   7.892  0.0151  0.2676 -0.4304
  144OSM   H16S15844   5.956   3.577   7.784 -3.1506  0.1975 -0.0920
  144OSM   H16T15845   6.045   3.472   7.910  1.3966  1.6329  0.3264
  144OSM   C17S15846   6.021   3.678   7.957 -0.3852 -0.2348 -0.4852
  144OSM   H17S15847   5.955   3.766   7.937 -1.2694 -1.0082 -1.0385
  144OSM   H17T15848   6.122   3.706   7.919 -0.2732  2.4797  1.4669
  144OSM   C18S15849   6.036   3.666   8.118  0.1797  0.7742  0.5297
  144OSM   H18S15850   6.087   3.759   8.152  2.7970 -0.6360  0.7567
  144OSM   H18T15851   6.106   3.585   8.147 -1.0036 -0.2751  0.4922
  144OSM   H18U15852   5.941   3.657   8.174 -0.5650  2.7284 -0.3168
  144OSM    C1F15853   5.685   3.309   6.422  0.2157  0.6061  0.2545
  144OSM     OF15854   5.624   3.413   6.389 -0.0856  0.4822  0.1195
  144OSM    C2F15855   5.831   3.286   6.380 -0.6485  0.3654 -0.2115
  144OSM    H2F15856   5.851   3.330   6.280  0.9422  0.4649  0.1241
  144OSM    H2G15857   5.857   3.178   6.381  1.0940  0.7332 -1.8370
  144OSM    C3F15858   5.928   3.367   6.475 -0.2751 -0.2034  0.2828
  144OSM    H3F15859   5.912   3.477   6.474  0.7661 -0.0344 -0.1170
  144OSM    H3G15860   6.037   3.362   6.450  0.1546  1.1667  1.7136
  144OSM    C4F15861   5.930   3.328   6.621  0.5591  0.5716  1.2419
  144OSM    H4F15862   5.826   3.307   6.654  0.4116 -1.8585 -0.4938
  144OSM    H4G15863   5.967   3.412   6.683  2.0386  0.5190  0.4851
  144OSM    C5F15864   6.014   3.202   6.648 -0.5118  0.5439  0.0800
  144OSM    H5F15865   6.113   3.238   6.613 -1.0352  2.4525  0.4323
  144OSM    H5G15866   5.975   3.126   6.577  1.3734 -0.3752 -0.0451
  144OSM    C6F15867   6.010   3.155   6.795 -0.0528  0.3155  0.4930
  144OSM    H6F15868   6.088   3.078   6.814 -1.0553 -0.8274  0.0977
  144OSM    H6G15869   5.914   3.100   6.809 -0.7727  1.0571 -1.2847
  144OSM    C7F15870   6.034   3.250   6.906  0.7155 -0.4746  0.4223
  144OSM    H7F15871   5.942   3.309   6.928  0.6001 -1.3627  2.5562
  144OSM    H7G15872   6.113   3.318   6.868 -0.4187 -0.7289 -2.6661
  144OSM    C8F15873   6.083   3.182   7.038 -0.2006 -0.0122  0.1734
  144OSM    H8F15874   6.164   3.107   7.028 -1.2666 -1.5039  2.0592
  144OSM    H8G15875   6.006   3.105   7.057  0.5779 -1.3737 -1.8680
  144OSM    C9F15876   6.112   3.271   7.156 -0.5633 -0.2019 -0.5386
  144OSM    H9F15877   6.182   3.352   7.131  0.9002 -0.5756  2.0531
  144OSM   C10F15878   6.076   3.254   7.287  0.3231  0.6058  0.4942
  144OSM   H10F15879   6.103   3.332   7.360  1.5940 -0.2154  0.9513
  144OSM   C11F15880   5.996   3.136   7.343  0.3609 -0.0749 -0.2710
  144OSM   H11F15881   5.997   3.057   7.264 -2.0566 -0.1158 -0.3436
  144OSM   H11G15882   5.889   3.163   7.351  0.0081 -1.3573 -0.4567
  144OSM   C12F15883   6.052   3.056   7.461  0.0711 -0.4209  1.2149
  144OSM   H12F15884   6.128   2.989   7.415 -3.1515 -2.9718 -0.8258
  144OSM   H12G15885   5.971   2.995   7.505  0.2186 -1.4747  0.0947
  144OSM   C13F15886   6.115   3.145   7.571  0.6559  0.1427 -0.1092
  144OSM   H13F15887   6.039   3.218   7.608  1.2655 -0.6062  2.8954
  144OSM   H13G15888   6.185   3.206   7.511  0.6140 -0.2650 -0.5805
  144OSM   C14F15889   6.185   3.063   7.680  0.0683  0.3618  0.3779
  144OSM   H14F15890   6.265   3.000   7.636 -1.0776 -1.4190  0.7568
  144OSM   H14G15891   6.105   2.993   7.714 -1.2531  0.2458 -2.6929
  144OSM   C15F15892   6.234   3.156   7.793 -0.4835  0.4858 -0.1498
  144OSM   H15F15893   6.165   3.233   7.835  1.5621  2.2285  0.1493
  144OSM   H15G15894   6.320   3.216   7.757  0.0397  0.3569  0.8386
  144OSM   C16F15895   6.281   3.070   7.908 -0.1504 -0.4687  0.3642
  144OSM   H16F15896   6.336   3.147   7.967  0.3207  1.1538 -2.0826
  144OSM   H16G15897   6.353   2.995   7.868  1.0394  1.3570 -1.0662
  144OSM   C17F15898   6.172   3.034   8.010 -0.3059 -0.2166  0.2267
  144OSM   H17F15899   6.215   2.967   8.087 -1.3403  1.1696  2.0746
  144OSM   H17G15900   6.095   2.973   7.958  1.0274 -1.0983 -0.7922
  144OSM   C18F15901   6.123   3.156   8.095 -0.0107 -0.1470  0.0887
  144OSM   H18F15902   6.058   3.115   8.175 -2.0332  1.4698 -0.6392
  144OSM   H18G15903   6.066   3.225   8.028 -0.5315  0.0735  0.7512
  144OSM   H18H15904   6.207   3.208   8.146 -0.0254 -0.6609  0.6474
  145SAPE     N15905   5.426   5.034  10.653 -0.1559  0.0844  0.1301
  145SAPE   HN115906   5.423   5.118  10.715  1.7403  1.1109 -1.0649
  145SAPE   HN215907   5.527   5.013  10.643 -0.0867 -0.3866  1.4823
  145SAPE   HN315908   5.397   5.064  10.558  2.1844  0.4711 -0.5081
  145SAPE   C1215909   5.329   4.917  10.699  0.0155  0.4278  0.2747
  145SAPE  H12A15910   5.228   4.963  10.694 -1.4315 -2.4520  0.8763
  145SAPE  H12B15911   5.353   4.913  10.807  2.0522  0.5303 -0.1350
  145SAPE   C1115912   5.350   4.786  10.619  0.8174 -0.2445 -0.4541
  145SAPE  H11A15913   5.308   4.795  10.516 -4.1453 -0.2316  1.2940
  145SAPE  H11B15914   5.291   4.705  10.666 -0.1987  0.2215 -0.8965
  145SAPE     P15915   5.534   4.593  10.627  0.1973 -0.0083  0.2123
  145SAPE   O1315916   5.659   4.560  10.706 -0.0822  0.6252  0.1862
  145SAPE   O1415917   5.415   4.515  10.659  0.1613 -0.0470 -0.6523
  145SAPE   O1215918   5.490   4.742  10.628 -0.2668 -1.5025  0.2369
  145SAPE   O1115919   5.566   4.576  10.472 -0.1838 -0.0881  0.3004
  145SAPE    C115920   5.647   4.687  10.419  0.3872 -0.3125  0.2230
  145SAPE    HA15921   5.697   4.752  10.494 -1.2476  0.8096  0.3744
  145SAPE    HB15922   5.724   4.651  10.346 -2.2551 -1.7536 -2.0398
  145SAPE    C215923   5.569   4.779  10.333 -0.8004 -0.0453  0.0252
  145SAPE    HS15924   5.487   4.824  10.393 -0.4991 -0.5452  0.8237
  145SAPE   O2115925   5.526   4.705  10.213 -0.3412  0.1506 -0.7585
  145SAPE   C2115926   5.399   4.678  10.210 -0.1588  0.7103 -0.1085
  145SAPE   O2215927   5.311   4.717  10.289  0.1160  0.2232 -0.1079
  145SAPE   C2215928   5.374   4.609  10.076 -0.7541  0.5705 -0.3120
  145SAPE   H2R15929   5.378   4.687   9.998  1.5091  0.0834 -0.7415
  145SAPE   H2S15930   5.461   4.551  10.040 -2.5496 -2.0228 -0.7842
  145SAPE    C315931   5.646   4.900  10.285 -0.1354  0.1166 -0.3880
  145SAPE    HX15932   5.726   4.858  10.221 -0.9565 -0.2714 -1.1821
  145SAPE    HY15933   5.685   4.958  10.372 -0.2223  0.9610 -0.9025
  145SAPE   O3115934   5.568   4.972  10.194 -0.0490  0.2661 -0.2346
  145SAPE   C3115935   5.495   5.070  10.260  0.1217  0.9187  0.0050
  145SAPE   O3215936   5.487   5.076  10.379  0.3917 -0.6144 -0.4975
  145SAPE   C3215937   5.433   5.153  10.156 -0.3961 -0.2955 -0.0485
  145SAPE   H2X15938   5.489   5.147  10.060 -1.2453  0.7666 -0.6402
  145SAPE   H2Y15939   5.420   5.258  10.190 -2.4791 -0.4349 -0.2893
  145SAPE   C2315940   5.260   4.506  10.061  0.3021 -0.7969 -0.0978
  145SAPE   H3R15941   5.162   4.553  10.085 -0.3216 -1.9259 -0.3351
  145SAPE   H3S15942   5.275   4.429  10.139 -1.8200 -2.3825 -1.1496
  145SAPE   C2415943   5.232   4.434   9.923 -0.2365  0.3244 -0.2163
  145SAPE   H4R15944   5.204   4.513   9.850 -1.1427  0.3739  0.1755
  145SAPE   H4S15945   5.139   4.378   9.945  0.1651 -0.3188 -0.1426
  145SAPE   C2515946   5.335   4.346   9.857 -0.6957 -0.6992 -0.6296
  145SAPE   H5R15947   5.378   4.263   9.915  0.9889 -0.1861 -1.1016
  145SAPE   C2615948   5.384   4.361   9.733  0.7107 -0.0269 -0.8808
  145SAPE   H6R15949   5.453   4.287   9.690 -0.6305 -0.6087 -2.1250
  145SAPE   C2715950   5.330   4.459   9.633  0.2612  0.3281 -0.1228
  145SAPE   H7R15951   5.408   4.463   9.555 -0.8680 -1.2042 -1.3960
  145SAPE   H7S15952   5.318   4.556   9.687 -0.5697  0.4991 -0.5937
  145SAPE   C2815953   5.201   4.405   9.577  0.5740  0.1471 -0.3057
  145SAPE   H8R15954   5.162   4.317   9.631 -2.9214  1.7199 -0.0040
  145SAPE   C2915955   5.134   4.449   9.469  1.0190 -0.9994 -0.3009
  145SAPE   H9R15956   5.045   4.397   9.430  0.9898  0.9347 -3.1158
  145SAPE  C21015957   5.184   4.564   9.387 -0.4910  0.2219 -0.1366
  145SAPE  H10R15958   5.233   4.632   9.460  1.7732 -0.7850 -0.6238
  145SAPE  H10S15959   5.095   4.620   9.351 -0.3839 -0.2543 -1.1847
  145SAPE  C21115960   5.286   4.513   9.278 -0.8101  0.2743 -0.5894
  145SAPE  H11R15961   5.391   4.528   9.309 -0.7771  0.3442 -0.7345
  145SAPE  C21215962   5.253   4.487   9.149 -1.0012  0.2575 -0.2950
  145SAPE  H12R15963   5.334   4.462   9.080 -1.5700  1.3582 -1.3878
  145SAPE  C21315964   5.120   4.489   9.088 -0.2019 -0.0984 -0.3468
  145SAPE  H13R15965   5.039   4.447   9.151 -1.4261 -0.4429 -2.0785
  145SAPE  H13S15966   5.110   4.413   9.008  0.2219  0.0225 -0.5184
  145SAPE  C21415967   5.070   4.618   9.030  0.0869  0.1242 -0.1046
  145SAPE  H14R15968   4.994   4.679   9.081  0.1695  0.1907 -0.0605
  145SAPE  C21515969   5.130   4.672   8.922  0.2976 -0.2987  0.3384
  145SAPE  H15R15970   5.088   4.763   8.877  0.0504 -0.9109 -0.6958
  145SAPE  C21615971   5.253   4.623   8.846  0.6995  0.0199  0.5581
  145SAPE  H16R15972   5.222   4.587   8.746  0.9931  0.8724  0.1587
  145SAPE  H16S15973   5.301   4.533   8.889 -1.1694 -1.9184 -1.1751
  145SAPE  C21715974   5.358   4.731   8.806 -0.6792  0.2425  0.2151
  145SAPE  H17R15975   5.451   4.691   8.761  0.3569  0.9859  1.6194
  145SAPE  H17S15976   5.392   4.770   8.904 -3.1577  1.4376  0.6648
  145SAPE  C21815977   5.312   4.858   8.732  0.1364 -0.1186  0.0263
  145SAPE  H18R15978   5.215   4.891   8.774  0.4399 -2.1574  2.6029
  145SAPE  H18S15979   5.288   4.843   8.624 -0.9939  2.4244 -0.1430
  145SAPE  C21915980   5.414   4.971   8.742  0.2072  0.7035 -0.4111
  145SAPE  H19R15981   5.438   4.982   8.850 -0.9267 -1.8778  0.1971
  145SAPE  H19S15982   5.367   5.066   8.711 -0.4798  1.0626  1.5501
  145SAPE  C22015983   5.543   4.958   8.661  0.8241  0.3082 -0.1168
  145SAPE  H20R15984   5.601   5.041   8.708 -0.9484  0.9851  0.9705
  145SAPE  H20S15985   5.520   4.973   8.553  2.8245 -0.7079 -0.7325
  145SAPE  H20T15986   5.599   4.862   8.660  0.6499  0.2029 -1.0548
  145SAPE   C3315987   5.290   5.112  10.133  0.0032 -0.0496 -0.1831
  145SAPE   H3X15988   5.239   5.186  10.068  1.2858  0.9890 -0.0431
  145SAPE   H3Y15989   5.233   5.115  10.229 -3.2269 -1.6171 -1.8887
  145SAPE   C3415990   5.270   4.975  10.069 -0.2282  0.0406 -0.1560
  145SAPE   H4X15991   5.173   4.924  10.089 -0.4751 -0.0278 -1.4404
  145SAPE   H4Y15992   5.351   4.904  10.095  0.2092 -0.5108 -2.7884
  145SAPE   C3515993   5.268   4.991   9.918 -0.2355 -0.2735  0.0394
  145SAPE   H5X15994   5.370   4.967   9.881  0.5299  3.2949 -0.4998
  145SAPE   H5Y15995   5.237   5.090   9.879 -2.0436 -0.0332  1.8982
  145SAPE   C3615996   5.164   4.888   9.860 -0.8008 -0.4102 -0.6323
  145SAPE   H6X15997   5.069   4.900   9.916 -0.1597 -0.2750  0.4528
  145SAPE   H6Y15998   5.201   4.784   9.867 -2.7403 -1.0600  1.0464
  145SAPE   C3715999   5.124   4.919   9.717  0.0770 -0.2607 -0.1769
  145SAPE   H7X16000   5.065   5.013   9.717  0.9428  0.3008 -0.6454
  145SAPE   H7Y16001   5.050   4.841   9.690  0.4768 -0.5043 -0.5775
  145SAPE   C3816002   5.240   4.937   9.618  0.1982 -0.2675 -0.4233
  145SAPE   H8X16003   5.303   4.849   9.642  0.2503 -0.4701 -1.2761
  145SAPE   H8Y16004   5.297   5.024   9.659 -2.2307  1.4803 -0.5534
  145SAPE   C3916005   5.202   4.936   9.473  0.5135  0.0932 -0.2531
  145SAPE   H9X16006   5.147   5.024   9.434  0.7673  0.7358  0.7940
  145SAPE   H9Y16007   5.134   4.849   9.464 -1.2280  1.3368  0.2719
  145SAPE  C31016008   5.316   4.911   9.372 -0.3023  0.5890 -0.0099
  145SAPE  H10X16009   5.379   4.830   9.415  2.2449  3.1640  1.4388
  145SAPE  H10Y16010   5.381   5.001   9.369  1.5345 -0.6532  0.7323
  145SAPE  C31116011   5.284   4.877   9.225  0.1784 -0.4255  0.7269
  145SAPE  H11X16012   5.225   4.782   9.223  0.2500 -0.4757  1.0278
  145SAPE  H11Y16013   5.381   4.860   9.174  0.4574 -0.6760  1.3319
  145SAPE  C31216014   5.210   4.990   9.153  0.5541 -0.1940 -1.0066
  145SAPE  H12X16015   5.139   5.045   9.219  0.5808  0.7264 -1.7216
  145SAPE  H12Y16016   5.157   4.940   9.069 -0.3341 -1.6015  0.3336
  145SAPE  C31316017   5.297   5.107   9.102  0.5507 -0.2233 -0.1194
  145SAPE  H13X16018   5.378   5.051   9.050  0.7516 -0.4626  0.4435
  145SAPE  H13Y16019   5.342   5.164   9.187  0.2137  0.8408 -0.6381
  145SAPE  C31416020   5.228   5.192   8.999 -0.0992  0.2241  0.6973
  145SAPE  H14X16021   5.126   5.222   9.031  0.2378  3.2648 -0.7196
  145SAPE  H14Y16022   5.225   5.143   8.899 -0.1001  2.4013 -0.4225
  145SAPE  C31516023   5.303   5.324   8.979  0.0432 -0.6075 -0.1628
  145SAPE  H15X16024   5.399   5.311   8.926 -0.1994  0.7373 -0.9565
  145SAPE  H15Y16025   5.322   5.368   9.079  2.2346  0.0217 -0.8145
  145SAPE  C31616026   5.220   5.432   8.908  0.3847  0.5531  0.4372
  145SAPE  H16X16027   5.293   5.515   8.917  1.0157 -0.0696  1.1850
  145SAPE  H16Y16028   5.123   5.451   8.957  1.3325  1.2703  2.0968
  145SAPE  C31716029   5.207   5.405   8.756  0.1495  0.2094  0.1882
  145SAPE  H17X16030   5.187   5.297   8.737 -0.9009  0.4873 -0.3535
  145SAPE  H17Y16031   5.308   5.416   8.712  0.5654 -0.6745  0.8973
  145SAPE  C31816032   5.107   5.490   8.675  1.0984  0.0395  0.0854
  145SAPE  H18X16033   5.015   5.484   8.737  1.4198  0.1025  0.5822
  145SAPE  H18Y16034   5.099   5.456   8.570  1.2718  0.5062 -0.0832
  145SAPE  H18Z16035   5.132   5.599   8.679 -0.5774  0.4377  0.1879
  146SAPE     N16036   5.204   6.062  10.680 -0.2291  0.2458 -0.4158
  146SAPE   HN116037   5.145   5.993  10.731 -0.0850  1.0420  0.8805
  146SAPE   HN216038   5.301   6.025  10.679 -0.2302  0.2502 -0.8368
  146SAPE   HN316039   5.210   6.148  10.739  3.1970 -1.5841  2.2760
  146SAPE   C1216040   5.148   6.126  10.550 -0.0941 -0.4014 -0.0332
  146SAPE  H12A16041   5.122   6.043  10.481  0.3720  0.5317 -1.3676
  146SAPE  H12B16042   5.233   6.181  10.504  0.4123  0.3386  1.6802
  146SAPE   C1116043   5.030   6.214  10.588 -0.8570  0.2435  0.1135
  146SAPE  H11A16044   4.999   6.262  10.493  0.1954  1.4224  0.3523
  146SAPE  H11B16045   5.063   6.302  10.647  0.5834  0.1250 -0.4967
  146SAPE     P16046   4.810   6.078  10.570  0.0593 -0.4382  0.4365
  146SAPE   O1316047   4.866   6.002  10.463  0.3401  0.1338  0.1860
  146SAPE   O1416048   4.728   6.006  10.667  0.3225 -0.1143  0.3577
  146SAPE   O1216049   4.918   6.157  10.654 -0.0578  1.0359  0.1777
  146SAPE   O1116050   4.734   6.203  10.508 -0.2596 -0.1341 -0.0227
  146SAPE    C116051   4.591   6.210  10.488 -0.2630 -0.1397  0.3610
  146SAPE    HA16052   4.537   6.156  10.568  0.6904 -0.4023  0.8366
  146SAPE    HB16053   4.550   6.313  10.497 -1.6308 -0.6400  0.1103
  146SAPE    C216054   4.537   6.158  10.349 -0.6070  0.1423 -0.0341
  146SAPE    HS16055   4.610   6.088  10.303  1.5606  1.5926  1.0195
  146SAPE   O2116056   4.507   6.265  10.256  0.3480 -0.2778  0.2737
  146SAPE   C2116057   4.608   6.337  10.218  0.2828 -0.3081  0.1576
  146SAPE   O2216058   4.726   6.327  10.250 -0.2996  0.3596 -0.3067
  146SAPE   C2216059   4.547   6.438  10.124 -0.0666  1.0614  0.8862
  146SAPE   H2R16060   4.442   6.442  10.160 -1.4929 -3.0198 -2.1258
  146SAPE   H2S16061   4.594   6.536  10.146  1.6226  0.3870  0.3887
  146SAPE    C316062   4.405   6.077  10.366  0.1013  0.0004 -0.4263
  146SAPE    HX16063   4.326   6.133  10.420  3.0253  0.2883  4.1053
  146SAPE    HY16064   4.428   5.995  10.438 -1.1352 -0.2826 -0.3269
  146SAPE   O3116065   4.374   6.008  10.243 -0.0828 -0.4865  0.3010
  146SAPE   C3116066   4.279   6.066  10.168  0.3298 -0.2623  0.2507
  146SAPE   O3216067   4.229   6.175  10.181  0.0442  0.7322 -0.1234
  146SAPE   C3216068   4.232   5.960  10.064 -0.6443  0.5475  0.3959
  146SAPE   H2X16069   4.121   5.955  10.064 -0.7383 -1.6964  4.5041
  146SAPE   H2Y16070   4.261   5.858  10.098 -0.5184 -0.2449 -1.8827
  146SAPE   C2316071   4.560   6.393   9.976 -1.0650  0.5046  0.1360
  146SAPE   H3R16072   4.653   6.343   9.941 -3.1142 -1.8482 -2.4085
  146SAPE   H3S16073   4.557   6.486   9.916 -2.1657  0.5157  0.1828
  146SAPE   C2416074   4.446   6.306   9.935  0.2993 -0.3407 -0.1010
  146SAPE   H4R16075   4.438   6.220  10.005  0.4178 -2.3728 -2.4330
  146SAPE   H4S16076   4.471   6.272   9.832  1.4460 -0.4252  0.1994
  146SAPE   C2516077   4.317   6.394   9.928 -0.4141 -0.3969  0.4892
  146SAPE   H5R16078   4.275   6.414  10.027 -0.1673 -0.2550  0.5658
  146SAPE   C2616079   4.273   6.468   9.828  0.6399  0.7263  0.5192
  146SAPE   H6R16080   4.174   6.512   9.847  0.4355 -0.7484  3.5772
  146SAPE   C2716081   4.327   6.479   9.692 -0.3375  0.3572  0.3702
  146SAPE   H7R16082   4.434   6.506   9.706  0.0528 -0.6525 -0.5016
  146SAPE   H7S16083   4.284   6.572   9.649  1.0038  1.9525  2.2997
  146SAPE   C2816084   4.315   6.359   9.595  0.5876  0.0344  0.0432
  146SAPE   H8R16085   4.356   6.270   9.645 -0.6604  0.5005  1.9861
  146SAPE   C2916086   4.269   6.342   9.469 -0.1789  0.3410  0.0865
  146SAPE   H9R16087   4.277   6.241   9.427  1.8850  0.1212  0.8982
  146SAPE  C21016088   4.230   6.456   9.373  0.3494 -0.0537 -0.6336
  146SAPE  H10R16089   4.301   6.541   9.373 -0.4580  0.6715 -2.1824
  146SAPE  H10S16090   4.140   6.502   9.419 -1.5050 -3.8729 -0.0490
  146SAPE  C21116091   4.206   6.407   9.234 -0.4651  0.7892  0.0758
  146SAPE  H11R16092   4.104   6.386   9.200 -0.3743  0.8314 -0.2302
  146SAPE  C21216093   4.288   6.406   9.131  0.7735  0.9026  0.3730
  146SAPE  H12R16094   4.263   6.359   9.035 -1.3466  1.5068  0.5658
  146SAPE  C21316095   4.434   6.446   9.143 -0.2739 -0.9383  0.3874
  146SAPE  H13R16096   4.497   6.374   9.087  2.0723  2.1696 -1.2502
  146SAPE  H13S16097   4.470   6.442   9.248 -1.0378  1.4309  0.7979
  146SAPE  C21416098   4.467   6.584   9.091 -0.0890  1.0202  0.0810
  146SAPE  H14R16099   4.421   6.655   9.162  0.6840  0.0111  1.6659
  146SAPE  C21516100   4.530   6.618   8.982 -0.3374 -0.6440  0.4294
  146SAPE  H15R16101   4.550   6.718   8.941  0.2012 -0.8326  0.2153
  146SAPE  C21616102   4.585   6.515   8.894 -0.0507  0.0703  0.4897
  146SAPE  H16R16103   4.619   6.423   8.946 -1.4304 -1.2671 -0.8483
  146SAPE  H16S16104   4.668   6.559   8.834  0.4785 -0.6203  0.7140
  146SAPE  C21716105   4.494   6.459   8.775  0.4881  0.7613  0.3131
  146SAPE  H17R16106   4.397   6.417   8.808  0.8148  0.3091  0.7092
  146SAPE  H17S16107   4.555   6.376   8.734 -1.0239 -0.3189  0.1870
  146SAPE  C21816108   4.468   6.572   8.672 -0.1265 -0.0943 -0.0355
  146SAPE  H18R16109   4.571   6.607   8.646  0.1800 -1.8635 -1.3383
  146SAPE  H18S16110   4.414   6.646   8.736 -0.2627 -2.6610  3.0490
  146SAPE  C21916111   4.405   6.526   8.541  0.0673 -0.2812 -0.5846
  146SAPE  H19R16112   4.310   6.478   8.573  0.7744 -0.3912  1.4840
  146SAPE  H19S16113   4.466   6.441   8.504 -1.8837 -1.4923 -1.1567
  146SAPE  C22016114   4.388   6.642   8.449 -0.3222  0.0263 -0.1035
  146SAPE  H20R16115   4.473   6.713   8.446 -1.0158  0.9551  1.0555
  146SAPE  H20S16116   4.295   6.694   8.482 -1.4919 -3.4528  2.6999
  146SAPE  H20T16117   4.372   6.618   8.341  2.3774 -1.0219 -0.3450
  146SAPE   C3316118   4.292   5.980   9.925  0.4806 -0.0051 -0.0422
  146SAPE   H3X16119   4.402   5.963   9.926  0.0734 -3.1988  1.5208
  146SAPE   H3Y16120   4.271   6.084   9.892 -1.9383 -0.1957  0.6909
  146SAPE   C3416121   4.245   5.882   9.818 -0.1119  0.1820  0.3120
  146SAPE   H4X16122   4.139   5.851   9.827  0.2889 -0.6055  3.0005
  146SAPE   H4Y16123   4.315   5.796   9.823 -2.4846 -1.8227  1.0839
  146SAPE   C3516124   4.257   5.944   9.673 -0.0896  0.0906  0.1718
  146SAPE   H5X16125   4.183   6.026   9.662 -1.6070 -1.3193 -0.4457
  146SAPE   H5Y16126   4.220   5.857   9.616 -1.2322  0.5703  0.1512
  146SAPE   C3616127   4.401   5.983   9.631  0.0749  0.5507 -0.3956
  146SAPE   H6X16128   4.474   5.907   9.664  0.4878  0.5155 -1.3441
  146SAPE   H6Y16129   4.429   6.073   9.690 -0.4115  0.9049 -0.6868
  146SAPE   C3716130   4.428   5.976   9.478 -0.3643  0.0283  1.1965
  146SAPE   H7X16131   4.337   6.022   9.436  0.0613 -0.9616 -0.9536
  146SAPE   H7Y16132   4.430   5.870   9.444  0.8524  0.8253 -1.4568
  146SAPE   C3816133   4.554   6.053   9.423 -0.1278 -0.6081 -0.5049
  146SAPE   H8X16134   4.640   6.002   9.471  0.3903 -0.5971 -1.3939
  146SAPE   H8Y16135   4.553   6.158   9.459 -0.6976 -1.1526  1.1856
  146SAPE   C3916136   4.571   6.036   9.266 -0.8086 -0.0568 -0.5123
  146SAPE   H9X16137   4.582   5.926   9.259  1.3875  0.0833  0.1981
  146SAPE   H9Y16138   4.663   6.086   9.230  0.0815 -1.1642  0.1684
  146SAPE  C31016139   4.461   6.089   9.179  0.3029  0.3136 -0.3594
  146SAPE  H10X16140   4.451   6.199   9.192 -0.4129  0.1766  0.2993
  146SAPE  H10Y16141   4.364   6.048   9.214  0.3904  0.5128  0.1285
  146SAPE  C31116142   4.482   6.068   9.034 -0.1539 -0.1221 -0.3131
  146SAPE  H11X16143   4.536   5.972   9.019  0.0608 -0.2658  1.2147
  146SAPE  H11Y16144   4.555   6.142   8.996 -2.4038  1.1304 -2.5250
  146SAPE  C31216145   4.355   6.070   8.949  0.1769 -0.4110  0.0019
  146SAPE  H12X16146   4.320   6.174   8.933  0.9251  0.0826  1.3992
  146SAPE  H12Y16147   4.278   6.015   9.006  2.1041 -2.1455  1.0664
  146SAPE  C31316148   4.366   6.021   8.803  0.2462 -0.5028  0.3657
  146SAPE  H13X16149   4.262   6.032   8.764  0.1319  3.8170  1.4274
  146SAPE  H13Y16150   4.388   5.912   8.795  2.8616  0.0889 -1.9629
  146SAPE  C31416151   4.463   6.108   8.714  0.3782 -0.4757 -0.3099
  146SAPE  H14X16152   4.561   6.130   8.762  1.6059  1.6713 -3.4763
  146SAPE  H14Y16153   4.404   6.202   8.705  3.1043  1.3478 -0.3936
  146SAPE  C31516154   4.499   6.040   8.581 -0.1275 -0.1721  0.2678
  146SAPE  H15X16155   4.413   5.986   8.536 -0.4134  0.0639  0.5224
  146SAPE  H15Y16156   4.574   5.963   8.610  0.6233  0.5274  0.2189
  146SAPE  C31616157   4.548   6.140   8.476 -0.0538 -0.0368 -0.0268
  146SAPE  H16X16158   4.472   6.220   8.464 -0.6309 -0.8645 -2.6804
  146SAPE  H16Y16159   4.561   6.101   8.372 -1.8626 -0.3823 -0.1679
  146SAPE  C31716160   4.686   6.204   8.513 -0.2820  0.3203 -0.3649
  146SAPE  H17X16161   4.754   6.116   8.515 -0.2676  0.3282  1.2105
  146SAPE  H17Y16162   4.696   6.225   8.622  0.4039 -1.0074 -0.1500
  146SAPE  C31816163   4.728   6.315   8.410 -0.5185 -0.0794  0.1801
  146SAPE  H18X16164   4.662   6.404   8.419  2.7109  2.7433 -1.7297
  146SAPE  H18Y16165   4.722   6.271   8.308 -0.6217 -1.8990  0.9350
  146SAPE  H18Z16166   4.832   6.342   8.437 -0.8494 -1.1309  2.7811
  147SAPE     N16167   0.567   6.308  10.947 -0.3928  0.2884 -0.0587
  147SAPE   HN116168   0.512   6.219  10.944 -0.4021  0.2961 -0.1321
  147SAPE   HN216169   0.657   6.309  10.895  0.0090  0.1850  0.6218
  147SAPE   HN316170   0.597   6.317  11.046 -0.2452  1.6342 -0.2105
  147SAPE   C1216171   0.488   6.431  10.911 -0.0728  0.2957 -0.2121
  147SAPE  H12A16172   0.484   6.450  10.801  1.9859  2.1079 -0.0475
  147SAPE  H12B16173   0.549   6.512  10.957 -1.8491  0.8305  1.3323
  147SAPE   C1116174   0.348   6.425  10.980 -0.8429 -0.0718 -0.5985
  147SAPE  H11A16175   0.368   6.388  11.082 -1.3399 -2.1314 -1.2076
  147SAPE  H11B16176   0.270   6.355  10.942 -0.2301 -0.9571 -0.2406
  147SAPE     P16177   0.154   6.604  10.921 -0.4428  0.0482 -0.0378
  147SAPE   O1316178   0.060   6.492  10.955  0.2377 -0.2760  0.2694
  147SAPE   O1416179   0.119   6.737  10.971  0.2803  0.2047  0.0932
  147SAPE   O1216180   0.300   6.564  10.983 -0.2854 -0.1556  0.1838
  147SAPE   O1116181   0.197   6.608  10.768  0.8217  0.6052  0.1199
  147SAPE    C116182   0.314   6.680  10.728 -0.2272 -0.0523  0.1059
  147SAPE    HA16183   0.394   6.686  10.806  1.3059 -1.3240 -1.2942
  147SAPE    HB16184   0.363   6.621  10.647  1.0310 -0.0364  0.8254
  147SAPE    C216185   0.277   6.820  10.665 -0.2740 -0.7602 -0.0950
  147SAPE    HS16186   0.250   6.889  10.748 -1.7472 -0.5689 -0.7202
  147SAPE   O2116187   0.166   6.803  10.584  0.3296  0.0649 -0.1269
  147SAPE   C2116188   0.106   6.912  10.548  0.5418  0.3026  0.6612
  147SAPE   O2216189   0.136   7.027  10.585 -0.0901 -0.2330  0.0778
  147SAPE   C2216190   0.013   6.894  10.425  0.1140  0.7436  0.8603
  147SAPE   H2R16191   0.051   6.821  10.350 -3.6216 -0.3019 -0.2455
  147SAPE   H2S16192  -0.077   6.839  10.460 -1.2076 -0.7651 -4.0852
  147SAPE    C316193   0.397   6.879  10.590  0.1093 -0.5732  0.2012
  147SAPE    HX16194   0.471   6.892  10.672 -0.3115 -0.4110  0.5636
  147SAPE    HY16195   0.372   6.978  10.545 -0.6510 -1.4364 -1.3706
  147SAPE   O3116196   0.442   6.784  10.485  0.2466  0.2810  0.0555
  147SAPE   C3116197   0.576   6.779  10.477  0.1276  0.2746 -0.3258
  147SAPE   O3216198   0.658   6.833  10.548  0.1163 -0.4772 -0.4923
  147SAPE   C3216199   0.621   6.712  10.353  0.1295 -0.0808  0.5916
  147SAPE   H2X16200   0.567   6.615  10.344  0.0082  0.1295 -1.3426
  147SAPE   H2Y16201   0.731   6.694  10.351  0.2262  0.5065  0.4250
  147SAPE   C2316202  -0.024   7.024  10.356 -0.8237 -0.0783  0.2310
  147SAPE   H3R16203  -0.059   7.102  10.426 -0.3267  0.2009  0.1739
  147SAPE   H3S16204  -0.093   6.999  10.273  0.7214 -1.7007 -0.6323
  147SAPE   C2416205   0.100   7.092  10.274  0.0653  0.0140  0.3099
  147SAPE   H4R16206   0.161   7.145  10.350 -0.9610  1.3536  0.2483
  147SAPE   H4S16207   0.073   7.177  10.208 -0.2910 -0.5168 -0.2399
  147SAPE   C2516208   0.181   6.984  10.206  0.3512  0.0906  0.2509
  147SAPE   H5R16209   0.238   6.916  10.271  0.0036  0.7111  1.2276
  147SAPE   C2616210   0.203   6.971  10.076 -0.0301  0.4741 -0.1224
  147SAPE   H6R16211   0.275   6.890  10.058  0.2111  0.8790 -1.0570
  147SAPE   C2716212   0.159   7.058   9.964  0.5867 -0.4146  1.1120
  147SAPE   H7R16213   0.174   7.167   9.981  2.2389 -0.2198 -1.1415
  147SAPE   H7S16214   0.048   7.059   9.961  0.6044  1.1181  0.4768
  147SAPE   C2816215   0.199   7.020   9.820  0.4326 -0.2711 -0.6482
  147SAPE   H8R16216   0.192   6.914   9.792 -2.1091  0.6260 -3.9944
  147SAPE   C2916217   0.247   7.100   9.721 -0.0845  0.4688 -0.3162
  147SAPE   H9R16218   0.259   7.052   9.623  0.5468 -0.1910  0.0617
  147SAPE  C21016219   0.262   7.248   9.732 -0.0499 -0.7416 -0.6558
  147SAPE  H10R16220   0.245   7.295   9.832 -0.5638 -1.6904 -0.2890
  147SAPE  H10S16221   0.184   7.301   9.673 -1.8259 -0.9408  1.3901
  147SAPE  C21116222   0.403   7.285   9.692  0.4798  0.6899 -0.3458
  147SAPE  H11R16223   0.481   7.257   9.765  0.3644 -0.7951 -0.7717
  147SAPE  C21216224   0.438   7.331   9.572 -0.0043 -0.2603  0.0565
  147SAPE  H12R16225   0.543   7.356   9.552  0.8226 -2.3177  1.4530
  147SAPE  C21316226   0.345   7.348   9.449  0.1753  0.4945  0.6371
  147SAPE  H13R16227   0.344   7.453   9.413  1.2420 -0.1027 -1.3255
  147SAPE  H13S16228   0.241   7.327   9.479 -0.2256 -1.8188 -1.9606
  147SAPE  C21416229   0.388   7.260   9.330  0.0268 -0.2824  0.5784
  147SAPE  H14R16230   0.494   7.260   9.301 -0.5011 -1.7668 -1.6904
  147SAPE  C21516231   0.307   7.177   9.257  0.3174 -0.2532 -0.4720
  147SAPE  H15R16232   0.362   7.113   9.187  1.4003 -0.9191  0.9287
  147SAPE  C21616233   0.161   7.150   9.277  0.3674  0.0432  0.2306
  147SAPE  H16R16234   0.109   7.240   9.317 -1.5692  0.0116 -2.0291
  147SAPE  H16S16235   0.154   7.060   9.342  1.7266 -0.0416  0.2863
  147SAPE  C21716236   0.090   7.127   9.141 -0.3337 -0.0663 -0.7230
  147SAPE  H17R16237   0.135   7.195   9.066 -0.3300  0.5043 -0.2042
  147SAPE  H17S16238  -0.021   7.134   9.146 -0.3225 -0.4924  0.3069
  147SAPE  C21816239   0.126   6.982   9.082  0.0418 -0.0236  0.4475
  147SAPE  H18R16240   0.092   6.901   9.150  0.5923 -2.0620 -1.5908
  147SAPE  H18S16241   0.234   6.971   9.060 -0.2031 -0.8991 -0.3810
  147SAPE  C21916242   0.064   6.973   8.945  0.9316 -0.2695 -0.8762
  147SAPE  H19R16243   0.110   6.892   8.884  0.7557 -1.1394  0.1282
  147SAPE  H19S16244   0.092   7.064   8.888 -0.7136  1.1437  0.4652
  147SAPE  C22016245  -0.087   6.959   8.935  0.3057 -1.1450 -0.0589
  147SAPE  H20R16246  -0.145   7.009   9.015  0.3510  0.1054 -0.7803
  147SAPE  H20S16247  -0.115   6.851   8.933 -0.0698 -1.0951 -3.0609
  147SAPE  H20T16248  -0.111   6.986   8.830  1.6932  1.2007  0.1557
  147SAPE   C3316249   0.593   6.811  10.226  0.2306 -0.1494 -0.1563
  147SAPE   H3X16250   0.653   6.903  10.243  0.5000 -0.4638  0.6572
  147SAPE   H3Y16251   0.486   6.840  10.215  0.2575 -0.7822 -2.6169
  147SAPE   C3416252   0.634   6.752  10.091  0.2349  0.3156 -0.0451
  147SAPE   H4X16253   0.571   6.662  10.074  1.8523 -0.9230  0.2864
  147SAPE   H4Y16254   0.741   6.725  10.098  0.8331  2.5911  0.1882
  147SAPE   C3516255   0.604   6.838   9.972  0.3689  0.0760 -0.3236
  147SAPE   H5X16256   0.696   6.891   9.940  0.6951 -0.3955 -0.1651
  147SAPE   H5Y16257   0.530   6.918   9.997  0.1962 -0.6473  1.6151
  147SAPE   C3616258   0.542   6.763   9.854  0.1708  0.6099 -0.5715
  147SAPE   H6X16259   0.439   6.734   9.883 -0.0253  2.0483  0.2433
  147SAPE   H6Y16260   0.610   6.680   9.825  0.4743  0.5145  0.3787
  147SAPE   C3716261   0.530   6.864   9.740  0.5274 -0.9630 -0.0528
  147SAPE   H7X16262   0.637   6.872   9.710  0.6459  0.5933  0.6744
  147SAPE   H7Y16263   0.510   6.970   9.767  3.1670  0.1311 -1.9775
  147SAPE   C3816264   0.439   6.806   9.626  0.0951  0.7333 -0.6628
  147SAPE   H8X16265   0.336   6.843   9.646 -0.5872  0.1121 -2.8214
  147SAPE   H8Y16266   0.438   6.695   9.625 -1.1286  0.7055 -2.7927
  147SAPE   C3916267   0.476   6.857   9.488 -0.0115 -0.4434 -0.1079
  147SAPE   H9X16268   0.583   6.838   9.463  0.3105  1.4281 -0.3308
  147SAPE   H9Y16269   0.461   6.966   9.473 -0.7812 -0.8678 -3.1565
  147SAPE  C31016270   0.397   6.794   9.379 -0.2075 -0.3299  0.6461
  147SAPE  H10X16271   0.319   6.860   9.335 -0.9917 -1.6224  0.0326
  147SAPE  H10Y16272   0.359   6.692   9.406 -0.3824 -0.6098 -0.6184
  147SAPE  C31116273   0.478   6.764   9.250 -0.3530  0.0459 -0.1770
  147SAPE  H11X16274   0.544   6.681   9.281  0.2601  0.2598 -0.8960
  147SAPE  H11Y16275   0.535   6.853   9.216  2.5045 -1.8099 -0.6142
  147SAPE  C31216276   0.392   6.707   9.124  0.2255 -0.0271 -0.2565
  147SAPE  H12X16277   0.306   6.764   9.083 -1.2239 -0.8614  1.5313
  147SAPE  H12Y16278   0.342   6.615   9.161 -1.6829  1.4655  1.0840
  147SAPE  C31316279   0.489   6.673   9.004  0.3139  0.3340 -0.0305
  147SAPE  H13X16280   0.433   6.615   8.927  2.1801  0.4216 -1.5174
  147SAPE  H13Y16281   0.567   6.618   9.061  1.3949  0.8278 -0.9939
  147SAPE  C31416282   0.544   6.794   8.930  1.0625  0.5012  0.1641
  147SAPE  H14X16283   0.611   6.830   9.010  0.8504  1.7677 -0.2028
  147SAPE  H14Y16284   0.466   6.873   8.919 -0.1265 -0.4884  1.1236
  147SAPE  C31516285   0.618   6.771   8.794  0.3180  0.0494  0.4884
  147SAPE  H15X16286   0.546   6.744   8.714  1.7240  0.3731 -0.9248
  147SAPE  H15Y16287   0.695   6.691   8.789  1.6763  1.3348 -0.0670
  147SAPE  C31616288   0.691   6.895   8.744 -0.0692 -0.5667  0.1890
  147SAPE  H16X16289   0.626   6.984   8.730  0.3352 -0.2248  0.4542
  147SAPE  H16Y16290   0.719   6.861   8.642 -2.1059 -0.7195 -0.3660
  147SAPE  C31716291   0.813   6.932   8.834 -0.4073  0.0469 -0.5452
  147SAPE  H17X16292   0.890   6.851   8.835 -0.8578 -0.4674  2.7184
  147SAPE  H17Y16293   0.768   6.945   8.934 -0.2946 -0.5127 -0.4192
  147SAPE  C31816294   0.880   7.061   8.799  0.3326 -0.4861 -0.1177
  147SAPE  H18X16295   0.911   7.057   8.692 -0.4255  1.8276 -0.4852
  147SAPE  H18Y16296   0.964   7.082   8.869 -0.0274  0.4613  0.0439
  147SAPE  H18Z16297   0.812   7.149   8.798  2.6830  1.4601  1.5372
  148SAPE     N16298   0.071   3.981  10.471 -0.0043 -0.2174 -0.3841
  148SAPE   HN116299   0.042   4.073  10.431 -1.2588  0.8193  2.6167
  148SAPE   HN216300   0.009   3.954  10.550  2.2565 -3.1855  0.5236
  148SAPE   HN316301   0.171   3.983  10.499 -0.1138 -1.3268  0.0903
  148SAPE   C1216302   0.041   3.870  10.367  0.2876  0.4170 -0.6399
  148SAPE  H12A16303   0.075   3.902  10.266  0.0484 -1.3695 -1.3214
  148SAPE  H12B16304  -0.066   3.841  10.361  0.2971  0.5602 -1.6363
  148SAPE   C1116305   0.104   3.732  10.403 -0.5382  0.0408 -0.8542
  148SAPE  H11A16306   0.214   3.750  10.412 -0.6561 -0.0447  1.5235
  148SAPE  H11B16307   0.088   3.669  10.313 -3.1825  1.4329 -1.4305
  148SAPE     P16308  -0.024   3.552  10.527  0.1088  0.2104  0.2851
  148SAPE   O1316309   0.050   3.437  10.468 -0.0744 -0.3103 -0.0490
  148SAPE   O1416310  -0.093   3.531  10.657 -0.0917 -0.2930 -0.4566
  148SAPE   O1216311   0.065   3.682  10.536 -0.0286  0.2213 -0.0849
  148SAPE   O1116312  -0.132   3.605  10.426  0.0809 -0.3802  0.3282
  148SAPE    C116313  -0.221   3.504  10.388 -0.4164  0.0139  0.2756
  148SAPE    HA16314  -0.167   3.427  10.329  0.3964 -0.1149  1.1704
  148SAPE    HB16315  -0.268   3.458  10.477  0.7756 -2.3405 -0.2467
  148SAPE    C216316  -0.326   3.551  10.276  0.0516  0.4761 -0.3707
  148SAPE    HS16317  -0.368   3.461  10.226  1.0048 -0.7234  0.9034
  148SAPE   O2116318  -0.260   3.634  10.175  0.6333 -0.6888 -0.5288
  148SAPE   C2116319  -0.180   3.577  10.095 -1.1437 -0.1424 -0.3477
  148SAPE   O2216320  -0.164   3.456  10.091 -0.5593  0.3523 -0.5200
  148SAPE   C2216321  -0.120   3.686  10.005 -0.4326  0.3743 -0.2274
  148SAPE   H2R16322  -0.066   3.753  10.076 -2.0293  2.5826 -0.9937
  148SAPE   H2S16323  -0.057   3.642   9.925 -2.1071 -3.2393  0.2215
  148SAPE    C316324  -0.431   3.641  10.340  0.3804  0.8356 -0.0560
  148SAPE    HX16325  -0.369   3.723  10.381 -0.4620  1.1050  0.7022
  148SAPE    HY16326  -0.486   3.585  10.418 -0.6002  1.0554 -0.5768
  148SAPE   O3116327  -0.521   3.701  10.241 -0.1303 -0.2924  0.0238
  148SAPE   C3116328  -0.639   3.640  10.232  0.4777 -0.3059  0.2350
  148SAPE   O3216329  -0.677   3.541  10.291  0.0589  0.2469 -0.3588
  148SAPE   C3216330  -0.732   3.718  10.129  0.2776  0.7430 -0.4315
  148SAPE   H2X16331  -0.746   3.810  10.190 -0.6714 -0.1847  0.7909
  148SAPE   H2Y16332  -0.829   3.664  10.129  0.4361  0.4431  0.4029
  148SAPE   C2316333  -0.226   3.769   9.930 -0.1379 -0.3128  0.6058
  148SAPE   H3R16334  -0.176   3.833   9.854 -0.8279  2.0682  2.0606
  148SAPE   H3S16335  -0.266   3.845  10.000 -0.4524 -0.5368  0.6684
  148SAPE   C2416336  -0.338   3.696   9.853 -0.3704  0.2447  0.6833
  148SAPE   H4R16337  -0.421   3.761   9.818 -1.2376 -1.0581  0.2159
  148SAPE   H4S16338  -0.384   3.642   9.939  0.7349  1.2860  1.9701
  148SAPE   C2516339  -0.278   3.603   9.751 -0.2382 -0.4068  0.1984
  148SAPE   H5R16340  -0.224   3.518   9.794 -0.0338  0.2502  1.2904
  148SAPE   C2616341  -0.291   3.611   9.618  0.6662  0.5198  0.0056
  148SAPE   H6R16342  -0.236   3.540   9.555  2.3494  1.5890  0.2168
  148SAPE   C2716343  -0.368   3.703   9.528 -0.0855 -0.5978  0.5628
  148SAPE   H7R16344  -0.457   3.749   9.576  0.6929  1.7312 -0.1069
  148SAPE   H7S16345  -0.404   3.630   9.452 -2.8630 -1.0897  2.2134
  148SAPE   C2816346  -0.263   3.799   9.468  0.6066 -0.7366  0.2128
  148SAPE   H8R16347  -0.195   3.845   9.541  0.6310 -0.0062 -0.2622
  148SAPE   C2916348  -0.248   3.835   9.339  0.1481  0.5770  0.2609
  148SAPE   H9R16349  -0.170   3.904   9.302 -1.6745  2.4847 -0.2246
  148SAPE  C21016350  -0.324   3.780   9.225 -0.3778  0.3370 -0.1210
  148SAPE  H10R16351  -0.355   3.862   9.157 -0.0925  1.0222  0.5571
  148SAPE  H10S16352  -0.418   3.738   9.267  0.0548 -1.5424 -0.9416
  148SAPE  C21116353  -0.249   3.667   9.160  1.2268 -0.1458 -0.4018
  148SAPE  H11R16354  -0.230   3.579   9.223 -2.9705 -1.5059 -0.7084
  148SAPE  C21216355  -0.215   3.657   9.030  0.2928  0.6290  0.1444
  148SAPE  H12R16356  -0.162   3.563   9.006 -2.9332 -0.8622 -1.8375
  148SAPE  C21316357  -0.244   3.749   8.915 -0.1743 -0.0233 -1.1604
  148SAPE  H13R16358  -0.338   3.807   8.928 -0.6322 -0.4112 -2.5688
  148SAPE  H13S16359  -0.265   3.691   8.822 -0.1859 -1.7309 -0.1326
  148SAPE  C21416360  -0.139   3.851   8.883  0.7011  0.3467 -0.3354
  148SAPE  H14R16361  -0.066   3.858   8.964  0.8397  1.4775 -0.5441
  148SAPE  C21516362  -0.125   3.923   8.769 -0.5052  0.0460  0.0331
  148SAPE  H15R16363  -0.053   4.006   8.766 -2.3364  1.7236  0.1505
  148SAPE  C21616364  -0.209   3.915   8.636 -0.0722  0.6903 -0.4615
  148SAPE  H16R16365  -0.266   4.010   8.628  1.2027  1.4628 -0.6344
  148SAPE  H16S16366  -0.282   3.832   8.646 -0.0378  0.6726 -0.3580
  148SAPE  C21716367  -0.118   3.892   8.519  0.8973  1.0667  0.6681
  148SAPE  H17R16368  -0.062   3.807   8.563  1.0595  1.0722  0.4760
  148SAPE  H17S16369  -0.051   3.978   8.497  1.7521  0.5856  1.3033
  148SAPE  C21816370  -0.196   3.844   8.393 -0.7735 -0.7841 -0.0646
  148SAPE  H18R16371  -0.272   3.768   8.421 -2.6254  0.7668 -0.7148
  148SAPE  H18S16372  -0.139   3.793   8.312  0.3459 -0.5961  0.5771
  148SAPE  C21916373  -0.277   3.957   8.313  0.2626  0.2399 -0.0608
  148SAPE  H19R16374  -0.202   4.037   8.293  0.6023  0.0810  0.5455
  148SAPE  H19S16375  -0.356   3.995   8.382 -3.2309 -1.0910 -2.9913
  148SAPE  C22016376  -0.350   3.923   8.183 -0.5696  0.1906 -0.3996
  148SAPE  H20R16377  -0.449   3.875   8.202  0.2188 -0.7322  1.7893
  148SAPE  H20S16378  -0.282   3.881   8.106 -3.0801 -1.1828 -2.0003
  148SAPE  H20T16379  -0.380   4.023   8.144 -1.5988 -0.1914 -0.6238
  148SAPE   C3316380  -0.673   3.727   9.985  0.3829  0.1560 -0.1108
  148SAPE   H3X16381  -0.648   3.625   9.949  0.0805 -0.4406  1.2785
  148SAPE   H3Y16382  -0.587   3.796   9.975  1.7640 -1.5143 -0.2686
  148SAPE   C3416383  -0.774   3.764   9.879 -0.5682 -0.1789  0.7003
  148SAPE   H4X16384  -0.797   3.871   9.895 -0.1939 -0.1982  1.3992
  148SAPE   H4Y16385  -0.868   3.708   9.895 -1.3117  0.7285 -0.3549
  148SAPE   C3516386  -0.728   3.722   9.735 -0.0856  0.0273  0.1940
  148SAPE   H5X16387  -0.723   3.611   9.737 -1.5174 -0.0479  1.5936
  148SAPE   H5Y16388  -0.624   3.761   9.725 -0.6268  2.1876  2.3358
  148SAPE   C3616389  -0.813   3.769   9.619  0.3978  0.6257 -0.2825
  148SAPE   H6X16390  -0.831   3.879   9.623  1.0445  0.7539 -0.8237
  148SAPE   H6Y16391  -0.911   3.718   9.628  1.6790 -1.9231  0.4784
  148SAPE   C3716392  -0.755   3.727   9.487  0.5603  0.7592 -0.2782
  148SAPE   H7X16393  -0.730   3.619   9.480 -2.7736 -0.1582  0.4218
  148SAPE   H7Y16394  -0.663   3.786   9.469  0.0694  1.4257 -0.6546
  148SAPE   C3816395  -0.859   3.756   9.380 -0.5278  0.4489  0.6918
  148SAPE   H8X16396  -0.863   3.867   9.368  3.4504  0.5940 -0.8339
  148SAPE   H8Y16397  -0.961   3.716   9.394 -0.5491 -0.9995 -2.8263
  148SAPE   C3916398  -0.818   3.700   9.240 -0.0179  0.6145 -0.0665
  148SAPE   H9X16399  -0.791   3.594   9.259  2.6545  1.1510 -0.4677
  148SAPE   H9Y16400  -0.722   3.755   9.224 -0.0644  1.9118  3.2561
  148SAPE  C31016401  -0.923   3.716   9.137  0.7274  0.6165  0.3681
  148SAPE  H10X16402  -0.978   3.810   9.158 -1.2170  0.2663 -2.6098
  148SAPE  H10Y16403  -0.996   3.636   9.163  0.7116  0.4353 -0.2222
  148SAPE  C31116404  -0.869   3.703   8.992  0.6257 -0.1603 -0.4554
  148SAPE  H11X16405  -0.849   3.597   8.965  2.0649 -1.2562  4.1280
  148SAPE  H11Y16406  -0.771   3.751   8.974  1.7038 -2.1847 -0.3433
  148SAPE  C31216407  -0.956   3.782   8.892  0.0603 -0.0127 -0.2675
  148SAPE  H12X16408  -0.930   3.889   8.904  0.1893 -0.3056  2.6537
  148SAPE  H12Y16409  -1.063   3.778   8.918  0.5922  0.4726  2.1803
  148SAPE  C31316410  -0.949   3.717   8.754  0.7273  0.8764  0.2001
  148SAPE  H13X16411  -0.848   3.705   8.710 -0.8655 -1.1290 -3.3923
  148SAPE  H13Y16412  -0.992   3.797   8.689  1.9965  1.4825  0.0871
  148SAPE  C31416413  -1.031   3.591   8.730  0.1534  0.8784  0.8197
  148SAPE  H14X16414  -1.141   3.605   8.733  0.0546  0.0547  1.4583
  148SAPE  H14Y16415  -1.003   3.503   8.792 -0.0190 -0.9199 -1.5191
  148SAPE  C31516416  -1.011   3.528   8.579  0.7792 -0.1596 -0.4013
  148SAPE  H15X16417  -1.047   3.423   8.576 -0.0121  0.0596  0.6963
  148SAPE  H15Y16418  -0.907   3.531   8.540  1.4176  0.6369  1.2424
  148SAPE  C31616419  -1.095   3.617   8.485  0.2037  0.3405 -0.1315
  148SAPE  H16X16420  -1.028   3.706   8.484  0.7636 -0.0681  0.3453
  148SAPE  H16Y16421  -1.197   3.635   8.525 -0.8091 -1.5581 -1.6772
  148SAPE  C31716422  -1.110   3.555   8.346 -0.4374 -0.0472  0.5703
  148SAPE  H17X16423  -1.159   3.457   8.362 -0.4775 -0.1442 -0.1482
  148SAPE  H17Y16424  -1.008   3.545   8.302 -0.3177  3.0878 -0.1248
  148SAPE  C31816425  -1.188   3.644   8.257 -0.0480 -0.7992 -0.1628
  148SAPE  H18X16426  -1.241   3.591   8.175  0.8263 -1.3699 -0.3740
  148SAPE  H18Y16427  -1.128   3.733   8.231 -0.5787 -0.8298 -1.5633
  148SAPE  H18Z16428  -1.267   3.690   8.321 -0.6727 -0.8588 -0.8807
  149SAPE     N16429   3.130   6.340  11.099  0.1298 -0.1180  0.1366
  149SAPE   HN116430   3.220   6.336  11.151 -0.5464  0.8452  1.4382
  149SAPE   HN216431   3.149   6.412  11.027  1.7900 -1.3876 -0.7985
  149SAPE   HN316432   3.052   6.380  11.155 -0.7689 -1.6525  0.0553
  149SAPE   C1216433   3.095   6.198  11.050 -0.2402 -0.1515 -0.2750
  149SAPE  H12A16434   3.055   6.136  11.133  1.1940  0.7846  1.1864
  149SAPE  H12B16435   3.191   6.152  11.018  0.9991 -0.5025  3.5215
  149SAPE   C1116436   2.996   6.209  10.936  0.2514 -0.1397 -0.3801
  149SAPE  H11A16437   2.966   6.108  10.899  0.3301  0.0727 -1.0538
  149SAPE  H11B16438   3.042   6.251  10.844  0.3635 -0.9572 -0.7074
  149SAPE     P16439   2.766   6.202  11.057  0.3384 -0.1891 -0.2156
  149SAPE   O1316440   2.820   6.073  11.122 -0.1712 -0.2867  0.3597
  149SAPE   O1416441   2.714   6.298  11.159 -1.2106  0.1043  0.1185
  149SAPE   O1216442   2.880   6.276  10.975 -0.0847 -0.0525 -0.2294
  149SAPE   O1116443   2.654   6.166  10.954 -0.2553  0.2129  0.3999
  149SAPE    C116444   2.670   6.109  10.821 -0.6192 -0.2398 -0.0595
  149SAPE    HA16445   2.748   6.029  10.821 -1.4683 -1.1131 -1.1913
  149SAPE    HB16446   2.568   6.072  10.798 -1.2738  1.0800  0.6514
  149SAPE    C216447   2.693   6.219  10.714 -0.5780 -0.2244  0.1369
  149SAPE    HS16448   2.768   6.293  10.751  1.3527 -2.3856  0.7998
  149SAPE   O2116449   2.565   6.287  10.685 -0.4512  0.4294 -0.0196
  149SAPE   C2116450   2.575   6.408  10.650 -0.1708  0.2601 -0.0524
  149SAPE   O2216451   2.672   6.479  10.666 -0.1468 -0.1386  0.6417
  149SAPE   C2216452   2.441   6.453  10.608  0.3622 -0.3357 -0.3503
  149SAPE   H2R16453   2.379   6.366  10.578 -0.2099  0.1044 -0.4654
  149SAPE   H2S16454   2.389   6.488  10.700 -1.4201 -0.7027 -1.1718
  149SAPE    C316455   2.742   6.162  10.583 -0.1239 -0.6373  0.0470
  149SAPE    HX16456   2.663   6.118  10.517  0.6646 -0.9833 -0.6919
  149SAPE    HY16457   2.821   6.088  10.606  0.3577 -0.4836 -1.0344
  149SAPE   O3116458   2.786   6.273  10.506  0.8194  0.0903  0.0843
  149SAPE   C3116459   2.910   6.313  10.494  0.2272  0.0783 -0.1060
  149SAPE   O3216460   3.008   6.253  10.549  0.0499  0.0242 -0.3494
  149SAPE   C3216461   2.918   6.443  10.405 -0.3813  0.5223  0.0394
  149SAPE   H2X16462   2.858   6.520  10.459  0.8227 -0.5397  3.1189
  149SAPE   H2Y16463   2.870   6.415  10.309 -0.4642  3.3696 -0.8164
  149SAPE   C2316464   2.432   6.559  10.499 -0.2619  0.3376  0.4240
  149SAPE   H3R16465   2.504   6.642  10.514  0.9993 -0.6594  0.0694
  149SAPE   H3S16466   2.326   6.591  10.485 -0.5871 -1.2494 -1.1142
  149SAPE   C2416467   2.479   6.495  10.354 -0.4891  0.0855  0.3198
  149SAPE   H4R16468   2.425   6.398  10.346  1.2874 -1.1416  2.3019
  149SAPE   H4S16469   2.585   6.463  10.363 -1.5835 -3.3770  2.8921
  149SAPE   C2516470   2.447   6.584  10.238 -0.1882 -0.4037  0.3739
  149SAPE   H5R16471   2.350   6.627  10.266 -0.5942 -0.3190 -1.1052
  149SAPE   C2616472   2.499   6.614  10.115 -0.2253 -0.2807 -0.5004
  149SAPE   H6R16473   2.450   6.697  10.062  1.1939  0.2720 -0.9841
  149SAPE   C2716474   2.628   6.560  10.046  0.1055  0.2321  0.0306
  149SAPE   H7R16475   2.690   6.483  10.097  2.4028  2.4288  0.7007
  149SAPE   H7S16476   2.694   6.646  10.022  0.7214 -0.0355  0.7282
  149SAPE   C2816477   2.564   6.508   9.919 -0.6698 -0.0907  0.7208
  149SAPE   H8R16478   2.519   6.409   9.926  0.2938 -0.5480  0.6683
  149SAPE   C2916479   2.575   6.557   9.796 -0.1607  0.3160 -0.8484
  149SAPE   H9R16480   2.517   6.503   9.720 -0.5895  2.2725 -1.9888
  149SAPE  C21016481   2.651   6.683   9.760  0.2379  0.2133  0.2665
  149SAPE  H10R16482   2.667   6.752   9.846 -1.7645  1.0344  0.0272
  149SAPE  H10S16483   2.594   6.754   9.697 -1.2036 -2.1890 -1.2857
  149SAPE  C21116484   2.775   6.662   9.685 -0.1445  0.1872 -0.1839
  149SAPE  H11R16485   2.862   6.641   9.749  0.2313 -0.3204 -0.8526
  149SAPE  C21216486   2.794   6.671   9.552  0.0466 -0.2130  0.2834
  149SAPE  H12R16487   2.893   6.656   9.508  0.8362 -0.0597  1.9396
  149SAPE  C21316488   2.679   6.694   9.449 -0.0411 -0.5829 -0.2790
  149SAPE  H13R16489   2.724   6.715   9.349  0.4757 -0.7473 -0.0870
  149SAPE  H13S16490   2.614   6.781   9.470 -0.2085 -0.7291 -0.1936
  149SAPE  C21416491   2.589   6.572   9.437  0.0413 -0.9751 -0.8130
  149SAPE  H14R16492   2.503   6.570   9.505  2.1318 -2.1919  1.9653
  149SAPE  C21516493   2.599   6.469   9.353  0.2468 -0.2746  0.6319
  149SAPE  H15R16494   2.530   6.384   9.365 -0.9064  0.4376 -0.6025
  149SAPE  C21616495   2.707   6.465   9.244 -0.1703  0.0219  0.2729
  149SAPE  H16R16496   2.744   6.360   9.239  2.2180  0.7850  0.6060
  149SAPE  H16S16497   2.798   6.523   9.270 -1.0959  1.4019  0.4992
  149SAPE  C21716498   2.666   6.488   9.089 -0.4299 -0.1501  0.1343
  149SAPE  H17R16499   2.603   6.406   9.049  0.8324 -1.8971  1.5529
  149SAPE  H17S16500   2.760   6.464   9.034 -1.4427  0.0896 -1.7816
  149SAPE  C21816501   2.615   6.621   9.052 -0.0013  0.2380  0.4783
  149SAPE  H18R16502   2.664   6.700   9.114 -1.9564  1.6387  0.3218
  149SAPE  H18S16503   2.507   6.627   9.077 -0.3063 -0.1285 -0.7046
  149SAPE  C21916504   2.636   6.664   8.907  0.2361 -0.5807 -0.3229
  149SAPE  H19R16505   2.595   6.591   8.835 -1.3869  0.5603 -0.6138
  149SAPE  H19S16506   2.746   6.676   8.897  0.3214  0.2874  1.2531
  149SAPE  C22016507   2.566   6.797   8.865  0.2349  0.3395 -0.5889
  149SAPE  H20R16508   2.594   6.878   8.937 -0.3311  1.6422 -1.7902
  149SAPE  H20S16509   2.456   6.781   8.866  0.2142  0.4326  0.9316
  149SAPE  H20T16510   2.602   6.829   8.765  0.4945  1.3838 -0.1767
  149SAPE   C3316511   3.056   6.507  10.372  0.2250 -0.0508  0.9446
  149SAPE   H3X16512   3.105   6.428  10.312  1.1343  2.2764 -1.6112
  149SAPE   H3Y16513   3.110   6.533  10.466 -1.4557  1.5572  1.5395
  149SAPE   C3416514   3.053   6.630  10.287  0.5684 -0.4862 -0.2592
  149SAPE   H4X16515   3.149   6.685  10.282  0.5002 -0.0565  2.1921
  149SAPE   H4Y16516   2.985   6.707  10.328 -0.0946 -1.0331 -0.3134
  149SAPE   C3516517   3.001   6.591  10.146 -0.0569  0.9581 -0.2212
  149SAPE   H5X16518   2.897   6.553  10.157  0.4524 -0.2624  0.5830
  149SAPE   H5Y16519   3.072   6.509  10.121 -1.7489 -1.2577  1.7883
  149SAPE   C3616520   3.003   6.702  10.048  0.7585 -0.5062 -0.2400
  149SAPE   H6X16521   3.016   6.803  10.093 -1.9799 -0.1365 -0.0973
  149SAPE   H6Y16522   2.901   6.720  10.007  0.2707  1.1862  1.5382
  149SAPE   C3716523   3.102   6.670   9.938  0.1586 -0.5943 -0.2676
  149SAPE   H7X16524   3.096   6.566   9.902 -0.7542 -0.2298 -1.2138
  149SAPE   H7Y16525   3.203   6.679   9.983 -0.3850  1.1778  0.7095
  149SAPE   C3816526   3.080   6.771   9.827  0.2069  0.2510  0.6834
  149SAPE   H8X16527   3.147   6.857   9.847  2.7438 -1.1865 -1.0322
  149SAPE   H8Y16528   2.974   6.801   9.833 -0.5634 -1.6564 -1.8830
  149SAPE   C3916529   3.124   6.732   9.692  0.4432 -0.3182  0.5204
  149SAPE   H9X16530   3.069   6.637   9.674  1.3575 -0.7816  0.0996
  149SAPE   H9Y16531   3.228   6.696   9.702  0.3583 -0.2251  1.9071
  149SAPE  C31016532   3.114   6.838   9.579  0.5047  0.4143 -0.0679
  149SAPE  H10X16533   3.170   6.928   9.614 -1.3817  2.4648 -2.0316
  149SAPE  H10Y16534   3.009   6.873   9.583 -0.6810 -2.8560 -0.4524
  149SAPE  C31116535   3.148   6.785   9.441 -0.4361 -0.2869 -0.1345
  149SAPE  H11X16536   3.078   6.704   9.411  0.6306 -2.0600  1.8861
  149SAPE  H11Y16537   3.239   6.724   9.458 -2.6181 -3.4959  1.0173
  149SAPE  C31216538   3.161   6.894   9.334 -0.2394 -0.1626 -0.0888
  149SAPE  H12X16539   3.210   6.985   9.375  1.8135 -0.8353 -0.9352
  149SAPE  H12Y16540   3.055   6.922   9.313  0.1885  3.9276  2.1791
  149SAPE  C31316541   3.231   6.849   9.202 -0.1181  0.1759 -0.0363
  149SAPE  H13X16542   3.192   6.746   9.186  0.5633 -0.6553  2.9176
  149SAPE  H13Y16543   3.337   6.828   9.230 -0.2572  0.4224  0.7036
  149SAPE  C31416544   3.232   6.950   9.091  0.6110  0.0950  0.5010
  149SAPE  H14X16545   3.293   6.910   9.006  1.5995  0.2438  1.1275
  149SAPE  H14Y16546   3.286   7.038   9.132 -1.1249  0.6426  1.7092
  149SAPE  C31516547   3.091   6.984   9.024 -0.3282 -0.2445 -0.2757
  149SAPE  H15X16548   3.097   7.079   8.966 -1.4576  1.0103  1.5472
  149SAPE  H15Y16549   3.036   7.000   9.119  1.0143  0.6932  0.3688
  149SAPE  C31616550   3.035   6.877   8.931  0.4466 -0.6332 -0.2623
  149SAPE  H16X16551   3.008   6.793   8.999  0.7290  0.5179  1.3370
  149SAPE  H16Y16552   3.116   6.848   8.861  0.7958 -1.3572  0.4165
  149SAPE  C31716553   2.895   6.916   8.863 -0.3049 -0.2299  0.0354
  149SAPE  H17X16554   2.820   6.928   8.944 -0.1386  0.2650  0.1235
  149SAPE  H17Y16555   2.852   6.836   8.800 -1.9432 -0.8654  1.8633
  149SAPE  C31816556   2.898   7.050   8.785  0.1747 -0.6048 -0.2901
  149SAPE  H18X16557   2.962   7.040   8.695 -1.7499  1.2967 -1.9484
  149SAPE  H18Y16558   2.949   7.139   8.829 -2.1751  0.3147  0.7638
  149SAPE  H18Z16559   2.795   7.080   8.759 -1.5569 -3.8994  1.9867
  150SAPE     N16560   3.522   6.371  10.962  0.0492  0.4363  0.9085
  150SAPE   HN116561   3.541   6.290  11.025 -0.5455  0.1699  0.7614
  150SAPE   HN216562   3.448   6.432  11.002 -2.3978 -2.2490  0.8543
  150SAPE   HN316563   3.474   6.323  10.883  0.5390 -0.5745  1.2050
  150SAPE   C1216564   3.651   6.441  10.916 -0.3917 -0.2408 -0.1721
  150SAPE  H12A16565   3.733   6.447  10.990 -1.7787 -1.6661  1.5777
  150SAPE  H12B16566   3.629   6.548  10.897 -1.0779  0.1860  2.6531
  150SAPE   C1116567   3.709   6.383  10.782 -0.2000  0.6482 -0.1086
  150SAPE  H11A16568   3.786   6.448  10.735 -0.1261 -0.6740 -1.9310
  150SAPE  H11B16569   3.629   6.371  10.706  1.1405 -1.5829 -1.2816
  150SAPE     P16570   3.913   6.216  10.796  0.3797 -0.2962  0.0273
  150SAPE   O1316571   4.004   6.328  10.831  0.1017  0.0492 -0.1628
  150SAPE   O1416572   3.923   6.087  10.880 -0.2645 -0.3823 -0.4957
  150SAPE   O1216573   3.761   6.256  10.813 -0.9104  0.0113  0.1979
  150SAPE   O1116574   3.920   6.182  10.643 -0.0695 -1.1782  0.3987
  150SAPE    C116575   3.823   6.094  10.584 -0.4725  0.2016 -0.2775
  150SAPE    HA16576   3.820   5.999  10.642  0.9980  1.1617  1.4693
  150SAPE    HB16577   3.720   6.134  10.594 -0.5550  0.2410 -1.1648
  150SAPE    C216578   3.854   6.078  10.430 -1.0527  0.6119  0.0671
  150SAPE    HS16579   3.759   6.048  10.381 -0.8685  1.8128 -1.0602
  150SAPE   O2116580   3.957   5.986  10.399 -0.0889  0.6852  0.3754
  150SAPE   C2116581   3.915   5.862  10.403 -0.1466  0.2549  0.0457
  150SAPE   O2216582   3.803   5.827  10.442  0.4322  0.4740  0.1069
  150SAPE   C2216583   4.027   5.766  10.385  0.0316 -0.2483 -0.0651
  150SAPE   H2R16584   4.119   5.822  10.356  0.2201 -1.1082 -1.2362
  150SAPE   H2S16585   4.047   5.726  10.487  0.0153  2.5945  1.1410
  150SAPE    C316586   3.892   6.222  10.374 -0.6162 -0.0516  0.5271
  150SAPE    HX16587   3.993   6.250  10.411 -1.0468 -1.1198  2.7016
  150SAPE    HY16588   3.818   6.290  10.421 -1.1107  0.4246 -0.8822
  150SAPE   O3116589   3.880   6.233  10.230 -0.4341 -0.2708 -0.2004
  150SAPE   C3116590   3.918   6.353  10.180  0.4713 -0.2631  0.4477
  150SAPE   O3216591   3.960   6.445  10.241 -0.2846  0.3938 -0.7752
  150SAPE   C3216592   3.907   6.348  10.024  0.3520  0.1415  0.0096
  150SAPE   H2X16593   4.002   6.379   9.976  0.2355  0.2752 -0.1334
  150SAPE   H2Y16594   3.837   6.431   9.998  1.3911  0.8683 -0.5083
  150SAPE   C2316595   3.990   5.655  10.286  0.2076 -0.4459 -0.4710
  150SAPE   H3R16596   3.890   5.625  10.323  0.1341  0.1503 -0.1639
  150SAPE   H3S16597   4.056   5.567  10.296 -0.7114 -1.1230 -0.2877
  150SAPE   C2416598   3.999   5.699  10.143  0.0365 -0.1775 -0.7370
  150SAPE   H4R16599   4.105   5.731  10.130  0.1442 -0.6183 -0.9545
  150SAPE   H4S16600   3.930   5.785  10.124 -1.1795 -1.1278 -0.7176
  150SAPE   C2516601   3.970   5.578  10.052  0.4432 -0.1289 -0.1821
  150SAPE   H5R16602   3.994   5.475  10.080 -1.7822 -1.3321 -2.2797
  150SAPE   C2616603   3.903   5.579   9.936  1.4056 -0.3029  0.3087
  150SAPE   H6R16604   3.899   5.489   9.874  0.6283  0.0542 -0.1792
  150SAPE   C2716605   3.836   5.701   9.869 -0.0537  0.7283 -1.0096
  150SAPE   H7R16606   3.896   5.723   9.778  1.3352 -0.2459 -0.3688
  150SAPE   H7S16607   3.817   5.791   9.930 -3.7074 -0.1696 -0.5665
  150SAPE   C2816608   3.699   5.665   9.832 -1.0600 -0.1186 -0.3203
  150SAPE   H8R16609   3.622   5.668   9.910 -0.4579 -0.4228  0.2940
  150SAPE   C2916610   3.664   5.622   9.706 -0.1890  0.4275 -0.5609
  150SAPE   H9R16611   3.561   5.586   9.693 -0.7623  1.7929 -0.0691
  150SAPE  C21016612   3.765   5.607   9.590 -0.0723 -0.3527  0.0515
  150SAPE  H10R16613   3.860   5.568   9.634 -0.4605 -0.1401  1.1013
  150SAPE  H10S16614   3.774   5.715   9.565  0.2361 -0.1441  1.0206
  150SAPE  C21116615   3.712   5.527   9.479  0.6125 -0.2029  0.3428
  150SAPE  H11R16616   3.732   5.419   9.486 -0.3823 -0.4197 -0.0370
  150SAPE  C21216617   3.641   5.573   9.379  0.0473  0.2812 -0.2418
  150SAPE  H12R16618   3.608   5.497   9.306 -1.6253 -1.7612  2.4432
  150SAPE  C21316619   3.594   5.713   9.362 -0.0018 -0.2553 -0.1068
  150SAPE  H13R16620   3.653   5.751   9.276 -0.2887  2.1489  0.6898
  150SAPE  H13S16621   3.631   5.781   9.442 -2.4024  0.8917  0.1167
  150SAPE  C21416622   3.441   5.719   9.341 -0.1734  0.1161 -0.4770
  150SAPE  H14R16623   3.385   5.657   9.412 -0.9976  2.1264  0.7111
  150SAPE  C21516624   3.373   5.794   9.256 -0.2427  0.1699 -0.2449
  150SAPE  H15R16625   3.264   5.787   9.256 -0.1857 -2.0484 -2.1580
  150SAPE  C21616626   3.436   5.895   9.153  0.6553  0.2227 -0.2815
  150SAPE  H16R16627   3.546   5.896   9.164  0.8036 -1.4421 -1.3050
  150SAPE  H16S16628   3.392   5.994   9.175  0.6559  0.3467 -0.8174
  150SAPE  C21716629   3.409   5.865   9.002 -0.3872  0.2114 -0.3598
  150SAPE  H17R16630   3.446   5.955   8.949  0.8973 -0.1556 -0.1103
  150SAPE  H17S16631   3.301   5.853   8.977 -0.2930  1.8407 -1.7503
  150SAPE  C21816632   3.488   5.741   8.940 -0.5242  0.4041  0.0191
  150SAPE  H18R16633   3.451   5.641   8.972  0.9641 -0.0453  0.3846
  150SAPE  H18S16634   3.593   5.762   8.968 -0.1258  0.5799 -1.4929
  150SAPE  C21916635   3.481   5.738   8.784  0.1139  0.0689  0.8214
  150SAPE  H19R16636   3.554   5.670   8.735  0.0867  0.8708 -0.3765
  150SAPE  H19S16637   3.490   5.840   8.740  0.1193 -1.1517 -2.2511
  150SAPE  C22016638   3.342   5.694   8.742 -0.1222  1.0487 -0.6166
  150SAPE  H20R16639   3.338   5.640   8.645  0.0859 -2.1220  1.0093
  150SAPE  H20S16640   3.271   5.780   8.742 -0.3475  0.9152  1.4075
  150SAPE  H20T16641   3.307   5.622   8.820  1.3546  0.2522 -0.6607
  150SAPE   C3316642   3.853   6.212   9.966 -0.2289 -1.0115 -0.3382
  150SAPE   H3X16643   3.749   6.203  10.004  0.0614 -1.0662  0.4539
  150SAPE   H3Y16644   3.917   6.130  10.005 -0.4390 -1.0172 -0.0040
  150SAPE   C3416645   3.851   6.196   9.814  0.3572  0.0498  0.9417
  150SAPE   H4X16646   3.958   6.188   9.785 -0.3894 -2.5197 -1.6865
  150SAPE   H4Y16647   3.794   6.274   9.758 -0.0108 -0.0905  1.1213
  150SAPE   C3516648   3.791   6.068   9.753 -0.0543  0.4032  0.0712
  150SAPE   H5X16649   3.686   6.064   9.789 -0.4284  0.2453 -0.9934
  150SAPE   H5Y16650   3.835   5.984   9.810  0.9218  1.6416  1.2272
  150SAPE   C3616651   3.789   6.054   9.596 -0.2059 -0.0470 -0.2316
  150SAPE   H6X16652   3.747   6.148   9.554 -0.1021 -0.3463 -1.0231
  150SAPE   H6Y16653   3.718   5.971   9.575 -1.8676  1.4705 -0.8797
  150SAPE   C3716654   3.925   6.033   9.529  0.5698  0.2600 -0.1828
  150SAPE   H7X16655   3.941   5.924   9.541  1.8277  0.7178  3.3309
  150SAPE   H7Y16656   4.014   6.085   9.572  1.6124 -0.9996 -0.7194
  150SAPE   C3816657   3.916   6.079   9.376 -0.2379 -0.0285 -0.7816
  150SAPE   H8X16658   4.018   6.046   9.344 -1.2952 -1.7299 -2.6459
  150SAPE   H8Y16659   3.903   6.188   9.362  3.0833  0.5584 -0.1444
  150SAPE   C3916660   3.816   6.000   9.287  0.0134 -0.0408 -0.0598
  150SAPE   H9X16661   3.715   6.046   9.294 -0.7096 -1.3987 -1.1406
  150SAPE   H9Y16662   3.806   5.897   9.327 -1.1569 -0.1269 -0.5368
  150SAPE  C31016663   3.850   5.996   9.142 -0.0148 -0.6319  0.1323
  150SAPE  H10X16664   3.779   5.939   9.079 -0.6869  1.9962 -1.6623
  150SAPE  H10Y16665   3.951   5.953   9.123 -0.9557 -2.1101 -1.9626
  150SAPE  C31116666   3.849   6.133   9.074  0.6736 -1.0702  0.4383
  150SAPE  H11X16667   3.933   6.187   9.122  0.5476 -1.3858  1.0195
  150SAPE  H11Y16668   3.753   6.186   9.083  1.3088  0.2953 -0.5144
  150SAPE  C31216669   3.881   6.128   8.917  0.1257  0.7145 -0.0682
  150SAPE  H12X16670   3.805   6.064   8.867 -0.7454  1.9829 -0.4338
  150SAPE  H12Y16671   3.979   6.077   8.910 -0.6179 -0.8865  0.6553
  150SAPE  C31316672   3.889   6.262   8.845  0.3085  0.2243 -0.1788
  150SAPE  H13X16673   3.785   6.301   8.850  0.9240  1.8883  0.5170
  150SAPE  H13Y16674   3.909   6.252   8.736 -2.0973 -0.2229 -0.6376
  150SAPE  C31416675   3.981   6.358   8.923  0.1367 -0.7208  0.2776
  150SAPE  H14X16676   4.075   6.302   8.938 -0.1859 -1.2306  0.4138
  150SAPE  H14Y16677   3.948   6.376   9.027 -2.3000  0.0268 -0.5356
  150SAPE  C31516678   4.013   6.485   8.849 -0.5004 -0.1260  0.8158
  150SAPE  H15X16679   4.095   6.466   8.776 -0.2221  3.3311  0.0950
  150SAPE  H15Y16680   4.065   6.549   8.923 -0.3452  0.2983  0.3452
  150SAPE  C31616681   3.900   6.563   8.786  0.3856 -0.1956  0.0010
  150SAPE  H16X16682   3.839   6.508   8.710  1.3009 -0.3744 -0.6271
  150SAPE  H16Y16683   3.935   6.656   8.736 -0.2454 -0.5272 -1.1136
  150SAPE  C31716684   3.795   6.610   8.893 -0.2141  0.3112 -0.1266
  150SAPE  H17X16685   3.835   6.685   8.964 -1.5935  0.5583  0.4139
  150SAPE  H17Y16686   3.759   6.530   8.961  0.5568  0.3738  0.3694
  150SAPE  C31816687   3.679   6.684   8.826 -0.2287  0.0440 -0.1096
  150SAPE  H18X16688   3.625   6.623   8.751  0.1146 -0.6594  0.2052
  150SAPE  H18Y16689   3.719   6.771   8.771  2.8825  0.6506  2.7743
  150SAPE  H18Z16690   3.604   6.724   8.898 -0.4498 -0.7242  0.1036
  151SAPE     N16691   1.121   3.229  10.573  1.3961 -0.7586 -0.3391
  151SAPE   HN116692   1.212   3.251  10.529  1.7969 -1.0504  0.3324
  151SAPE   HN216693   1.129   3.143  10.631  1.0768 -1.7387 -1.6831
  151SAPE   HN316694   1.044   3.208  10.506  0.7507 -2.1744  0.7882
  151SAPE   C1216695   1.094   3.346  10.671  0.5209  0.4066 -0.2031
  151SAPE  H12A16696   1.182   3.360  10.738  0.4137  1.6237 -0.2947
  151SAPE  H12B16697   1.002   3.333  10.732  0.1349  2.6283 -0.2067
  151SAPE   C1116698   1.073   3.475  10.585  0.1189  0.1633  0.6337
  151SAPE  H11A16699   1.175   3.503  10.551  0.0309 -0.1149  0.1317
  151SAPE  H11B16700   1.054   3.559  10.655 -0.5495  0.4181  0.1554
  151SAPE     P16701   0.935   3.605  10.418 -0.3452 -0.5632 -0.1016
  151SAPE   O1316702   0.889   3.683  10.539  0.4014  0.6077  0.3859
  151SAPE   O1416703   1.032   3.658  10.324 -0.0313  0.3810 -0.8337
  151SAPE   O1216704   0.985   3.461  10.477 -0.3287  0.4443 -0.3926
  151SAPE   O1116705   0.805   3.564  10.339  0.7860  0.3368  0.1300
  151SAPE    C116706   0.716   3.456  10.372 -0.2824  0.3213 -0.4804
  151SAPE    HA16707   0.722   3.431  10.480 -0.1324  0.7728 -0.3801
  151SAPE    HB16708   0.613   3.491  10.352  0.2425  1.9252 -0.5548
  151SAPE    C216709   0.758   3.333  10.292  0.3514  0.5434 -0.0996
  151SAPE    HS16710   0.869   3.327  10.295  0.3195  0.2146  0.3396
  151SAPE   O2116711   0.716   3.343  10.148 -0.1700 -0.0661 -0.1721
  151SAPE   C2116712   0.803   3.373  10.054 -0.0380  0.2322  0.4983
  151SAPE   O2216713   0.923   3.378  10.067 -0.3591 -0.1040  0.2332
  151SAPE   C2216714   0.728   3.395   9.921  0.1622 -0.0414 -0.7375
  151SAPE   H2R16715   0.658   3.310   9.907  0.8736 -0.8519  0.4603
  151SAPE   H2S16716   0.676   3.493   9.928  0.9262  0.3882 -0.9734
  151SAPE    C316717   0.693   3.205  10.347 -0.6573 -0.5837 -0.4465
  151SAPE    HX16718   0.583   3.214  10.332 -0.6661  4.1222  0.7001
  151SAPE    HY16719   0.711   3.206  10.457 -0.7371  0.5967 -0.4311
  151SAPE   O3116720   0.751   3.084  10.288  0.1370  0.1708 -0.4249
  151SAPE   C3116721   0.867   3.045  10.332  0.1882 -0.6713  0.5121
  151SAPE   O3216722   0.933   3.111  10.412 -0.2911 -0.1802 -0.0103
  151SAPE   C3216723   0.917   2.910  10.285  0.3430  0.0268 -0.4444
  151SAPE   H2X16724   0.852   2.870  10.204 -2.3160  1.7020  0.6842
  151SAPE   H2Y16725   0.926   2.833  10.365  0.5790 -0.2261 -0.7171
  151SAPE   C2316726   0.812   3.400   9.791 -0.2827 -0.0707 -0.0177
  151SAPE   H3R16727   0.838   3.295   9.766  1.9898  0.4273  0.0008
  151SAPE   H3S16728   0.911   3.449   9.802  0.6217 -1.8876  0.3915
  151SAPE   C2416729   0.733   3.463   9.678 -0.0595 -0.0851 -0.0650
  151SAPE   H4R16730   0.683   3.561   9.693 -0.6973 -0.2354 -1.1372
  151SAPE   H4S16731   0.648   3.396   9.652  0.9092 -2.4873  2.4662
  151SAPE   C2516732   0.825   3.476   9.557  0.1318  0.3641  0.1260
  151SAPE   H5R16733   0.927   3.487   9.596 -0.0787 -0.6669  1.0404
  151SAPE   C2616734   0.807   3.456   9.426  0.0481 -0.0695 -0.5031
  151SAPE   H6R16735   0.888   3.481   9.355 -0.5111 -2.3072 -2.0332
  151SAPE   C2716736   0.678   3.432   9.362  0.0989  0.2469  0.1432
  151SAPE   H7R16737   0.624   3.529   9.362  0.6843  0.6196  2.5265
  151SAPE   H7S16738   0.608   3.363   9.413 -0.6367  0.1986 -0.9056
  151SAPE   C2816739   0.692   3.367   9.224 -0.6174 -0.3501  0.7830
  151SAPE   H8R16740   0.693   3.257   9.222  0.5039 -0.5230 -4.9047
  151SAPE   C2916741   0.687   3.430   9.105  0.9810 -0.1429  0.4003
  151SAPE   H9R16742   0.696   3.372   9.012  1.2375 -0.6047  0.7075
  151SAPE  C21016743   0.666   3.583   9.083  0.0387  0.1296  0.3209
  151SAPE  H10R16744   0.626   3.627   9.177 -0.2356 -1.7791  1.1497
  151SAPE  H10S16745   0.596   3.610   9.001  0.1957 -0.4646 -0.0177
  151SAPE  C21116746   0.802   3.640   9.050  0.5501  1.0751  0.1816
  151SAPE  H11R16747   0.848   3.687   9.138 -0.4997  2.3752  0.0597
  151SAPE  C21216748   0.852   3.651   8.929 -0.7328 -0.8966  0.2113
  151SAPE  H12R16749   0.952   3.696   8.925 -0.8216 -0.6985  0.2086
  151SAPE  C21316750   0.783   3.615   8.804  0.5788  0.3459 -0.3317
  151SAPE  H13R16751   0.676   3.642   8.813  0.6730  0.9542 -0.9039
  151SAPE  H13S16752   0.787   3.505   8.789  4.3112 -0.1452  2.7574
  151SAPE  C21416753   0.851   3.693   8.694  0.4190 -0.0839  0.1547
  151SAPE  H14R16754   0.913   3.783   8.708 -2.1155  1.9145 -0.6148
  151SAPE  C21516755   0.827   3.671   8.563 -0.0238 -0.0307 -0.0137
  151SAPE  H15R16756   0.895   3.724   8.494 -1.9277 -0.0431 -2.0265
  151SAPE  C21616757   0.739   3.561   8.498 -0.2059 -0.2841 -0.4692
  151SAPE  H16R16758   0.654   3.602   8.441  0.6638 -0.9090 -2.3135
  151SAPE  H16S16759   0.691   3.499   8.577  1.1938 -1.2410 -0.3241
  151SAPE  C21716760   0.823   3.460   8.421 -0.8142 -0.3247 -0.7263
  151SAPE  H17R16761   0.899   3.419   8.491 -1.5398  0.4743  0.5678
  151SAPE  H17S16762   0.891   3.506   8.345  0.4656  0.2074  0.6909
  151SAPE  C21816763   0.756   3.338   8.363  0.0413 -0.4630 -0.0681
  151SAPE  H18R16764   0.677   3.295   8.427  0.1936 -2.1186 -0.9164
  151SAPE  H18S16765   0.842   3.268   8.355 -0.5309 -1.0427 -1.5098
  151SAPE  C21916766   0.715   3.363   8.215  0.1568 -0.2476 -0.9906
  151SAPE  H19R16767   0.764   3.294   8.142  1.8966  0.9001 -0.9477
  151SAPE  H19S16768   0.748   3.465   8.186 -2.8535  1.0395 -0.2188
  151SAPE  C22016769   0.562   3.361   8.198 -0.4821 -0.2866  0.0297
  151SAPE  H20R16770   0.503   3.447   8.238  1.4819  1.8761 -1.4278
  151SAPE  H20S16771   0.517   3.266   8.233 -1.4420 -0.3477 -1.3037
  151SAPE  H20T16772   0.555   3.364   8.088  2.5578  3.8119 -0.3106
  151SAPE   C3316773   1.064   2.931  10.231  0.1039  0.4556  0.3788
  151SAPE   H3X16774   1.111   2.831  10.220  0.4074  0.5683  0.6382
  151SAPE   H3Y16775   1.125   2.982  10.309 -0.4623 -0.8176  1.6984
  151SAPE   C3416776   1.066   3.014  10.098  0.3320 -0.0148  0.2777
  151SAPE   H4X16777   1.173   3.024  10.070  0.8122 -1.7262  1.3553
  151SAPE   H4Y16778   1.025   3.114  10.123 -1.1825 -0.9700  1.7995
  151SAPE   C3516779   0.991   2.954   9.977 -0.2457 -0.0585  0.2535
  151SAPE   H5X16780   0.885   2.941  10.007 -1.0594 -0.6606 -2.6150
  151SAPE   H5Y16781   1.023   2.851   9.952 -2.3472 -0.8630  0.7022
  151SAPE   C3616782   1.006   3.040   9.845 -0.2849 -0.2043  0.3948
  151SAPE   H6X16783   1.114   3.046   9.822 -0.4785  2.3784 -0.1617
  151SAPE   H6Y16784   0.967   3.144   9.858  4.5370  1.6637  2.3664
  151SAPE   C3716785   0.940   2.973   9.720  0.1364 -0.2547  0.2263
  151SAPE   H7X16786   0.832   2.952   9.736  0.2790 -0.7159  0.6024
  151SAPE   H7Y16787   0.980   2.871   9.704 -1.0884 -0.8160  0.5582
  151SAPE   C3816788   0.964   3.066   9.599 -0.1691 -0.1579 -0.3556
  151SAPE   H8X16789   1.074   3.057   9.589 -0.0924  1.0656 -0.7777
  151SAPE   H8Y16790   0.935   3.170   9.625 -0.3414 -0.1194 -0.6825
  151SAPE   C3916791   0.903   3.015   9.464  0.0097 -1.4717 -0.0227
  151SAPE   H9X16792   0.793   3.027   9.458  0.1769 -0.3579 -1.3818
  151SAPE   H9Y16793   0.925   2.908   9.442  0.3812 -1.2317 -0.8541
  151SAPE  C31016794   0.963   3.093   9.352 -0.0304  0.4624  0.1786
  151SAPE  H10X16795   1.073   3.075   9.348 -0.4723 -2.9101 -0.0902
  151SAPE  H10Y16796   0.966   3.202   9.373 -0.2523 -0.0494  3.3797
  151SAPE  C31116797   0.899   3.065   9.219  0.2745 -0.1618 -0.7432
  151SAPE  H11X16798   0.788   3.079   9.219  0.1236 -0.4860  2.5511
  151SAPE  H11Y16799   0.897   2.956   9.196 -0.8125  0.3015 -3.0924
  151SAPE  C31216800   0.968   3.135   9.104  0.5230 -0.3036  0.1407
  151SAPE  H12X16801   1.078   3.124   9.118  0.6105  1.3223  1.0217
  151SAPE  H12Y16802   0.948   3.245   9.107  1.5952 -0.0789 -0.2429
  151SAPE  C31316803   0.930   3.073   8.971  0.1227  0.6324 -0.4265
  151SAPE  H13X16804   0.824   3.102   8.955  0.6187  4.0910  1.5025
  151SAPE  H13Y16805   0.946   2.964   8.972 -1.3992  0.3562 -1.5991
  151SAPE  C31416806   1.019   3.126   8.851 -0.1430  0.0738 -0.4598
  151SAPE  H14X16807   1.124   3.126   8.887  0.0737  1.5522 -1.0290
  151SAPE  H14Y16808   0.992   3.234   8.843  0.0205  0.1907  0.4653
  151SAPE  C31516809   0.994   3.042   8.729 -0.1709  0.0698 -0.1627
  151SAPE  H15X16810   0.891   3.058   8.693 -0.1480  0.2821 -0.1353
  151SAPE  H15Y16811   1.000   2.935   8.760 -1.4860  0.0747  0.1764
  151SAPE  C31616812   1.096   3.067   8.607 -0.6242  0.4054 -0.1041
  151SAPE  H16X16813   1.195   3.020   8.623 -0.5536  0.9856  1.3128
  151SAPE  H16Y16814   1.121   3.175   8.601  0.1196  0.3357  1.3841
  151SAPE  C31716815   1.036   3.009   8.479 -0.2655  0.3768 -0.1163
  151SAPE  H17X16816   0.936   3.057   8.466 -0.6071  0.3669  2.1341
  151SAPE  H17Y16817   1.019   2.903   8.508  0.8533  0.6918  1.8550
  151SAPE  C31816818   1.130   3.018   8.366  0.6254 -0.4288  0.1044
  151SAPE  H18X16819   1.149   3.124   8.340  1.2770 -0.7683 -0.8616
  151SAPE  H18Y16820   1.084   2.975   8.275  1.2063 -0.3413 -0.2337
  151SAPE  H18Z16821   1.222   2.956   8.381  0.8032  0.0874  1.2430
  152SAPE     N16822   1.932   1.118  10.885  0.5919 -0.3164  0.0965
  152SAPE   HN116823   1.845   1.074  10.848 -1.1186  1.0574  2.2809
  152SAPE   HN216824   1.904   1.120  10.985  0.8260 -1.1665  0.1905
  152SAPE   HN316825   1.933   1.208  10.833 -0.3760 -0.6921 -0.5935
  152SAPE   C1216826   2.044   1.026  10.858 -0.1217 -0.7308  0.4961
  152SAPE  H12A16827   2.051   1.021  10.748 -2.0444  1.2217  0.2113
  152SAPE  H12B16828   2.027   0.925  10.902  2.8695 -0.9143  1.4127
  152SAPE   C1116829   2.172   1.081  10.917  0.2341 -0.2592 -0.3428
  152SAPE  H11A16830   2.152   1.108  11.023 -0.7353 -0.6185 -0.4295
  152SAPE  H11B16831   2.216   1.170  10.866 -0.2559  0.5093  0.5443
  152SAPE     P16832   2.381   0.969  10.800 -0.0313  0.0951 -0.1204
  152SAPE   O1316833   2.451   1.100  10.781  0.1264 -0.0610  0.6800
  152SAPE   O1416834   2.462   0.851  10.830  0.6761  0.1367  0.4448
  152SAPE   O1216835   2.278   0.985  10.923  0.7346 -0.2790 -0.4231
  152SAPE   O1116836   2.284   0.943  10.672  0.1246 -0.1655 -0.8314
  152SAPE    C116837   2.238   0.814  10.639 -0.6671 -0.5590 -0.0682
  152SAPE    HA16838   2.225   0.755  10.733 -2.0113  1.9045  1.3930
  152SAPE    HB16839   2.145   0.826  10.580  1.0079 -0.2690 -2.7749
  152SAPE    C216840   2.344   0.750  10.538 -0.1672  0.3832 -0.3486
  152SAPE    HS16841   2.444   0.743  10.585 -0.4241  1.9427  0.4780
  152SAPE   O2116842   2.347   0.823  10.415 -0.3940 -0.1598  0.7073
  152SAPE   C2116843   2.450   0.792  10.337 -0.2797  0.0599  0.2404
  152SAPE   O2216844   2.540   0.717  10.368  0.0433  0.0342  0.3480
  152SAPE   C2216845   2.440   0.861  10.204 -0.6620  0.1657  0.7332
  152SAPE   H2R16846   2.338   0.873  10.163  0.2219 -1.3272 -2.1595
  152SAPE   H2S16847   2.470   0.964  10.233 -1.1831  0.5792 -0.1693
  152SAPE    C316848   2.308   0.603  10.517  0.0752 -0.3992  0.2821
  152SAPE    HX16849   2.306   0.553  10.616  0.4020 -1.7631 -0.3700
  152SAPE    HY16850   2.390   0.548  10.466 -1.8430 -2.5638 -0.6344
  152SAPE   O3116851   2.177   0.589  10.464 -0.4090 -0.3154 -0.1433
  152SAPE   C3116852   2.182   0.562  10.334 -0.0411 -0.3266  1.2429
  152SAPE   O3216853   2.285   0.554  10.264 -0.1184  0.3461 -0.0726
  152SAPE   C3216854   2.040   0.536  10.277  0.4062  0.3016 -0.1103
  152SAPE   H2X16855   1.959   0.571  10.345 -1.0348 -1.1834 -0.9882
  152SAPE   H2Y16856   2.029   0.426  10.276 -3.9276  0.5302  0.1608
  152SAPE   C2316857   2.531   0.806  10.089 -0.3069  0.2284 -0.7137
  152SAPE   H3R16858   2.485   0.711  10.055  0.7556 -0.2424 -0.8639
  152SAPE   H3S16859   2.636   0.776  10.110  0.1045  0.3624 -2.4553
  152SAPE   C2416860   2.539   0.914   9.980 -0.4062  0.3509  0.2579
  152SAPE   H4R16861   2.607   0.993  10.020 -1.3396  1.0197  0.5586
  152SAPE   H4S16862   2.436   0.952   9.961 -0.1409  1.1558  0.3495
  152SAPE   C2516863   2.611   0.857   9.857 -0.3362 -0.2848 -0.2947
  152SAPE   H5R16864   2.698   0.801   9.895  1.6137  2.4793 -0.3329
  152SAPE   C2616865   2.583   0.870   9.727  0.6157 -0.7022 -0.2615
  152SAPE   H6R16866   2.653   0.832   9.652  0.5027  0.2221 -0.8489
  152SAPE   C2716867   2.463   0.950   9.673  0.0377 -0.2700 -0.3182
  152SAPE   H7R16868   2.501   1.050   9.643  0.7598 -0.4346  0.0229
  152SAPE   H7S16869   2.399   0.967   9.762  1.2100  1.7074  0.2130
  152SAPE   C2816870   2.403   0.882   9.553  0.2682 -0.1026 -0.2054
  152SAPE   H8R16871   2.338   0.796   9.577 -0.7093  1.3212  2.6684
  152SAPE   C2916872   2.421   0.903   9.427  0.0122  0.0877  0.5134
  152SAPE   H9R16873   2.364   0.834   9.364  0.5199 -0.3725  0.5441
  152SAPE  C21016874   2.504   1.003   9.346  0.1457  0.3622 -1.2827
  152SAPE  H10R16875   2.472   1.103   9.382  1.9691 -0.3657  3.0886
  152SAPE  H10S16876   2.478   0.983   9.240  2.8176  2.0215 -2.3363
  152SAPE  C21116877   2.653   0.991   9.353 -0.6124 -0.6250 -0.1078
  152SAPE  H11R16878   2.701   0.906   9.404  1.8688  0.1286 -1.0672
  152SAPE  C21216879   2.736   1.069   9.290 -0.1826  0.0711  0.6757
  152SAPE  H12R16880   2.842   1.041   9.298  0.2852  1.1925 -0.9115
  152SAPE  C21316881   2.708   1.190   9.209 -0.0553  0.3619 -0.1765
  152SAPE  H13R16882   2.600   1.212   9.200 -0.5341 -2.2814 -2.1955
  152SAPE  H13S16883   2.730   1.148   9.109 -0.7584 -0.7012  0.1007
  152SAPE  C21416884   2.792   1.311   9.234 -0.0737 -0.6289 -0.6710
  152SAPE  H14R16885   2.855   1.349   9.152  0.5306 -1.6244 -0.6785
  152SAPE  C21516886   2.803   1.377   9.343 -0.3702 -0.0801  0.6455
  152SAPE  H15R16887   2.871   1.463   9.347  0.7757 -0.8696 -0.9350
  152SAPE  C21616888   2.726   1.349   9.470  0.1156  0.8492  0.0706
  152SAPE  H16R16889   2.646   1.273   9.460 -1.5874  2.5558  0.2292
  152SAPE  H16S16890   2.673   1.438   9.509 -0.6945  0.0317  0.9110
  152SAPE  C21716891   2.823   1.301   9.572 -0.1005  0.5121 -0.2649
  152SAPE  H17R16892   2.908   1.369   9.593  0.2766  0.2075 -0.7750
  152SAPE  H17S16893   2.882   1.219   9.526  0.0703  0.7539 -0.4845
  152SAPE  C21816894   2.753   1.272   9.709 -0.0892  0.4119 -0.0463
  152SAPE  H18R16895   2.696   1.178   9.694  1.1397 -0.5196  0.8854
  152SAPE  H18S16896   2.696   1.364   9.735  0.1972  0.4252  0.5490
  152SAPE  C21916897   2.852   1.276   9.827  0.0073 -0.5195  0.3954
  152SAPE  H19R16898   2.925   1.360   9.816  0.5907 -1.0081  0.4634
  152SAPE  H19S16899   2.932   1.199   9.823 -0.5745 -1.0786 -0.7724
  152SAPE  C22016900   2.799   1.265   9.965 -0.2351 -0.3387 -0.2456
  152SAPE  H20R16901   2.719   1.336   9.996 -1.2174 -2.5271  2.6707
  152SAPE  H20S16902   2.881   1.269  10.040 -1.1988 -0.4636  0.8319
  152SAPE  H20T16903   2.752   1.166   9.983 -1.0703  0.4582  2.3141
  152SAPE   C3316904   2.019   0.591  10.130 -0.2330 -1.0668 -0.1294
  152SAPE   H3X16905   1.915   0.573  10.094 -0.7569  2.5360 -0.8310
  152SAPE   H3Y16906   2.093   0.542  10.064  1.0657  1.8230 -0.9926
  152SAPE   C3416907   2.032   0.747  10.128  0.4347  0.2870  0.4281
  152SAPE   H4X16908   2.138   0.777  10.141  0.0714  1.9778 -0.2742
  152SAPE   H4Y16909   1.971   0.798  10.206 -1.4781  0.6821 -1.2479
  152SAPE   C3516910   1.996   0.808   9.987  1.3987 -0.2912 -0.3285
  152SAPE   H5X16911   1.987   0.918   9.992 -1.4302 -0.4318 -0.6672
  152SAPE   H5Y16912   1.895   0.772   9.957  2.4241 -2.6044 -1.2562
  152SAPE   C3616913   2.099   0.783   9.878  0.6138  0.2782  0.4286
  152SAPE   H6X16914   2.100   0.672   9.880 -3.7559  0.0394 -0.7036
  152SAPE   H6Y16915   2.199   0.820   9.911  0.2991 -0.1596  1.9780
  152SAPE   C3716916   2.062   0.824   9.734 -0.1629  0.0626 -0.3389
  152SAPE   H7X16917   2.149   0.882   9.697  0.2140  1.0484  1.9553
  152SAPE   H7Y16918   1.969   0.886   9.735  0.6000  1.2882 -1.7812
  152SAPE   C3816919   2.038   0.710   9.638 -0.2865  0.6653  0.4839
  152SAPE   H8X16920   1.957   0.638   9.666 -0.0718 -0.9303 -2.5425
  152SAPE   H8Y16921   2.130   0.649   9.631 -1.6015 -1.4621  0.7248
  152SAPE   C3916922   2.004   0.740   9.485  0.0689 -0.3750 -0.1659
  152SAPE   H9X16923   2.014   0.643   9.434  2.0990 -0.2220 -0.1319
  152SAPE   H9Y16924   2.076   0.815   9.444  1.6288 -1.0608  1.1712
  152SAPE  C31016925   1.861   0.797   9.473 -0.6587  0.0048  1.1355
  152SAPE  H10X16926   1.845   0.878   9.547 -1.2748  0.7102  0.2551
  152SAPE  H10Y16927   1.786   0.725   9.512  0.2234 -1.2155  0.6248
  152SAPE  C31116928   1.831   0.850   9.329  0.3620 -0.1678 -0.9239
  152SAPE  H11X16929   1.902   0.931   9.301 -1.3151  1.1540 -1.5608
  152SAPE  H11Y16930   1.738   0.900   9.364  1.9743  0.6759  2.6456
  152SAPE  C31216931   1.809   0.742   9.228 -0.2670 -0.3861  0.2342
  152SAPE  H12X16932   1.722   0.683   9.266 -0.0582  0.3470  1.9288
  152SAPE  H12Y16933   1.899   0.678   9.220  0.2094  0.1870  0.9473
  152SAPE  C31316934   1.764   0.807   9.090 -0.6232  0.7271 -0.0494
  152SAPE  H13X16935   1.828   0.896   9.069  1.9552 -0.4450  2.3022
  152SAPE  H13Y16936   1.666   0.853   9.116 -0.1772  1.7743 -0.1735
  152SAPE  C31416937   1.754   0.710   8.971  0.4984  0.0645  0.1934
  152SAPE  H14X16938   1.723   0.615   9.022  1.4546  0.3501  1.3426
  152SAPE  H14Y16939   1.852   0.697   8.921  0.0216 -0.0354 -0.7389
  152SAPE  C31516940   1.655   0.743   8.864 -0.2680 -0.3498 -0.2395
  152SAPE  H15X16941   1.673   0.847   8.829 -1.5049 -0.6875 -2.0094
  152SAPE  H15Y16942   1.551   0.739   8.904 -1.1946  3.3765 -1.8901
  152SAPE  C31616943   1.664   0.643   8.748 -0.6052 -0.6111  0.4072
  152SAPE  H16X16944   1.655   0.536   8.776 -0.7440 -1.1926 -1.6946
  152SAPE  H16Y16945   1.757   0.655   8.688 -0.2478 -3.8768  0.0966
  152SAPE  C31716946   1.550   0.674   8.655  0.3106 -0.1493  0.1732
  152SAPE  H17X16947   1.457   0.682   8.717 -0.3926 -2.5296 -0.4827
  152SAPE  H17Y16948   1.528   0.585   8.592  0.5561 -1.2643  1.5971
  152SAPE  C31816949   1.576   0.793   8.562  0.0351 -0.0498 -0.5252
  152SAPE  H18X16950   1.572   0.889   8.617  0.4308  0.3679 -1.2112
  152SAPE  H18Y16951   1.498   0.805   8.483  2.6756  1.3976 -3.1161
  152SAPE  H18Z16952   1.674   0.779   8.511 -0.9807 -0.1713 -2.5746
  153SAPE     N16953   3.311   3.748  10.962 -0.3525  0.3210 -0.0457
  153SAPE   HN116954   3.211   3.719  10.968 -0.5361  1.0378  0.4811
  153SAPE   HN216955   3.366   3.664  10.936  1.0845  0.6802  1.6298
  153SAPE   HN316956   3.335   3.779  11.058 -0.2116  1.1078 -0.3262
  153SAPE   C1216957   3.321   3.853  10.858  0.3804 -0.5599  0.1943
  153SAPE  H12A16958   3.425   3.886  10.838 -0.7460  1.8585 -2.3799
  153SAPE  H12B16959   3.259   3.937  10.895  0.7530 -0.6098  0.9589
  153SAPE   C1116960   3.256   3.801  10.723  0.4523  0.0024  0.2651
  153SAPE  H11A16961   3.291   3.698  10.701  0.2941 -0.6682  2.8194
  153SAPE  H11B16962   3.296   3.860  10.638 -0.0818  0.8408  0.5751
  153SAPE     P16963   3.017   3.745  10.627 -0.3944  0.2084 -0.1802
  153SAPE   O1316964   3.051   3.596  10.625  0.3878  0.4037 -1.0637
  153SAPE   O1416965   2.878   3.784  10.653  0.1541  0.2359 -0.2902
  153SAPE   O1216966   3.112   3.824  10.728  0.2162 -0.3046  0.2802
  153SAPE   O1116967   3.058   3.801  10.483  0.4630 -0.1224  0.2022
  153SAPE    C116968   3.029   3.933  10.440  0.2152 -0.6913 -0.6992
  153SAPE    HA16969   3.041   4.003  10.525 -1.2630 -1.4030  0.1245
  153SAPE    HB16970   3.097   3.949  10.353 -0.8002  0.3661 -1.3311
  153SAPE    C216971   2.888   3.958  10.389  1.1596  0.0387  0.2035
  153SAPE    HS16972   2.826   3.925  10.475  1.8208 -0.1403  0.6199
  153SAPE   O2116973   2.879   3.867  10.279  0.4542  0.5331  0.5427
  153SAPE   C2116974   2.756   3.810  10.263 -0.3746  0.5838  0.5781
  153SAPE   O2216975   2.659   3.848  10.326  0.3721 -0.3288 -0.6629
  153SAPE   C2216976   2.775   3.700  10.152  0.5301 -0.2893 -0.2420
  153SAPE   H2R16977   2.865   3.730  10.094  0.3411  0.5631 -0.1071
  153SAPE   H2S16978   2.803   3.608  10.206  0.2496 -0.5043 -0.4631
  153SAPE    C316979   2.834   4.099  10.349  0.0508 -0.5868  0.0651
  153SAPE    HX16980   2.841   4.174  10.431  1.4030 -0.3334 -0.2553
  153SAPE    HY16981   2.726   4.102  10.322  0.3064 -2.2885 -1.3201
  153SAPE   O3116982   2.913   4.157  10.240 -0.2527 -0.5778 -0.1660
  153SAPE   C3116983   2.863   4.130  10.123  0.0750 -0.0284  0.8031
  153SAPE   O3216984   2.766   4.063  10.096  0.5222  0.3358 -0.3916
  153SAPE   C3216985   2.957   4.187  10.017  0.7309 -0.7999  0.4432
  153SAPE   H2X16986   3.057   4.142  10.040  1.1076 -0.6211 -0.7772
  153SAPE   H2Y16987   2.964   4.295  10.041 -1.4899 -1.1667  3.2934
  153SAPE   C2316988   2.652   3.661  10.065 -1.7658  0.3725 -0.0684
  153SAPE   H3R16989   2.637   3.755  10.009  1.5461  1.8970  1.3443
  153SAPE   H3S16990   2.565   3.654  10.133 -3.0638  0.9281 -1.6000
  153SAPE   C2416991   2.669   3.531   9.989  0.2640 -0.0863  0.3667
  153SAPE   H4R16992   2.574   3.518   9.934 -0.9086  2.2705  1.6762
  153SAPE   H4S16993   2.670   3.452  10.068  0.2531 -1.1826 -0.6982
  153SAPE   C2516994   2.793   3.545   9.902 -0.4411  0.3418 -0.2682
  153SAPE   H5R16995   2.882   3.532   9.965 -1.0212  0.0321  0.5052
  153SAPE   C2616996   2.801   3.576   9.770  0.5790 -0.3742 -0.1573
  153SAPE   H6R16997   2.898   3.588   9.719 -0.5834  2.2800 -1.9915
  153SAPE   C2716998   2.683   3.606   9.684 -0.5893 -0.7098  0.2699
  153SAPE   H7R16999   2.680   3.710   9.645  3.0666 -0.1085  1.2174
  153SAPE   H7S17000   2.586   3.613   9.738  0.1118  2.2744  1.2981
  153SAPE   C2817001   2.650   3.494   9.597 -0.2487  0.2282  0.4769
  153SAPE   H8R17002   2.590   3.417   9.649  0.7796 -0.5774  0.5058
  153SAPE   C2917003   2.688   3.464   9.468 -0.3661  0.4240  0.2785
  153SAPE   H9R17004   2.665   3.365   9.427  2.9865 -0.4924  0.3482
  153SAPE  C21017005   2.786   3.548   9.375  0.9458 -0.3154  0.1283
  153SAPE  H10R17006   2.861   3.481   9.328  1.6272  0.5846 -0.1050
  153SAPE  H10S17007   2.846   3.616   9.439  1.0750 -0.0271 -0.2962
  153SAPE  C21117008   2.706   3.623   9.270 -0.8790  0.1306 -0.4337
  153SAPE  H11R17009   2.639   3.698   9.314 -2.0199 -0.9045 -0.3912
  153SAPE  C21217010   2.701   3.595   9.137  0.3545 -0.3217 -0.1515
  153SAPE  H12R17011   2.639   3.661   9.075 -0.9319  1.3852  2.7002
  153SAPE  C21317012   2.792   3.489   9.073 -0.1616 -0.2584  0.4356
  153SAPE  H13R17013   2.760   3.386   9.099 -0.7605  0.3060  2.0268
  153SAPE  H13S17014   2.896   3.506   9.108 -0.7016  5.7532  0.1906
  153SAPE  C21417015   2.779   3.501   8.922 -0.7854  0.8698  0.2787
  153SAPE  H14R17016   2.699   3.452   8.864  1.1224 -1.3961 -0.6282
  153SAPE  C21517017   2.882   3.544   8.838  0.3142  0.1455 -0.3686
  153SAPE  H15R17018   2.875   3.537   8.728 -0.5226 -2.1270 -0.2258
  153SAPE  C21617019   3.013   3.591   8.893 -0.6326  0.4167  0.1436
  153SAPE  H16R17020   3.013   3.639   8.993  1.1128  0.5844  0.0828
  153SAPE  H16S17021   3.052   3.664   8.820 -2.5120 -0.0416 -1.4150
  153SAPE  C21717022   3.102   3.466   8.899 -0.4946 -0.4105 -0.4943
  153SAPE  H17R17023   3.100   3.409   8.803  0.0536  1.0454 -1.4011
  153SAPE  H17S17024   3.067   3.409   8.987  2.0447 -0.0207  0.8508
  153SAPE  C21817025   3.247   3.504   8.929 -0.0629  0.5858 -0.2889
  153SAPE  H18R17026   3.295   3.413   8.971 -1.3378  0.3077  0.5955
  153SAPE  H18S17027   3.264   3.587   9.002  1.2759 -2.8502  3.6732
  153SAPE  C21917028   3.321   3.521   8.787 -0.2586  0.5620 -0.1154
  153SAPE  H19R17029   3.267   3.470   8.704  0.7366 -1.1793  0.2399
  153SAPE  H19S17030   3.422   3.476   8.798 -0.0103  1.3493  1.0266
  153SAPE  C22017031   3.354   3.666   8.734 -0.0904 -0.4072 -0.1163
  153SAPE  H20R17032   3.423   3.715   8.806  0.5196 -0.0905 -0.9016
  153SAPE  H20S17033   3.267   3.734   8.720  1.4216  1.7587  0.4311
  153SAPE  H20T17034   3.410   3.662   8.638 -1.5349 -0.1828 -1.0076
  153SAPE   C3317035   2.916   4.166   9.872  0.1411  0.4639  0.4476
  153SAPE   H3X17036   2.976   4.235   9.809  0.2543 -0.4066 -0.4043
  153SAPE   H3Y17037   2.814   4.202   9.850  0.1721 -0.7723 -2.0190
  153SAPE   C3417038   2.949   4.017   9.821 -0.0392  1.0229 -0.8722
  153SAPE   H4X17039   2.860   3.950   9.831 -0.4657  1.2923 -2.5517
  153SAPE   H4Y17040   3.035   3.980   9.880 -1.1836 -0.3103  0.0483
  153SAPE   C3517041   2.990   4.006   9.675 -0.2269 -1.0766  0.1537
  153SAPE   H5X17042   3.089   4.054   9.663 -0.0140 -1.6866 -0.6002
  153SAPE   H5Y17043   2.914   4.061   9.615  1.0853  0.5352 -0.0878
  153SAPE   C3617044   2.994   3.867   9.617 -0.7426  0.7762 -0.3457
  153SAPE   H6X17045   2.903   3.812   9.649  0.3869 -2.4251 -2.0991
  153SAPE   H6Y17046   3.081   3.812   9.660 -2.6033  0.2633  3.1109
  153SAPE   C3717047   3.013   3.852   9.467 -0.2795 -0.4045  0.5991
  153SAPE   H7X17048   2.912   3.865   9.423  0.3443 -0.2557 -0.8194
  153SAPE   H7Y17049   3.039   3.750   9.433 -2.2568 -0.8720  0.3522
  153SAPE   C3817050   3.109   3.953   9.399 -0.0926  0.7033  0.5519
  153SAPE   H8X17051   3.209   3.956   9.446 -0.8396  1.0341  2.1680
  153SAPE   H8Y17052   3.073   4.056   9.419 -0.5831  0.8866 -1.1012
  153SAPE   C3917053   3.123   3.938   9.243  0.8355 -0.0613  0.0894
  153SAPE   H9X17054   3.175   3.848   9.204 -1.0342 -0.2690 -2.0656
  153SAPE   H9Y17055   3.189   4.023   9.215 -0.2162  0.6779 -0.1844
  153SAPE  C31017056   2.994   3.959   9.165  0.0760 -0.1989 -0.1041
  153SAPE  H10X17057   2.941   4.023   9.238 -1.6306 -0.4411 -1.0805
  153SAPE  H10Y17058   2.945   3.859   9.163 -0.2942 -0.0177 -0.0835
  153SAPE  C31117059   2.992   4.028   9.026 -0.3024 -0.2526 -0.5054
  153SAPE  H11X17060   3.041   4.127   9.026 -0.0423 -0.3602 -1.9038
  153SAPE  H11Y17061   2.885   4.047   9.003 -0.1364  0.5410 -0.6246
  153SAPE  C31217062   3.051   3.947   8.915 -0.1571 -0.4241  0.3323
  153SAPE  H12X17063   2.977   3.869   8.886 -0.1487 -0.6371  0.8867
  153SAPE  H12Y17064   3.137   3.893   8.958 -0.2709  0.5279  1.8302
  153SAPE  C31317065   3.080   4.017   8.785  0.3904  0.0307 -0.8220
  153SAPE  H13X17066   3.110   3.941   8.710 -0.0978 -1.2148  0.2055
  153SAPE  H13Y17067   3.166   4.087   8.798  1.5785 -0.7760 -3.5727
  153SAPE  C31417068   2.971   4.109   8.733 -0.5935 -0.6386  0.8322
  153SAPE  H14X17069   2.971   4.193   8.805  1.8016  0.6118 -0.5056
  153SAPE  H14Y17070   2.875   4.053   8.730 -0.5729 -0.7080  1.4199
  153SAPE  C31517071   2.988   4.154   8.589 -0.4266  0.7825 -0.2303
  153SAPE  H15X17072   2.906   4.225   8.567 -0.5880  1.3287  1.8993
  153SAPE  H15Y17073   2.974   4.059   8.532  1.5365  0.8393 -0.8900
  153SAPE  C31617074   3.126   4.220   8.583  0.1025  0.1032 -0.1491
  153SAPE  H16X17075   3.203   4.141   8.570 -1.4413 -1.0975 -2.8529
  153SAPE  H16Y17076   3.147   4.265   8.682 -0.4567 -0.2531  0.1338
  153SAPE  C31717077   3.131   4.316   8.466 -0.0437 -0.2173 -0.4455
  153SAPE  H17X17078   3.055   4.397   8.464  0.7450  0.5223 -1.5353
  153SAPE  H17Y17079   3.118   4.251   8.377  0.8392 -2.8865  1.2605
  153SAPE  C31817080   3.267   4.386   8.457  0.9411  0.6473  0.4210
  153SAPE  H18X17081   3.269   4.467   8.532  0.8685  1.3033 -0.2735
  153SAPE  H18Y17082   3.281   4.434   8.358  1.6274 -1.7387 -0.7127
  153SAPE  H18Z17083   3.352   4.317   8.477  0.5166 -0.0671 -0.1600
  154SAPE     N17084   3.273   2.677  10.885 -0.2047 -0.0392  0.4380
  154SAPE   HN117085   3.362   2.657  10.936 -0.4594  1.7454  1.6955
  154SAPE   HN217086   3.206   2.597  10.893  0.3242 -0.5393 -0.0269
  154SAPE   HN317087   3.309   2.682  10.788 -0.6596 -1.7519  0.1399
  154SAPE   C1217088   3.224   2.806  10.943 -0.5658 -0.5014  0.1313
  154SAPE  H12A17089   3.310   2.877  10.945 -0.5571 -0.5152  0.3098
  154SAPE  H12B17090   3.192   2.790  11.048 -0.8003 -4.3186 -0.3807
  154SAPE   C1117091   3.099   2.855  10.872  0.0739  0.5592  0.7048
  154SAPE  H11A17092   3.021   2.776  10.879  1.9516 -1.6673 -1.3188
  154SAPE  H11B17093   3.120   2.853  10.763  2.1107 -0.3855  1.0723
  154SAPE     P17094   3.120   3.106  10.848  0.6207  0.1099 -0.1033
  154SAPE   O1317095   3.024   3.216  10.880  0.0633  1.2340 -0.0967
  154SAPE   O1417096   3.261   3.118  10.894  0.6943  0.7899 -0.7165
  154SAPE   O1217097   3.058   2.981  10.919  0.0383  0.7062  0.0089
  154SAPE   O1117098   3.118   3.082  10.690 -0.1989  1.2713  0.3709
  154SAPE    C117099   3.249   3.058  10.628  0.9717  0.2613 -0.2074
  154SAPE    HA17100   3.316   3.146  10.638  0.3663  0.8018 -0.7641
  154SAPE    HB17101   3.294   2.969  10.676 -0.7154  0.2320  1.4259
  154SAPE    C217102   3.244   3.027  10.475  0.4817 -1.1671  0.8798
  154SAPE    HS17103   3.244   2.919  10.449  1.6830 -0.6738 -1.4428
  154SAPE   O2117104   3.371   3.080  10.429  0.4219 -0.0413  0.3323
  154SAPE   C2117105   3.475   3.006  10.446 -0.3083  0.3657  0.1623
  154SAPE   O2217106   3.475   2.891  10.490  0.0490  0.4762 -0.7621
  154SAPE   C2217107   3.600   3.073  10.375 -0.3760 -0.1629 -0.3899
  154SAPE   H2R17108   3.563   3.178  10.367 -0.7219 -0.4082 -3.2157
  154SAPE   H2S17109   3.678   3.066  10.454 -2.5097 -2.3380  1.6958
  154SAPE    C317110   3.127   3.101  10.399  0.2063  0.5562  0.2384
  154SAPE    HX17111   3.138   3.199  10.450 -0.4309 -0.8556  3.2999
  154SAPE    HY17112   3.029   3.061  10.434  0.8228 -0.6152  0.6967
  154SAPE   O3117113   3.139   3.120  10.255  0.0118  0.7105 -0.0010
  154SAPE   C3117114   3.122   3.005  10.184  0.4985  0.4833 -0.1915
  154SAPE   O3217115   3.089   2.897  10.233  0.5601  0.1709  0.3466
  154SAPE   C3217116   3.122   3.033  10.038 -0.3675 -0.4705  0.3529
  154SAPE   H2X17117   3.166   3.133  10.020 -0.3602 -0.1289  2.0829
  154SAPE   H2Y17118   3.017   3.030  10.002 -0.5857 -0.6330  0.9723
  154SAPE   C2317119   3.632   3.021  10.239  0.1863  1.0186 -0.1256
  154SAPE   H3R17120   3.680   2.921  10.238 -3.1220 -0.7536  1.9651
  154SAPE   H3S17121   3.703   3.095  10.196 -0.6293  3.1170  1.9245
  154SAPE   C2417122   3.511   3.011  10.145 -0.4551  0.0268 -0.0404
  154SAPE   H4R17123   3.433   2.947  10.192 -0.7403 -0.2984 -0.9312
  154SAPE   H4S17124   3.541   2.950  10.056  0.6540  2.1687 -1.2100
  154SAPE   C2517125   3.445   3.147  10.106 -0.1577 -0.0199 -0.4008
  154SAPE   H5R17126   3.400   3.186  10.198  1.1725  0.7490 -0.0619
  154SAPE   C2617127   3.438   3.197   9.978 -0.1108 -0.3672 -0.2146
  154SAPE   H6R17128   3.390   3.296   9.967  0.7819  0.1036  0.0214
  154SAPE   C2717129   3.498   3.128   9.860 -0.0989 -0.8403 -0.2131
  154SAPE   H7R17130   3.411   3.095   9.799 -0.9421  0.6726  0.1115
  154SAPE   H7S17131   3.552   3.034   9.883 -0.1740 -0.9342 -0.4196
  154SAPE   C2817132   3.586   3.227   9.791 -0.1840  0.3027 -0.9880
  154SAPE   H8R17133   3.607   3.324   9.838 -1.7619  0.8211 -1.2564
  154SAPE   C2917134   3.634   3.205   9.671  0.2543 -0.4664  0.2075
  154SAPE   H9R17135   3.702   3.282   9.631  0.9189 -0.9192  0.4540
  154SAPE  C21017136   3.604   3.090   9.586 -0.3732  0.1843  0.1936
  154SAPE  H10R17137   3.500   3.054   9.593 -0.7375  0.4806 -2.4196
  154SAPE  H10S17138   3.678   3.019   9.628  0.2184  0.7525  0.1420
  154SAPE  C21117139   3.642   3.131   9.440 -0.4692 -0.4682 -0.2899
  154SAPE  H11R17140   3.734   3.189   9.426 -0.2463 -0.7450  0.0212
  154SAPE  C21217141   3.577   3.100   9.329  0.2028 -0.3319  1.1854
  154SAPE  H12R17142   3.606   3.143   9.232  0.6338  1.1463  1.9339
  154SAPE  C21317143   3.459   3.019   9.322  0.8959  0.1507 -0.4350
  154SAPE  H13R17144   3.395   3.040   9.410  0.5690  2.7545 -1.2147
  154SAPE  H13S17145   3.505   2.918   9.332  2.9173  1.1606  1.2869
  154SAPE  C21417146   3.374   3.031   9.195 -0.2460 -0.1347  0.6824
  154SAPE  H14R17147   3.399   2.954   9.120  2.1414  1.3532 -0.1211
  154SAPE  C21517148   3.281   3.116   9.166 -0.0253 -0.7437 -0.2080
  154SAPE  H15R17149   3.228   3.118   9.070  0.2116 -0.2260 -0.3309
  154SAPE  C21617150   3.231   3.221   9.264 -0.6967 -0.3140  0.6370
  154SAPE  H16R17151   3.223   3.316   9.208 -1.9199 -0.0643  1.1978
  154SAPE  H16S17152   3.299   3.242   9.349 -0.8493 -0.4243  0.7883
  154SAPE  C21717153   3.088   3.201   9.301  0.1691 -0.3205  0.0373
  154SAPE  H17R17154   3.066   3.093   9.313 -1.4554 -0.2791 -1.9851
  154SAPE  H17S17155   3.023   3.237   9.219  2.5555  1.7667 -1.0537
  154SAPE  C21817156   3.052   3.274   9.437 -0.2646  0.0081 -0.2611
  154SAPE  H18R17157   2.946   3.298   9.460 -0.0199  0.5108  0.3913
  154SAPE  H18S17158   3.099   3.375   9.430 -3.4292  1.6622  0.6781
  154SAPE  C21917159   3.116   3.203   9.555 -0.4037 -0.1250  0.0893
  154SAPE  H19R17160   3.224   3.225   9.574 -0.1131 -0.1732 -1.3617
  154SAPE  H19S17161   3.112   3.092   9.545  2.9268 -0.3679  0.3196
  154SAPE  C22017162   3.041   3.247   9.682 -0.0795 -0.0446 -0.1991
  154SAPE  H20R17163   3.056   3.189   9.775 -0.7214  1.3371  0.8037
  154SAPE  H20S17164   2.932   3.246   9.658  0.6298  1.0895 -4.1025
  154SAPE  H20T17165   3.061   3.352   9.710  0.5033  0.0504 -0.9526
  154SAPE   C3317166   3.208   2.924   9.964  0.4466  0.6025 -0.1685
  154SAPE   H3X17167   3.186   2.824  10.007  1.8466  0.1611 -0.4045
  154SAPE   H3Y17168   3.316   2.939   9.985  0.8314 -1.3475 -0.5824
  154SAPE   C3417169   3.188   2.903   9.813 -0.2221  0.7209 -0.4523
  154SAPE   H4X17170   3.237   2.984   9.755 -1.4193  0.7872 -1.3990
  154SAPE   H4Y17171   3.079   2.898   9.791  0.0973 -0.1249 -1.9829
  154SAPE   C3517172   3.251   2.768   9.770  0.7559  0.2238 -0.1651
  154SAPE   H5X17173   3.193   2.687   9.819 -0.4492  1.5063  0.5965
  154SAPE   H5Y17174   3.349   2.760   9.822  0.4594  0.5262  0.4537
  154SAPE   C3617175   3.267   2.756   9.617 -0.3541  0.5019  0.2417
  154SAPE   H6X17176   3.340   2.675   9.596  0.6618  1.7716 -1.4214
  154SAPE   H6Y17177   3.305   2.852   9.576  1.6065 -1.2893 -2.5215
  154SAPE   C3717178   3.137   2.738   9.549  0.1860 -0.1116 -0.3192
  154SAPE   H7X17179   3.068   2.820   9.580  1.1368 -0.1972  2.2231
  154SAPE   H7Y17180   3.092   2.646   9.591 -2.2248  0.9555 -0.4027
  154SAPE   C3817181   3.141   2.748   9.395 -0.0236  0.3741 -0.6291
  154SAPE   H8X17182   3.221   2.815   9.356  0.0552 -2.2003 -5.8570
  154SAPE   H8Y17183   3.041   2.786   9.362 -0.2324  0.8629  0.5138
  154SAPE   C3917184   3.177   2.619   9.322  0.5099 -0.0619 -0.1396
  154SAPE   H9X17185   3.095   2.547   9.345  1.7109 -0.9095  1.7309
  154SAPE   H9Y17186   3.269   2.575   9.366 -0.5674 -2.2396  0.0863
  154SAPE  C31017187   3.181   2.624   9.166 -0.3063 -0.9459  0.4458
  154SAPE  H10X17188   3.197   2.518   9.136 -0.2142 -1.2526  1.5461
  154SAPE  H10Y17189   3.264   2.689   9.131 -1.1100 -1.4578 -2.7031
  154SAPE  C31117190   3.058   2.674   9.082  0.0812 -0.2561  0.5010
  154SAPE  H11X17191   2.971   2.610   9.107 -1.2651  0.8937 -1.0361
  154SAPE  H11Y17192   3.080   2.639   8.979 -0.7253  0.6198  0.0085
  154SAPE  C31217193   3.018   2.825   9.097  0.0449 -0.5776 -0.2846
  154SAPE  H12X17194   3.113   2.883   9.097  1.7402 -3.1716  1.0574
  154SAPE  H12Y17195   2.953   2.848   9.183  1.3032 -0.3192  0.6200
  154SAPE  C31317196   2.935   2.867   8.976  0.3137  0.0567 -0.0306
  154SAPE  H13X17197   2.840   2.809   8.982  0.8515 -0.6683  2.3415
  154SAPE  H13Y17198   2.988   2.833   8.885 -1.4310 -0.9425 -0.7206
  154SAPE  C31417199   2.913   3.018   8.957 -0.6138  0.0128  0.7170
  154SAPE  H14X17200   3.011   3.070   8.944 -0.8059 -0.1445 -1.8100
  154SAPE  H14Y17201   2.870   3.054   9.053 -2.7001 -0.1045 -0.1185
  154SAPE  C31517202   2.817   3.058   8.840 -0.0473 -0.0293  0.3128
  154SAPE  H15X17203   2.807   3.168   8.829  2.0771  0.1837  0.0543
  154SAPE  H15Y17204   2.726   2.994   8.843  0.0529 -0.2131 -0.3742
  154SAPE  C31617205   2.881   3.009   8.709 -0.0734  0.3091  0.0481
  154SAPE  H16X17206   2.863   2.900   8.705  0.7402  0.1980 -1.1347
  154SAPE  H16Y17207   2.992   3.005   8.714 -0.0169  0.8033 -0.6898
  154SAPE  C31717208   2.835   3.081   8.585  0.5935  0.3707 -0.3581
  154SAPE  H17X17209   2.904   3.164   8.558 -2.1510  3.3947  1.1018
  154SAPE  H17Y17210   2.728   3.110   8.597  0.5837  1.1280 -1.9482
  154SAPE  C31817211   2.835   3.002   8.456  0.4375 -0.3598 -0.5409
  154SAPE  H18X17212   2.756   2.924   8.454 -0.1831  0.1957  0.9561
  154SAPE  H18Y17213   2.931   2.948   8.449  0.1840 -0.7291 -1.2512
  154SAPE  H18Z17214   2.817   3.074   8.373  3.4627  0.0212 -0.9833
  155SAPE     N17215   4.236   3.650  10.766 -0.0004 -0.0264  0.0575
  155SAPE   HN117216   4.174   3.731  10.788 -1.0378 -1.2857  2.0572
  155SAPE   HN217217   4.181   3.567  10.735 -0.8570  0.5373  0.0379
  155SAPE   HN317218   4.298   3.625  10.846 -0.2381 -0.4803  0.1047
  155SAPE   C1217219   4.315   3.703  10.652  0.0737  0.9462 -0.6422
  155SAPE  H12A17220   4.250   3.723  10.564  0.1612 -1.2358 -1.2563
  155SAPE  H12B17221   4.380   3.618  10.621 -1.4549 -0.5110  0.0038
  155SAPE   C1117222   4.386   3.830  10.693  0.0405  0.0961  0.1938
  155SAPE  H11A17223   4.312   3.908  10.722 -1.2153 -0.5445 -1.1249
  155SAPE  H11B17224   4.439   3.875  10.607  0.7096  0.9491  1.0429
  155SAPE     P17225   4.629   3.759  10.770  0.0544  0.5233 -0.4707
  155SAPE   O1317226   4.714   3.772  10.884 -0.8757 -0.2945  0.0222
  155SAPE   O1417227   4.630   3.622  10.725 -0.2671  0.3442  0.5221
  155SAPE   O1217228   4.483   3.812  10.799 -0.0354 -0.4024 -0.0306
  155SAPE   O1117229   4.684   3.845  10.646  0.5266 -0.1021 -0.1594
  155SAPE    C117230   4.704   3.988  10.637 -0.0055  0.1801 -0.1525
  155SAPE    HA17231   4.610   4.038  10.671 -0.0888  0.2042 -0.4138
  155SAPE    HB17232   4.778   4.025  10.711 -0.1020  1.3721 -0.6193
  155SAPE    C217233   4.722   4.045  10.497  0.4293 -0.8151 -0.0761
  155SAPE    HS17234   4.748   4.153  10.498  2.8708 -1.3393 -0.0815
  155SAPE   O2117235   4.610   4.005  10.416  0.4014 -0.3964  0.5038
  155SAPE   C2117236   4.597   4.082  10.304  0.9165  0.0986 -1.0705
  155SAPE   O2217237   4.632   4.196  10.299  0.0838 -0.0034  0.5082
  155SAPE   C2217238   4.510   4.013  10.198 -0.0712 -0.1326  0.2037
  155SAPE   H2R17239   4.475   4.096  10.132  1.7034  0.7413  0.3039
  155SAPE   H2S17240   4.589   3.962  10.138 -0.5212  0.0328 -0.5396
  155SAPE    C317241   4.849   3.982  10.440  0.4398  0.1446  0.4655
  155SAPE    HX17242   4.833   3.873  10.457 -1.1306  0.6341  2.5139
  155SAPE    HY17243   4.937   4.014  10.500  0.1760 -1.0843  1.5531
  155SAPE   O3117244   4.870   4.008  10.304  0.1573 -0.3658 -0.0202
  155SAPE   C3117245   4.920   4.132  10.275  0.0347 -0.2926  0.3286
  155SAPE   O3217246   4.946   4.219  10.353  0.3524 -0.5951 -0.6496
  155SAPE   C3217247   4.936   4.154  10.123  0.0637 -0.0540 -0.9412
  155SAPE   H2X17248   4.889   4.064  10.078  2.7999 -0.9568 -2.2701
  155SAPE   H2Y17249   5.043   4.162  10.093  0.5559  1.2637  0.9401
  155SAPE   C2317250   4.403   3.920  10.249 -0.4027 -0.3088 -0.4392
  155SAPE   H3R17251   4.343   3.973  10.325 -1.2952 -0.3125 -1.1299
  155SAPE   H3S17252   4.441   3.833  10.308 -1.0986 -1.1425 -1.1837
  155SAPE   C2417253   4.319   3.851  10.140  0.3270  0.3670 -0.2102
  155SAPE   H4R17254   4.385   3.772  10.100  0.3542 -0.9592  2.2360
  155SAPE   H4S17255   4.283   3.917  10.058 -0.9747 -0.4527 -0.3269
  155SAPE   C2517256   4.190   3.788  10.203 -0.0987  0.3811  1.0015
  155SAPE   H5R17257   4.186   3.763  10.310 -0.8702 -0.7352  0.7311
  155SAPE   C2617258   4.085   3.746  10.129 -0.1252 -0.2021 -0.2672
  155SAPE   H6R17259   4.011   3.683  10.180 -0.4696  0.6857  0.3522
  155SAPE   C2717260   4.074   3.769   9.979 -0.5762  0.0580  0.6323
  155SAPE   H7R17261   4.086   3.878   9.960  1.4568  0.1391  2.0429
  155SAPE   H7S17262   3.968   3.744   9.958 -0.2437 -3.1252  2.0604
  155SAPE   C2817263   4.149   3.682   9.877 -0.7978  0.9563 -0.3004
  155SAPE   H8R17264   4.157   3.575   9.901  4.6850  1.1647  0.1688
  155SAPE   C2917265   4.220   3.723   9.769  0.2116 -0.1193 -0.2032
  155SAPE   H9R17266   4.263   3.652   9.697 -1.5333 -1.4245 -0.0260
  155SAPE  C21017267   4.227   3.862   9.716  0.2968 -0.3727  0.4745
  155SAPE  H10R17268   4.157   3.930   9.770  0.6600  1.8632 -1.6587
  155SAPE  H10S17269   4.195   3.876   9.610  0.4282 -0.3629  0.4362
  155SAPE  C21117270   4.357   3.928   9.728 -0.0886 -0.6388 -0.0678
  155SAPE  H11R17271   4.378   3.952   9.834 -0.7779 -0.1525 -0.0349
  155SAPE  C21217272   4.434   3.966   9.627 -0.5662  0.5587 -0.7507
  155SAPE  H12R17273   4.534   3.996   9.662 -0.7055  0.2663 -0.0868
  155SAPE  C21317274   4.403   3.951   9.483  0.9773  0.0896  0.4195
  155SAPE  H13R17275   4.468   4.013   9.417  0.1924  1.9826  1.3504
  155SAPE  H13S17276   4.305   3.998   9.460  1.2499  1.2071  1.4089
  155SAPE  C21417277   4.407   3.805   9.436  0.5002  1.1772  0.4110
  155SAPE  H14R17278   4.479   3.742   9.490  0.3028  0.1491 -0.4942
  155SAPE  C21517279   4.328   3.762   9.336 -0.7417  0.2261 -0.4824
  155SAPE  H15R17280   4.342   3.655   9.316  1.1457  0.6600 -1.7921
  155SAPE  C21617281   4.219   3.833   9.254 -0.3035 -0.0012 -0.2649
  155SAPE  H16R17282   4.250   3.933   9.214 -2.6646  0.9421  0.1099
  155SAPE  H16S17283   4.138   3.852   9.327  0.3210  0.2275  0.3862
  155SAPE  C21717284   4.168   3.755   9.133  1.0574  0.4547 -0.6365
  155SAPE  H17R17285   4.092   3.824   9.090 -0.1068 -0.8016 -0.6247
  155SAPE  H17S17286   4.116   3.663   9.166 -2.6976  2.9127  1.0034
  155SAPE  C21817287   4.271   3.733   9.025  0.3567  0.5106  0.5065
  155SAPE  H18R17288   4.348   3.662   9.062 -1.0774  0.0610  2.8388
  155SAPE  H18S17289   4.318   3.832   9.007  0.4868  0.8049  2.3011
  155SAPE  C21917290   4.205   3.681   8.892 -0.1265 -0.1818 -0.3718
  155SAPE  H19R17291   4.133   3.748   8.841  0.9580  0.8234 -0.6138
  155SAPE  H19S17292   4.153   3.588   8.923  1.4025 -0.2875  2.1456
  155SAPE  C22017293   4.308   3.658   8.778 -0.9322 -0.2778 -0.6210
  155SAPE  H20R17294   4.390   3.587   8.804 -0.0616  1.3513  1.2871
  155SAPE  H20S17295   4.358   3.753   8.751  1.4149 -0.9815  0.8596
  155SAPE  H20T17296   4.251   3.620   8.691 -0.8961 -0.0244 -0.7575
  155SAPE   C3317297   4.858   4.283  10.083 -0.7703 -0.3346  0.6351
  155SAPE   H3X17298   4.926   4.371  10.081 -2.6431  1.1835 -0.8390
  155SAPE   H3Y17299   4.763   4.310  10.134 -1.9561 -0.0543 -1.6136
  155SAPE   C3417300   4.796   4.250   9.948 -0.2326 -0.6280  0.8525
  155SAPE   H4X17301   4.741   4.336   9.904  0.4734  0.3177  1.7753
  155SAPE   H4Y17302   4.717   4.173   9.962 -0.4961 -0.3895  0.6874
  155SAPE   C3517303   4.884   4.193   9.845  0.4975 -0.0347 -0.1781
  155SAPE   H5X17304   4.908   4.086   9.863  2.1916  0.3652  0.0409
  155SAPE   H5Y17305   4.980   4.245   9.827 -0.0418  0.7030 -1.0299
  155SAPE   C3617306   4.805   4.188   9.705 -0.1165  0.5902 -0.3358
  155SAPE   H6X17307   4.769   4.291   9.686 -0.6634  0.6613  0.9808
  155SAPE   H6Y17308   4.716   4.126   9.731 -0.1188  1.2717  1.4150
  155SAPE   C3717309   4.892   4.142   9.584 -0.0586  0.4238 -0.0306
  155SAPE   H7X17310   4.898   4.033   9.605 -1.6425  0.1941 -0.5889
  155SAPE   H7Y17311   4.988   4.197   9.582 -0.2665  0.7754 -1.0482
  155SAPE   C3817312   4.822   4.176   9.447 -0.9073  0.2628  0.3076
  155SAPE   H8X17313   4.812   4.285   9.431 -0.1492  0.3612  0.4917
  155SAPE   H8Y17314   4.719   4.134   9.440 -0.4560 -1.6073  3.1220
  155SAPE   C3917315   4.898   4.107   9.332  0.4817  0.3309 -0.4111
  155SAPE   H9X17316   4.877   3.998   9.335 -0.1335  0.4653  0.1887
  155SAPE   H9Y17317   5.008   4.110   9.349  0.4263 -3.3341  1.7650
  155SAPE  C31017318   4.855   4.142   9.194 -0.2922 -0.3104 -0.2047
  155SAPE  H10X17319   4.832   4.249   9.174  2.7347  0.4272 -0.2365
  155SAPE  H10Y17320   4.767   4.085   9.158  0.4690 -0.5585 -1.7598
  155SAPE  C31117321   4.979   4.118   9.103  0.4655  0.0195  0.3814
  155SAPE  H11X17322   5.012   4.014   9.123  0.9055  0.4579  2.0934
  155SAPE  H11Y17323   5.062   4.186   9.132  0.4244  0.2674 -0.0915
  155SAPE  C31217324   4.939   4.147   8.960 -0.4227 -0.1037 -0.1988
  155SAPE  H12X17325   4.903   4.251   8.974  0.9553  0.4028 -0.3099
  155SAPE  H12Y17326   4.854   4.087   8.920 -1.1126  0.4341  0.4475
  155SAPE  C31317327   5.063   4.143   8.869 -0.5530  1.0517  0.9006
  155SAPE  H13X17328   5.101   4.039   8.865 -1.1977  0.8558 -0.4796
  155SAPE  H13Y17329   5.142   4.203   8.919  0.8766  1.1504 -1.3688
  155SAPE  C31417330   5.046   4.195   8.720 -0.3895  0.3108 -0.1685
  155SAPE  H14X17331   4.976   4.120   8.677  1.4899 -1.7931  0.2346
  155SAPE  H14Y17332   5.148   4.179   8.678 -0.3911 -0.1886  0.0009
  155SAPE  C31517333   5.004   4.339   8.712 -0.6474 -0.1475  0.4412
  155SAPE  H15X17334   5.075   4.404   8.767  0.4646 -1.2644  0.3496
  155SAPE  H15Y17335   4.896   4.350   8.736 -1.5456 -0.9727 -2.6577
  155SAPE  C31617336   5.033   4.390   8.568 -0.2389  0.4020 -0.1526
  155SAPE  H16X17337   4.970   4.328   8.500 -0.2842 -0.5530  0.7320
  155SAPE  H16Y17338   5.139   4.357   8.561 -0.6576 -1.0073 -0.2138
  155SAPE  C31717339   5.004   4.535   8.537  0.3140 -0.4094 -0.0896
  155SAPE  H17X17340   5.068   4.559   8.450  0.0740 -1.0847 -0.4659
  155SAPE  H17Y17341   5.025   4.603   8.622 -1.7714  0.4034 -0.1549
  155SAPE  C31817342   4.856   4.555   8.493 -0.0405 -0.1533  1.0809
  155SAPE  H18X17343   4.848   4.608   8.396  0.1834  1.5192  1.9386
  155SAPE  H18Y17344   4.813   4.627   8.566  1.5637  2.1801 -0.1634
  155SAPE  H18Z17345   4.796   4.462   8.497 -2.0813  0.8492 -2.2891
  156SAPE     N17346   2.944   2.217  10.464  0.0148 -0.4224  0.0112
  156SAPE   HN117347   2.871   2.260  10.402  1.6439 -0.9709 -2.4185
  156SAPE   HN217348   2.987   2.289  10.526  1.5746  3.1649 -4.6307
  156SAPE   HN317349   3.020   2.189  10.399  1.5962 -1.4804  2.1969
  156SAPE   C1217350   2.893   2.096  10.540 -0.2236 -0.0672  0.3150
  156SAPE  H12A17351   2.963   2.073  10.623  0.0026  0.1180  0.1751
  156SAPE  H12B17352   2.882   2.016  10.464 -0.1335 -0.7521  1.0069
  156SAPE   C1117353   2.752   2.110  10.608  0.7743 -0.5887 -0.1868
  156SAPE  H11A17354   2.768   2.170  10.700 -0.0053  2.1704 -1.7390
  156SAPE  H11B17355   2.720   2.010  10.644 -1.8885  0.3989  0.4760
  156SAPE     P17356   2.500   2.171  10.578 -0.0280  0.2181  0.1663
  156SAPE   O1317357   2.504   2.158  10.719  0.6030  0.1907 -0.5010
  156SAPE   O1417358   2.436   2.284  10.518 -0.2168  0.1933  0.0691
  156SAPE   O1217359   2.650   2.162  10.525 -0.2409 -0.5278 -0.5134
  156SAPE   O1117360   2.427   2.044  10.522  0.3281  0.3665  0.2406
  156SAPE    C117361   2.450   1.991  10.389  0.2286  0.0712 -0.1622
  156SAPE    HA17362   2.449   2.076  10.317  0.2332  1.1931  1.1275
  156SAPE    HB17363   2.547   1.936  10.385  0.4375  0.2693  1.5022
  156SAPE    C217364   2.329   1.897  10.338  0.1606 -0.1141 -0.4279
  156SAPE    HS17365   2.367   1.839  10.251  0.2120 -0.4224 -0.2047
  156SAPE   O2117366   2.224   1.988  10.292  0.0333  0.5061  0.8443
  156SAPE   C2117367   2.243   2.028  10.169  0.0928  0.1162  0.1325
  156SAPE   O2217368   2.332   2.002  10.091 -0.4089 -0.6138 -0.4567
  156SAPE   C2217369   2.120   2.115  10.132  0.1342  0.3669  0.1858
  156SAPE   H2R17370   2.144   2.224  10.138  0.7549  0.3613 -1.7011
  156SAPE   H2S17371   2.099   2.099  10.024  0.1930 -2.1926  0.4905
  156SAPE    C317372   2.276   1.804  10.448  0.1554  0.3447 -0.2462
  156SAPE    HX17373   2.250   1.868  10.535 -0.7655  0.9841 -0.9688
  156SAPE    HY17374   2.351   1.726  10.474 -1.5451 -1.6338 -1.0560
  156SAPE   O3117375   2.149   1.748  10.415  0.7440 -0.1175  0.1612
  156SAPE   C3117376   2.161   1.637  10.338  0.3137 -0.0745  0.7055
  156SAPE   O3217377   2.260   1.580  10.301 -0.0693 -0.3956  0.1878
  156SAPE   C3217378   2.026   1.574  10.306 -0.3564 -0.3789 -0.7371
  156SAPE   H2X17379   1.973   1.584  10.403 -1.1759 -0.6074 -1.1510
  156SAPE   H2Y17380   2.037   1.468  10.274 -1.6081 -0.4850 -0.8692
  156SAPE   C2317381   1.993   2.074  10.204 -0.0978 -0.1779 -0.1107
  156SAPE   H3R17382   2.003   2.110  10.309  1.7622  0.7571 -0.5715
  156SAPE   H3S17383   1.982   1.964  10.205 -2.4482  0.0040 -0.3517
  156SAPE   C2417384   1.867   2.120  10.131 -0.0855 -0.9862  0.7494
  156SAPE   H4R17385   1.792   2.038  10.126 -0.0446 -1.1385  2.2297
  156SAPE   H4S17386   1.904   2.139  10.028 -0.3150  1.8230  1.1234
  156SAPE   C2517387   1.800   2.253  10.176  0.2539  0.6123 -0.1580
  156SAPE   H5R17388   1.731   2.248  10.262  0.1632  4.5960  0.1532
  156SAPE   C2617389   1.803   2.377  10.132 -0.1076  0.3115  0.4322
  156SAPE   H6R17390   1.738   2.452  10.179 -2.0064 -0.9648 -0.0828
  156SAPE   C2717391   1.895   2.425  10.023 -0.2278  0.6392 -0.0872
  156SAPE   H7R17392   1.843   2.484   9.945 -1.7742  0.8388  1.0488
  156SAPE   H7S17393   1.944   2.340   9.971  0.5128  0.9299  0.1217
  156SAPE   C2817394   2.007   2.510  10.075  0.1924 -0.0973  0.3887
  156SAPE   H8R17395   2.032   2.500  10.181 -0.1856 -2.3326  0.3127
  156SAPE   C2917396   2.065   2.609  10.011 -0.0646 -0.0770  0.5306
  156SAPE   H9R17397   2.145   2.672  10.053 -1.8140  1.8994  1.0707
  156SAPE  C21017398   2.032   2.658   9.873 -0.3563 -0.2228  0.8333
  156SAPE  H10R17399   2.009   2.766   9.887  3.0079  0.3574  3.0980
  156SAPE  H10S17400   1.939   2.617   9.828 -0.7163  1.7305 -0.3276
  156SAPE  C21117401   2.146   2.643   9.768  0.2635 -0.7879  0.2301
  156SAPE  H11R17402   2.246   2.613   9.803  0.8973  2.0524  1.0573
  156SAPE  C21217403   2.137   2.653   9.637  0.7131  0.3965  0.8832
  156SAPE  H12R17404   2.216   2.628   9.565 -1.3156 -0.1876 -1.2649
  156SAPE  C21317405   2.005   2.686   9.566  0.1613  0.5475  0.3522
  156SAPE  H13R17406   1.952   2.770   9.614  1.0913 -0.3792  3.2213
  156SAPE  H13S17407   1.937   2.602   9.591  0.5173 -0.2511 -1.1764
  156SAPE  C21417408   2.022   2.705   9.418 -0.8847 -0.2110 -0.5854
  156SAPE  H14R17409   2.036   2.812   9.400  2.7419 -0.9144 -3.0446
  156SAPE  C21517410   2.017   2.619   9.317 -0.2899  0.3486 -0.1431
  156SAPE  H15R17411   2.010   2.660   9.215 -1.3924  0.2292 -0.1272
  156SAPE  C21617412   1.990   2.468   9.320  0.0903 -1.2499  0.1625
  156SAPE  H16R17413   1.898   2.460   9.258  1.8355  0.6716 -2.9126
  156SAPE  H16S17414   1.962   2.429   9.420  0.8943 -2.9417 -0.2340
  156SAPE  C21717415   2.111   2.375   9.279  0.6230 -0.4735 -1.1696
  156SAPE  H17R17416   2.193   2.410   9.345 -0.4479 -0.9196  0.4641
  156SAPE  H17S17417   2.135   2.386   9.171  1.2835  2.1516 -0.8287
  156SAPE  C21817418   2.076   2.229   9.306 -0.8419  1.3592 -0.4006
  156SAPE  H18R17419   1.996   2.195   9.236 -1.5131  0.2930  0.8367
  156SAPE  H18S17420   2.042   2.204   9.409 -0.5415  0.2501 -0.5535
  156SAPE  C21917421   2.197   2.131   9.270 -0.3623 -0.5941 -0.2780
  156SAPE  H19R17422   2.286   2.163   9.327 -1.7672  0.5381  1.3721
  156SAPE  H19S17423   2.221   2.153   9.163  2.2890  2.3199  0.7670
  156SAPE  C22017424   2.177   1.985   9.307 -0.0397  0.9145  0.8363
  156SAPE  H20R17425   2.099   1.933   9.247  0.8801  1.2475 -0.7011
  156SAPE  H20S17426   2.137   1.971   9.409 -1.9557 -1.5922 -0.1495
  156SAPE  H20T17427   2.280   1.943   9.304  0.1597  1.4089  0.6039
  156SAPE   C3317428   1.948   1.644  10.193  0.1277  0.6427 -0.1298
  156SAPE   H3X17429   1.946   1.754  10.210 -1.6677  0.4254  1.3233
  156SAPE   H3Y17430   1.845   1.604  10.187  0.4765 -0.1814 -0.7752
  156SAPE   C3417431   2.016   1.620  10.062  0.0497 -0.1223  0.3784
  156SAPE   H4X17432   2.045   1.513  10.068  0.7096  0.0391  0.1180
  156SAPE   H4Y17433   2.113   1.674  10.056 -1.5989  3.1197  0.3020
  156SAPE   C3517434   1.926   1.668   9.947  0.1797  0.5656 -0.3429
  156SAPE   H5X17435   1.910   1.778   9.951 -2.3728  0.2103  3.1741
  156SAPE   H5Y17436   1.827   1.621   9.965  2.0130 -3.1340  1.1230
  156SAPE   C3617437   1.979   1.623   9.806 -0.1145 -0.1686 -0.5343
  156SAPE   H6X17438   2.000   1.513   9.804  3.3424  0.3256  0.8693
  156SAPE   H6Y17439   2.077   1.672   9.783 -1.1677  2.9600  1.1503
  156SAPE   C3717440   1.883   1.655   9.695  0.3246  0.3073  0.3372
  156SAPE   H7X17441   1.844   1.758   9.707  0.7532  1.1669 -3.9888
  156SAPE   H7Y17442   1.795   1.588   9.706  0.2940  0.4238  0.8297
  156SAPE   C3817443   1.948   1.658   9.552 -0.5306 -0.0172  0.0840
  156SAPE   H8X17444   1.953   1.549   9.529 -0.4389 -0.1500  0.7348
  156SAPE   H8Y17445   2.041   1.718   9.541 -0.6128  0.2988  1.0819
  156SAPE   C3917446   1.843   1.724   9.461  0.1699  0.0920  0.1852
  156SAPE   H9X17447   1.851   1.831   9.488  1.5896  0.0303  0.0851
  156SAPE   H9Y17448   1.738   1.691   9.480 -0.4030  1.2421 -0.8699
  156SAPE  C31017449   1.883   1.711   9.313  0.1946 -0.0987  0.7343
  156SAPE  H10X17450   1.992   1.706   9.295 -0.2952 -1.4036 -2.5849
  156SAPE  H10Y17451   1.866   1.813   9.272  1.1187 -0.8363 -1.6486
  156SAPE  C31117452   1.817   1.593   9.245  0.0944 -0.0941 -0.0930
  156SAPE  H11X17453   1.707   1.607   9.246 -0.0993 -0.5637  3.9551
  156SAPE  H11Y17454   1.848   1.509   9.310  3.9943  0.0925 -1.4299
  156SAPE  C31217455   1.874   1.565   9.108 -0.1753 -0.6815 -0.6014
  156SAPE  H12X17456   1.823   1.476   9.066 -0.2987 -1.3074  0.8232
  156SAPE  H12Y17457   1.982   1.544   9.121  0.1336  1.3465  0.6077
  156SAPE  C31317458   1.873   1.685   9.008 -0.2005  0.0546  0.1977
  156SAPE  H13X17459   1.946   1.761   9.044  0.5184 -1.4780  2.1855
  156SAPE  H13Y17460   1.772   1.731   9.010 -0.2230  0.0158 -0.1137
  156SAPE  C31417461   1.904   1.645   8.865 -0.4975 -0.9141  0.9682
  156SAPE  H14X17462   1.878   1.736   8.806  0.2886 -0.8460  0.7164
  156SAPE  H14Y17463   1.847   1.563   8.817 -0.1980 -0.2048 -0.6665
  156SAPE  C31517464   2.048   1.615   8.837  0.4877 -0.2353 -0.5486
  156SAPE  H15X17465   2.085   1.534   8.903 -0.3399  1.2590  1.8629
  156SAPE  H15Y17466   2.112   1.699   8.872 -0.3806  0.5485 -0.8268
  156SAPE  C31617467   2.079   1.589   8.688 -0.5346  0.0546 -0.1926
  156SAPE  H16X17468   2.038   1.668   8.621 -0.5656 -1.3165 -1.8648
  156SAPE  H16Y17469   2.032   1.491   8.664 -0.9399 -0.0841  1.0832
  156SAPE  C31717470   2.231   1.580   8.655  0.9995 -0.2082  0.3355
  156SAPE  H17X17471   2.277   1.494   8.709  0.3897 -0.2473  0.8041
  156SAPE  H17Y17472   2.282   1.670   8.695 -0.1367  0.7928 -0.3961
  156SAPE  C31817473   2.262   1.586   8.501 -0.1067  0.6411 -0.1267
  156SAPE  H18X17474   2.210   1.510   8.440 -0.7699  2.8507 -2.5173
  156SAPE  H18Y17475   2.373   1.586   8.493  0.0497  0.6262  1.6699
  156SAPE  H18Z17476   2.230   1.683   8.458 -0.0141  0.7749  0.1012
  157SAPE     N17477   2.748   3.257  10.713  0.0060 -0.7300  0.7483
  157SAPE   HN117478   2.743   3.237  10.815  0.3868 -2.4919  0.4561
  157SAPE   HN217479   2.848   3.254  10.683 -0.5429 -1.8470 -1.1707
  157SAPE   HN317480   2.704   3.347  10.684 -0.5649 -1.0871  0.4773
  157SAPE   C1217481   2.678   3.134  10.656 -0.1732 -0.5565  0.6372
  157SAPE  H12A17482   2.745   3.049  10.682  2.5037  1.3950  0.5646
  157SAPE  H12B17483   2.675   3.149  10.546  0.6098  5.1940  1.0797
  157SAPE   C1117484   2.539   3.113  10.724 -0.6535  0.1113  0.4736
  157SAPE  H11A17485   2.561   3.117  10.833  3.5274  0.3099 -0.2287
  157SAPE  H11B17486   2.516   3.012  10.684 -0.4431 -0.0944  0.8709
  157SAPE     P17487   2.294   3.168  10.655  0.1927  0.3000 -0.1594
  157SAPE   O1317488   2.236   3.130  10.791 -0.3768  0.4783  0.0203
  157SAPE   O1417489   2.225   3.276  10.574  0.3782  1.5294 -0.2216
  157SAPE   O1217490   2.448   3.208  10.671 -0.0410 -0.1870  0.6061
  157SAPE   O1117491   2.296   3.041  10.559 -0.2292  0.4750 -0.4493
  157SAPE    C117492   2.350   3.044  10.426 -0.4482 -0.1035  0.8606
  157SAPE    HA17493   2.414   3.134  10.419  2.2116 -1.9819 -1.2234
  157SAPE    HB17494   2.410   2.952  10.408 -1.0605 -0.9538  2.8883
  157SAPE    C217495   2.246   3.042  10.314 -0.1443 -0.2958  1.0442
  157SAPE    HS17496   2.303   3.014  10.223 -0.3309  0.4801  0.6879
  157SAPE   O2117497   2.176   3.168  10.307 -0.2186  0.1488 -0.2323
  157SAPE   C2117498   2.241   3.263  10.245 -0.3026 -0.5303 -0.1238
  157SAPE   O2217499   2.349   3.258  10.194 -0.8332  0.3269  0.5165
  157SAPE   C2217500   2.150   3.390  10.260  0.2458 -0.3094 -0.3186
  157SAPE   H2R17501   2.041   3.375  10.245 -0.1088  1.3673  0.3959
  157SAPE   H2S17502   2.156   3.415  10.368 -0.3404 -0.1084 -0.3280
  157SAPE    C317503   2.147   2.927  10.352 -0.3637  0.3854  0.4318
  157SAPE    HX17504   2.125   2.937  10.461  1.6115  0.8015  0.8313
  157SAPE    HY17505   2.194   2.827  10.336 -0.7950  0.5126 -1.8827
  157SAPE   O3117506   2.013   2.940  10.293 -0.2001 -0.2808  0.3657
  157SAPE   C3117507   2.017   2.942  10.162 -0.1621 -0.0130  0.3367
  157SAPE   O3217508   2.106   2.906  10.090 -0.6800  0.2043  0.0359
  157SAPE   C3217509   1.883   2.995  10.120 -0.2688 -0.0862  0.1675
  157SAPE   H2X17510   1.856   3.082  10.183  0.8363  1.6354 -1.6079
  157SAPE   H2Y17511   1.810   2.911  10.129 -0.5319  0.3368  2.6976
  157SAPE   C2317512   2.209   3.509  10.183 -0.5984  0.3993 -0.0305
  157SAPE   H3R17513   2.318   3.491  10.178 -0.3674 -0.1139  3.7691
  157SAPE   H3S17514   2.196   3.603  10.242 -1.0370 -0.2016  0.8637
  157SAPE   C2417515   2.137   3.527  10.046  0.3161 -0.1464  0.1857
  157SAPE   H4R17516   2.032   3.546  10.076  0.1710  2.2455 -1.5585
  157SAPE   H4S17517   2.152   3.440   9.978 -1.3939  0.1125 -0.5606
  157SAPE   C2517518   2.180   3.665   9.986 -0.8622  0.8942 -0.3500
  157SAPE   H5R17519   2.205   3.736  10.065  0.7848  0.3041 -0.3068
  157SAPE   C2617520   2.202   3.694   9.859 -0.7517  0.5789  0.2637
  157SAPE   H6R17521   2.223   3.800   9.840  0.1517  0.5020  0.8166
  157SAPE   C2717522   2.196   3.604   9.736 -0.7266  0.3351 -0.8582
  157SAPE   H7R17523   2.093   3.597   9.695 -1.9203 -1.8411  2.1387
  157SAPE   H7S17524   2.217   3.500   9.768 -1.6813  0.0577 -1.1071
  157SAPE   C2817525   2.293   3.647   9.637 -0.3473  0.9776  0.0234
  157SAPE   H8R17526   2.392   3.656   9.683  0.1556  0.1207 -0.8526
  157SAPE   C2917527   2.283   3.637   9.504 -0.4322  0.1142  0.1928
  157SAPE   H9R17528   2.369   3.678   9.448 -0.4314  2.7845  1.9675
  157SAPE  C21017529   2.172   3.587   9.421  0.1362 -0.1122 -0.1905
  157SAPE  H10R17530   2.147   3.674   9.357  2.2190 -0.3316 -1.3498
  157SAPE  H10S17531   2.081   3.572   9.484 -0.9041 -1.6559 -1.9594
  157SAPE  C21117532   2.189   3.457   9.350 -0.3962  0.1920  0.0574
  157SAPE  H11R17533   2.163   3.368   9.410  1.5561 -0.3867  0.1328
  157SAPE  C21217534   2.213   3.448   9.215 -0.6128  0.3454  0.4336
  157SAPE  H12R17535   2.242   3.352   9.168 -0.0723  1.3383 -1.3586
  157SAPE  C21317536   2.236   3.558   9.121 -0.0272  0.2260 -0.1525
  157SAPE  H13R17537   2.242   3.654   9.177 -0.4618  1.4138 -2.0326
  157SAPE  H13S17538   2.143   3.555   9.060  0.0694 -1.0636 -0.2700
  157SAPE  C21417539   2.358   3.562   9.032 -0.1912 -0.1366 -0.5448
  157SAPE  H14R17540   2.420   3.649   9.057  1.2246 -1.5714  1.1824
  157SAPE  C21517541   2.377   3.499   8.921  0.3447  0.4953  0.2526
  157SAPE  H15R17542   2.468   3.514   8.861  1.5661  0.7247  2.1054
  157SAPE  C21617543   2.279   3.395   8.869  0.1885 -0.5527  0.1392
  157SAPE  H16R17544   2.186   3.445   8.834  1.3574  0.2865 -1.9849
  157SAPE  H16S17545   2.265   3.318   8.948 -1.4445  1.3291  1.7997
  157SAPE  C21717546   2.315   3.328   8.734 -0.1948 -0.6405  0.7875
  157SAPE  H17R17547   2.256   3.234   8.725 -3.1804  1.2927 -3.0510
  157SAPE  H17S17548   2.423   3.307   8.726 -0.5749 -2.3390 -0.3399
  157SAPE  C21817549   2.299   3.416   8.609  0.1513  0.2642 -0.1081
  157SAPE  H18R17550   2.345   3.516   8.620 -2.5501  2.0638 -3.3669
  157SAPE  H18S17551   2.190   3.424   8.589 -0.3536 -1.0037  1.8684
  157SAPE  C21917552   2.372   3.345   8.488 -0.1941  0.6813 -0.3376
  157SAPE  H19R17553   2.345   3.237   8.477 -1.5570  0.6359  2.5153
  157SAPE  H19S17554   2.482   3.351   8.504 -0.2025 -0.9187  0.5527
  157SAPE  C22017555   2.344   3.414   8.362  0.0298 -0.0378  0.0215
  157SAPE  H20R17556   2.384   3.518   8.365  2.0465 -0.6289 -2.5956
  157SAPE  H20S17557   2.233   3.419   8.353 -0.2234 -0.0050  2.4923
  157SAPE  H20T17558   2.395   3.355   8.283  0.7231 -1.4529  1.4754
  157SAPE   C3317559   1.882   3.046   9.969 -0.3518 -0.1138 -0.3683
  157SAPE   H3X17560   1.782   3.085   9.943  0.1840  1.2479 -0.4524
  157SAPE   H3Y17561   1.914   2.958   9.908 -0.5072  1.1741 -2.3889
  157SAPE   C3417562   1.985   3.155   9.927  0.1800  0.4964 -0.3113
  157SAPE   H4X17563   2.087   3.112   9.925  0.1137  0.2150  1.0820
  157SAPE   H4Y17564   1.989   3.246   9.992  2.0154  0.0617  0.2451
  157SAPE   C3517565   1.939   3.217   9.794 -0.0358 -0.1520 -0.4784
  157SAPE   H5X17566   2.004   3.304   9.770  0.3461 -0.4494 -0.5254
  157SAPE   H5Y17567   1.834   3.253   9.805 -0.2132 -0.4100 -1.3007
  157SAPE   C3617568   1.927   3.112   9.682 -0.1806  0.0807  0.4363
  157SAPE   H6X17569   1.841   3.044   9.700  0.5695 -2.1832 -3.4370
  157SAPE   H6Y17570   2.021   3.052   9.688 -1.2405 -1.6094  0.7387
  157SAPE   C3717571   1.908   3.185   9.541 -0.1539  0.6826 -0.3316
  157SAPE   H7X17572   2.004   3.238   9.527 -0.2382  0.5697 -1.3755
  157SAPE   H7Y17573   1.825   3.257   9.559 -0.5900 -0.0170  0.5837
  157SAPE   C3817574   1.879   3.084   9.425 -0.6359 -0.0609 -0.2285
  157SAPE   H8X17575   1.794   3.026   9.467 -1.6449  1.6578  0.2519
  157SAPE   H8Y17576   1.964   3.014   9.414  0.5755  1.1410  0.9635
  157SAPE   C3917577   1.839   3.162   9.299  0.1669  0.3172  0.3278
  157SAPE   H9X17578   1.908   3.249   9.301  1.0314 -0.2962 -1.0292
  157SAPE   H9Y17579   1.737   3.201   9.320 -0.3857 -1.1587  0.5253
  157SAPE  C31017580   1.854   3.085   9.172  0.4005 -0.7294  0.5114
  157SAPE  H10X17581   1.786   2.998   9.162 -0.6193  0.1630 -0.6511
  157SAPE  H10Y17582   1.954   3.039   9.154  0.0837 -1.7996  1.4093
  157SAPE  C31117583   1.819   3.182   9.052 -0.2235  0.0244  0.1167
  157SAPE  H11X17584   1.908   3.247   9.038 -1.5408  2.2955  1.6403
  157SAPE  H11Y17585   1.732   3.239   9.091 -0.7328  0.4431 -1.5421
  157SAPE  C31217586   1.788   3.113   8.918 -0.1699 -0.6104 -0.0480
  157SAPE  H12X17587   1.764   3.170   8.826  0.3353 -1.9625 -1.0490
  157SAPE  H12Y17588   1.710   3.036   8.935 -0.0765 -0.8494 -0.6618
  157SAPE  C31317589   1.898   3.010   8.881 -0.1913 -0.5818 -0.3456
  157SAPE  H13X17590   1.905   2.921   8.946  0.0033  0.2088  0.7424
  157SAPE  H13Y17591   1.994   3.067   8.882 -0.5645  0.0822 -0.9643
  157SAPE  C31417592   1.867   2.950   8.750  0.3796  0.7141  0.3715
  157SAPE  H14X17593   1.901   3.012   8.664  0.9044 -0.1237 -0.0365
  157SAPE  H14Y17594   1.757   2.936   8.737  0.1082 -0.4524  3.1642
  157SAPE  C31517595   1.919   2.808   8.747 -0.2155  0.1298 -0.3985
  157SAPE  H15X17596   2.028   2.804   8.767  0.0070  1.4060 -1.2664
  157SAPE  H15Y17597   1.894   2.791   8.640 -0.6306  0.9050 -0.4323
  157SAPE  C31617598   1.852   2.697   8.836  0.2261 -0.0183 -1.0711
  157SAPE  H16X17599   1.769   2.653   8.777  0.0497  1.0849 -1.6769
  157SAPE  H16Y17600   1.809   2.741   8.929  1.2338 -1.6716  0.2211
  157SAPE  C31717601   1.958   2.586   8.860  0.4998 -0.3140 -0.5475
  157SAPE  H17X17602   2.037   2.628   8.925  0.5106 -0.1030 -0.6966
  157SAPE  H17Y17603   1.996   2.559   8.759 -3.3798 -0.2084 -2.2144
  157SAPE  C31817604   1.915   2.460   8.934  0.4013  1.1038 -0.8625
  157SAPE  H18X17605   1.998   2.396   8.971 -0.0069  1.8600  1.5896
  157SAPE  H18Y17606   1.851   2.397   8.868  0.2373  0.9492 -0.5642
  157SAPE  H18Z17607   1.851   2.483   9.022 -2.3643 -0.1724 -2.4121
  158SAPE     N17608   3.414   1.883  10.915  0.5574 -0.3462 -0.3052
  158SAPE   HN117609   3.401   1.854  10.816 -1.1617  4.3410 -1.6907
  158SAPE   HN217610   3.514   1.876  10.943  0.1210  0.7818  1.7317
  158SAPE   HN317611   3.355   1.824  10.977  0.8468 -0.8927 -0.5338
  158SAPE   C1217612   3.365   2.028  10.910  0.5762 -0.1863  0.0353
  158SAPE  H12A17613   3.452   2.095  10.891  0.5527 -0.7458 -2.3261
  158SAPE  H12B17614   3.319   2.059  11.006  0.3336 -0.5008  0.0221
  158SAPE   C1117615   3.266   2.050  10.798  0.1601 -0.0321  0.5472
  158SAPE  H11A17616   3.257   2.160  10.808 -0.4458 -0.1698  1.6388
  158SAPE  H11B17617   3.166   2.004  10.816 -0.1530  0.3329 -0.1997
  158SAPE     P17618   3.275   1.888  10.597  0.5447 -0.3369  0.0458
  158SAPE   O1317619   3.331   1.773  10.676 -0.6701 -0.5473 -0.2489
  158SAPE   O1417620   3.127   1.891  10.586  0.3734 -0.2171  0.0239
  158SAPE   O1217621   3.323   2.017  10.670 -0.3686 -0.2538  0.1951
  158SAPE   O1117622   3.333   1.897  10.443  0.2076 -0.5950 -0.0047
  158SAPE    C117623   3.340   2.025  10.378 -0.3457 -0.7851 -0.2582
  158SAPE    HA17624   3.262   2.095  10.414 -1.2507 -1.1534 -1.4484
  158SAPE    HB17625   3.439   2.067  10.406 -0.3586  0.2412 -1.6342
  158SAPE    C217626   3.322   2.011  10.225  0.0313 -0.1766 -0.5666
  158SAPE    HS17627   3.321   2.114  10.182  0.3307 -0.9708 -2.5482
  158SAPE   O2117628   3.206   1.938  10.186 -0.0484  0.2540 -0.0778
  158SAPE   C2117629   3.087   1.991  10.214  0.2946  0.3315  0.2487
  158SAPE   O2217630   3.074   2.105  10.260 -0.0191  0.7823  0.9589
  158SAPE   C2217631   2.968   1.894  10.163 -0.8796  0.4347  0.2401
  158SAPE   H2R17632   2.990   1.870  10.057 -1.3243 -0.2272  0.2960
  158SAPE   H2S17633   2.968   1.800  10.223 -1.2919  0.3883  0.1668
  158SAPE    C317634   3.447   1.939  10.172  0.2858 -0.3489 -0.3241
  158SAPE    HX17635   3.426   1.832  10.194  0.4100 -0.4279 -0.5859
  158SAPE    HY17636   3.531   1.968  10.238 -1.8573  0.2150  2.3238
  158SAPE   O3117637   3.467   1.975  10.035 -0.8501 -0.4796  0.5177
  158SAPE   C3117638   3.486   1.870   9.948 -0.1443 -0.3610 -0.6052
  158SAPE   O3217639   3.502   1.755   9.986 -0.3245 -0.0213  0.3425
  158SAPE   C3217640   3.480   1.925   9.808  0.1220 -0.4492 -0.1615
  158SAPE   H2X17641   3.480   1.834   9.744 -1.1182 -0.6400  0.0797
  158SAPE   H2Y17642   3.576   1.976   9.786  0.6471 -0.9879  0.7918
  158SAPE   C2317643   2.826   1.954  10.170 -0.1253  0.0781  0.2242
  158SAPE   H3R17644   2.833   2.049  10.114 -0.8924  0.4328  0.7250
  158SAPE   H3S17645   2.799   1.989  10.272  0.2497  2.4168 -0.4300
  158SAPE   C2417646   2.706   1.868  10.125  0.3604  0.4995 -0.4376
  158SAPE   H4R17647   2.701   1.869  10.014 -1.9535 -2.4595 -0.4840
  158SAPE   H4S17648   2.626   1.937  10.160  1.5265  1.0811  1.2162
  158SAPE   C2517649   2.692   1.732  10.195  0.1101 -0.4525  0.0002
  158SAPE   H5R17650   2.722   1.729  10.301  0.1216 -1.2101 -0.0232
  158SAPE   C2617651   2.651   1.618  10.128  0.0028  0.0981 -0.5381
  158SAPE   H6R17652   2.632   1.528  10.188  4.9504  0.7036  2.5063
  158SAPE   C2717653   2.603   1.616   9.985  0.1297 -0.2234 -0.0263
  158SAPE   H7R17654   2.616   1.517   9.936 -0.5248 -0.5638  0.4738
  158SAPE   H7S17655   2.664   1.690   9.929  2.8757 -0.8363  1.9594
  158SAPE   C2817656   2.458   1.652   9.974 -0.1906  0.0577  0.5974
  158SAPE   H8R17657   2.413   1.648  10.075  0.7473 -0.7122  1.0007
  158SAPE   C2917658   2.390   1.686   9.863 -0.3637  0.3612  0.5048
  158SAPE   H9R17659   2.284   1.712   9.875 -0.8292 -0.9234 -0.4565
  158SAPE  C21017660   2.452   1.688   9.720 -0.1492  0.4214  1.0670
  158SAPE  H10R17661   2.562   1.694   9.726 -0.0653  2.0287 -0.8061
  158SAPE  H10S17662   2.415   1.774   9.660 -2.3615 -1.7978 -1.0230
  158SAPE  C21117663   2.415   1.544   9.658  0.1048 -0.9579 -0.4496
  158SAPE  H11R17664   2.415   1.467   9.736  2.9374  0.9017  1.6083
  158SAPE  C21217665   2.400   1.511   9.537  0.7434 -0.6216  0.7804
  158SAPE  H12R17666   2.375   1.406   9.518 -0.4712 -0.4946  1.5319
  158SAPE  C21317667   2.396   1.606   9.417  0.1750  0.1792 -0.2392
  158SAPE  H13R17668   2.497   1.618   9.371  1.1214 -1.2955  1.3584
  158SAPE  H13S17669   2.370   1.710   9.446 -0.1345 -0.3192  1.3609
  158SAPE  C21417670   2.287   1.569   9.318 -0.1272  0.3639 -0.1292
  158SAPE  H14R17671   2.196   1.547   9.376  0.5142  1.2072  1.2607
  158SAPE  C21517672   2.297   1.559   9.184 -0.8694  0.0900 -0.5849
  158SAPE  H15R17673   2.206   1.538   9.126 -0.6010 -0.3126 -0.8698
  158SAPE  C21617674   2.417   1.593   9.096  0.2860  0.3693 -0.4710
  158SAPE  H16R17675   2.515   1.618   9.141  0.0472 -0.1651  0.3723
  158SAPE  H16S17676   2.386   1.681   9.035  2.0654 -0.0673 -2.1012
  158SAPE  C21717677   2.443   1.476   8.995 -0.4604  0.0184  0.0340
  158SAPE  H17R17678   2.362   1.469   8.920  0.5799  2.9920 -1.5255
  158SAPE  H17S17679   2.458   1.378   9.046 -1.8330 -1.9138 -3.0243
  158SAPE  C21817680   2.573   1.501   8.914  0.4128  0.3338  0.4769
  158SAPE  H18R17681   2.664   1.515   8.976  1.8812 -1.2982 -1.2098
  158SAPE  H18S17682   2.565   1.604   8.873  0.6533  1.0286  2.0715
  158SAPE  C21917683   2.603   1.411   8.794  0.4052 -0.2005  0.2498
  158SAPE  H19R17684   2.511   1.392   8.734  1.3599 -3.3438 -0.4231
  158SAPE  H19S17685   2.635   1.311   8.831  0.6790  0.4831  1.9003
  158SAPE  C22017686   2.715   1.462   8.701 -1.0503 -0.2302  0.7295
  158SAPE  H20R17687   2.686   1.561   8.662  0.2919 -0.8882 -2.2480
  158SAPE  H20S17688   2.727   1.403   8.607 -1.1947  1.6751 -0.5232
  158SAPE  H20T17689   2.809   1.472   8.759 -0.0169  1.9833 -1.1647
  158SAPE   C3317690   3.372   2.018   9.768  0.2112 -0.3662  0.5000
  158SAPE   H3X17691   3.396   2.121   9.803 -1.8749  0.1329  0.6108
  158SAPE   H3Y17692   3.272   1.996   9.811  1.1395  1.3798  3.8756
  158SAPE   C3417693   3.348   2.019   9.617 -0.0944  0.5724  0.1833
  158SAPE   H4X17694   3.290   1.927   9.592  1.2652  0.1933 -1.8104
  158SAPE   H4Y17695   3.440   2.018   9.554 -1.1683 -0.9860 -1.4809
  158SAPE   C3517696   3.252   2.125   9.572 -0.4767  0.4670  0.1229
  158SAPE   H5X17697   3.278   2.215   9.631  1.1322 -1.8958  3.3857
  158SAPE   H5Y17698   3.149   2.094   9.598 -0.7956  1.8515  0.5520
  158SAPE   C3617699   3.254   2.171   9.424 -0.7723 -0.1830 -0.2695
  158SAPE   H6X17700   3.355   2.200   9.389 -0.4846  0.1500  0.7889
  158SAPE   H6Y17701   3.179   2.253   9.423 -0.0017  0.5314 -1.1928
  158SAPE   C3717702   3.197   2.058   9.332  0.2962 -0.5412 -0.7419
  158SAPE   H7X17703   3.098   2.037   9.378  0.8276  1.4717  1.5674
  158SAPE   H7Y17704   3.261   1.967   9.342  0.5620 -0.3780 -0.9503
  158SAPE   C3817705   3.178   2.098   9.179  0.6376 -0.3318 -0.0936
  158SAPE   H8X17706   3.146   1.997   9.146  1.9320 -0.3604 -1.3485
  158SAPE   H8Y17707   3.273   2.129   9.131 -0.6275  0.1165 -2.4005
  158SAPE   C3917708   3.059   2.200   9.152 -0.2008  0.1592 -0.0740
  158SAPE   H9X17709   3.070   2.296   9.206 -1.5511 -0.3576  1.1822
  158SAPE   H9Y17710   2.968   2.156   9.199  2.8344 -4.2006  2.5337
  158SAPE  C31017711   3.033   2.232   9.007 -0.6340 -0.1600 -0.3532
  158SAPE  H10X17712   3.016   2.141   8.945  2.0191 -1.4207  0.5824
  158SAPE  H10Y17713   3.128   2.279   8.973  0.0193  0.1496  1.7323
  158SAPE  C31117714   2.914   2.324   8.983  0.5357  0.1028  0.3984
  158SAPE  H11X17715   2.916   2.396   9.067  0.7365  0.5953 -0.0180
  158SAPE  H11Y17716   2.817   2.271   8.987 -0.3897  1.5224 -1.6206
  158SAPE  C31217717   2.913   2.399   8.849  0.0692 -0.6025  0.5484
  158SAPE  H12X17718   2.890   2.326   8.769  0.5776 -2.4037  1.9748
  158SAPE  H12Y17719   3.014   2.442   8.834 -0.1114  0.2228  1.5513
  158SAPE  C31317720   2.809   2.514   8.847 -0.3763 -0.5433  0.4931
  158SAPE  H13X17721   2.807   2.569   8.943  1.4177 -0.2104  0.3818
  158SAPE  H13Y17722   2.712   2.462   8.837  1.2763 -3.6504 -1.0624
  158SAPE  C31417723   2.816   2.614   8.731  0.6004  0.0056 -0.4394
  158SAPE  H14X17724   2.906   2.678   8.723  0.5669  0.0400 -0.5497
  158SAPE  H14Y17725   2.726   2.678   8.749  1.8146  1.3732  1.0465
  158SAPE  C31517726   2.801   2.541   8.592  0.0002 -0.5233 -0.0967
  158SAPE  H15X17727   2.708   2.481   8.601  0.1943 -0.6263  1.4117
  158SAPE  H15Y17728   2.887   2.473   8.576  0.9970  0.0548  2.3716
  158SAPE  C31617729   2.787   2.632   8.472 -0.2146  0.4727 -0.4604
  158SAPE  H16X17730   2.876   2.698   8.483 -0.5258  0.5088  2.7346
  158SAPE  H16Y17731   2.698   2.692   8.501 -0.1734 -0.6417  2.2813
  158SAPE  C31717732   2.772   2.561   8.344 -0.7751 -0.3343 -1.3049
  158SAPE  H17X17733   2.702   2.474   8.345 -0.7049 -0.3925 -1.3754
  158SAPE  H17Y17734   2.867   2.512   8.311  0.8960 -0.4085  2.9962
  158SAPE  C31817735   2.726   2.666   8.242 -0.6645 -0.0238  0.4253
  158SAPE  H18X17736   2.701   2.618   8.145  2.0897 -0.2688 -0.2597
  158SAPE  H18Y17737   2.801   2.746   8.224 -1.7995  0.7299 -1.2079
  158SAPE  H18Z17738   2.643   2.725   8.286 -0.2697  0.3800  0.6376
  159SAPE     N17739   1.221   6.242   6.558  0.2158  0.1392  0.1839
  159SAPE   HN117740   1.283   6.317   6.519 -2.4929  0.9922 -2.9976
  159SAPE   HN217741   1.207   6.162   6.492 -1.0731  0.0792  0.5088
  159SAPE   HN317742   1.127   6.286   6.571  0.6595  1.9524 -1.9821
  159SAPE   C1217743   1.283   6.201   6.694 -1.1601 -0.7503  0.8953
  159SAPE  H12A17744   1.392   6.199   6.671 -1.2945  0.4595  0.0403
  159SAPE  H12B17745   1.243   6.103   6.728 -0.9833 -0.4485  2.0040
  159SAPE   C1117746   1.241   6.305   6.799 -0.7772  0.1639 -0.6566
  159SAPE  H11A17747   1.289   6.290   6.898  0.8057  0.9308 -1.2777
  159SAPE  H11B17748   1.133   6.301   6.825 -0.6950  2.7002  0.3766
  159SAPE     P17749   1.415   6.501   6.746  0.3600 -0.1213 -0.0701
  159SAPE   O1317750   1.505   6.401   6.686 -0.0899  0.0590  0.6875
  159SAPE   O1417751   1.419   6.642   6.696 -0.2603  0.0939 -0.4726
  159SAPE   O1217752   1.278   6.436   6.753  0.7798 -0.3968 -0.0101
  159SAPE   O1117753   1.447   6.504   6.902 -0.1147  0.0838  0.1758
  159SAPE    C117754   1.371   6.594   6.985  0.4255 -0.5196 -0.5577
  159SAPE    HA17755   1.352   6.693   6.938 -0.3665 -0.7480 -0.7404
  159SAPE    HB17756   1.269   6.553   7.001  0.6067 -0.9651 -0.5452
  159SAPE    C217757   1.441   6.613   7.123 -0.3551  0.2566 -0.3926
  159SAPE    HS17758   1.383   6.686   7.183  0.4662  0.4174  0.2248
  159SAPE   O2117759   1.577   6.664   7.114  0.7395 -0.0197 -0.1488
  159SAPE   C2117760   1.578   6.791   7.078  0.2965 -0.0978  0.2449
  159SAPE   O2217761   1.486   6.858   7.029  0.0288  0.3432 -0.1988
  159SAPE   C2217762   1.716   6.849   7.077  0.0349 -0.3083 -0.4050
  159SAPE   H2R17763   1.758   6.824   6.977  0.8231 -0.9591  0.0764
  159SAPE   H2S17764   1.710   6.960   7.074  2.9687 -0.0310  0.4344
  159SAPE    C317765   1.454   6.475   7.200  0.1257  0.3703  0.3818
  159SAPE    HX17766   1.512   6.417   7.124  2.9953  1.7972  1.3267
  159SAPE    HY17767   1.356   6.426   7.217  0.4358  0.3208  2.2160
  159SAPE   O3117768   1.529   6.478   7.330  0.2262 -0.2520  0.0253
  159SAPE   C3117769   1.665   6.456   7.320  0.8328  0.0979  0.8025
  159SAPE   O3217770   1.727   6.427   7.217 -0.4790 -0.2006 -0.2370
  159SAPE   C3217771   1.730   6.475   7.450  0.3093  0.5701 -0.9364
  159SAPE   H2X17772   1.673   6.551   7.509  0.1331 -0.0463 -0.2981
  159SAPE   H2Y17773   1.836   6.503   7.431  0.9448  0.0773  1.4755
  159SAPE   C2317774   1.808   6.790   7.187  0.4058 -0.5274  0.6558
  159SAPE   H3R17775   1.913   6.808   7.155  0.2062  0.9496  0.7973
  159SAPE   H3S17776   1.803   6.679   7.200 -0.6218 -0.5046  0.5278
  159SAPE   C2417777   1.767   6.844   7.325  0.0560 -0.1331  0.4525
  159SAPE   H4R17778   1.660   6.821   7.343 -1.2739  3.0258 -2.3897
  159SAPE   H4S17779   1.782   6.954   7.329  3.0273 -0.3988 -0.4698
  159SAPE   C2517780   1.867   6.797   7.427  0.8137 -0.2022 -0.1465
  159SAPE   H5R17781   1.926   6.711   7.393 -1.1012 -1.7747  0.3315
  159SAPE   C2617782   1.876   6.840   7.553  0.2304 -0.2175 -0.5575
  159SAPE   H6R17783   1.952   6.804   7.624  1.2422 -0.6045 -1.7847
  159SAPE   C2717784   1.797   6.951   7.613  0.4645  0.0508 -0.1356
  159SAPE   H7R17785   1.756   6.908   7.707 -1.9551  1.7682 -0.2860
  159SAPE   H7S17786   1.707   6.963   7.548 -0.0372 -0.5708  0.4232
  159SAPE   C2817787   1.855   7.095   7.632  0.2833 -0.6271 -0.4559
  159SAPE   H8R17788   1.907   7.139   7.545 -2.6996  1.1239 -1.5122
  159SAPE   C2917789   1.865   7.173   7.746  0.3769 -0.3416 -0.5062
  159SAPE   H9R17790   1.921   7.268   7.741 -0.0411 -0.1332 -1.5482
  159SAPE  C21017791   1.826   7.132   7.891  0.3756 -0.7797  0.3159
  159SAPE  H10R17792   1.917   7.122   7.955 -0.8444  2.2425  2.7333
  159SAPE  H10S17793   1.790   7.027   7.889 -2.8282  0.2347 -0.0245
  159SAPE  C21117794   1.724   7.224   7.956  0.0012  0.8505  0.3038
  159SAPE  H11R17795   1.626   7.227   7.906 -0.4924 -0.5070  1.1143
  159SAPE  C21217796   1.734   7.300   8.065  0.0639 -0.6714 -0.5853
  159SAPE  H12R17797   1.657   7.370   8.100  1.0546 -0.1696  0.6870
  159SAPE  C21317798   1.863   7.301   8.143  0.5818 -0.8523  0.6146
  159SAPE  H13R17799   1.950   7.333   8.081 -0.4781  2.2513  0.5327
  159SAPE  H13S17800   1.894   7.201   8.180 -2.2506 -1.3214  1.9322
  159SAPE  C21417801   1.857   7.400   8.262  0.4281  0.3014  0.0220
  159SAPE  H14R17802   1.911   7.495   8.252  0.4103  0.1684 -1.6466
  159SAPE  C21517803   1.804   7.358   8.373 -0.0570 -0.1823  0.1796
  159SAPE  H15R17804   1.813   7.428   8.457 -1.1788  0.6179 -0.3511
  159SAPE  C21617805   1.736   7.226   8.402  0.4128 -0.5429  0.7432
  159SAPE  H16R17806   1.739   7.146   8.326  1.6202  1.0591 -0.9800
  159SAPE  H16S17807   1.630   7.249   8.429  0.6486  0.3852  0.9156
  159SAPE  C21717808   1.816   7.154   8.509 -0.2342 -0.7860  0.5208
  159SAPE  H17R17809   1.850   7.216   8.594 -0.1364 -0.1861  0.0517
  159SAPE  H17S17810   1.908   7.112   8.463 -0.1766 -0.6812  0.5403
  159SAPE  C21817811   1.752   7.027   8.574  0.0636 -0.2931 -0.5268
  159SAPE  H18R17812   1.641   7.030   8.578  0.0913  0.7604 -0.3792
  159SAPE  H18S17813   1.795   7.029   8.676  0.6586  0.3519 -0.7812
  159SAPE  C21917814   1.787   6.891   8.514 -0.3363 -0.1602 -0.1084
  159SAPE  H19R17815   1.893   6.878   8.482 -0.6600  0.1329 -1.3397
  159SAPE  H19S17816   1.729   6.875   8.420  1.7103  1.0251 -1.6641
  159SAPE  C22017817   1.762   6.776   8.618 -0.5590  0.0720  0.3989
  159SAPE  H20R17818   1.658   6.794   8.652 -0.4216  0.0495  0.8351
  159SAPE  H20S17819   1.831   6.782   8.705 -1.8141  1.5994  1.3323
  159SAPE  H20T17820   1.749   6.676   8.570  0.7807  0.2980 -0.4878
  159SAPE   C3317821   1.729   6.342   7.527  0.6897 -1.0658 -0.1415
  159SAPE   H3X17822   1.780   6.260   7.472  1.0587 -0.2683 -1.0089
  159SAPE   H3Y17823   1.621   6.320   7.544 -0.5622  4.2899  0.7664
  159SAPE   C3417824   1.799   6.343   7.662 -0.6627  0.3031 -0.5724
  159SAPE   H4X17825   1.908   6.364   7.663  0.0889 -2.9288 -1.9642
  159SAPE   H4Y17826   1.802   6.239   7.702 -1.6525  1.1251  1.8372
  159SAPE   C3517827   1.728   6.424   7.770  0.1336  0.1600 -0.3907
  159SAPE   H5X17828   1.620   6.402   7.753  0.1381 -1.7869  1.5249
  159SAPE   H5Y17829   1.736   6.533   7.752  0.0499  0.1768 -0.3294
  159SAPE   C3617830   1.759   6.372   7.918  0.2689 -0.2252  1.4968
  159SAPE   H6X17831   1.722   6.267   7.917  2.9259 -1.2661 -1.2347
  159SAPE   H6Y17832   1.705   6.429   7.997  0.4967  0.2287  1.3308
  159SAPE   C3717833   1.910   6.382   7.952  0.8331  0.2027  0.4841
  159SAPE   H7X17834   1.936   6.489   7.939 -0.4186  0.5466  0.6364
  159SAPE   H7Y17835   1.970   6.323   7.880 -0.2036 -0.7775  0.3935
  159SAPE   C3817836   1.943   6.318   8.085 -0.7486 -0.6831 -0.2904
  159SAPE   H8X17837   1.926   6.208   8.088 -0.7455 -0.6912 -0.5350
  159SAPE   H8Y17838   1.873   6.361   8.160 -0.2858  0.0810 -0.2930
  159SAPE   C3917839   2.090   6.346   8.126 -0.0407 -0.3243  0.0822
  159SAPE   H9X17840   2.108   6.455   8.137  2.0321 -0.5528 -0.6865
  159SAPE   H9Y17841   2.160   6.299   8.054  0.8592  1.2737 -0.1450
  159SAPE  C31017842   2.135   6.279   8.262 -0.1981 -0.7957  0.4050
  159SAPE  H10X17843   2.233   6.301   8.309 -0.2853 -0.4015  0.4017
  159SAPE  H10Y17844   2.115   6.170   8.250 -0.5075 -0.5380 -1.7064
  159SAPE  C31117845   2.039   6.313   8.381  0.0069 -0.2035 -0.4846
  159SAPE  H11X17846   2.089   6.268   8.469  1.1923  2.4753  0.3276
  159SAPE  H11Y17847   1.943   6.259   8.366  1.0656 -2.5883  0.7482
  159SAPE  C31217848   2.031   6.462   8.412  0.3468  0.9812 -0.2264
  159SAPE  H12X17849   1.949   6.476   8.486  1.0759 -0.1989  0.8462
  159SAPE  H12Y17850   2.007   6.512   8.315  3.5250  3.3532  0.0486
  159SAPE  C31317851   2.152   6.525   8.464  0.1587  0.0171 -0.4056
  159SAPE  H13X17852   2.237   6.517   8.393  1.9746  0.2233  1.6114
  159SAPE  H13Y17853   2.181   6.465   8.553  1.5639 -0.0588 -0.8825
  159SAPE  C31417854   2.137   6.671   8.480  0.3195  0.0669  0.1984
  159SAPE  H14X17855   2.042   6.701   8.529 -1.8393 -2.1016 -2.3500
  159SAPE  H14Y17856   2.130   6.713   8.377 -2.0790 -3.1397 -1.1124
  159SAPE  C31517857   2.267   6.730   8.541 -0.9854  0.7822 -0.6049
  159SAPE  H15X17858   2.347   6.733   8.464 -0.6666 -0.4691 -0.3476
  159SAPE  H15Y17859   2.287   6.653   8.619 -2.1521 -2.3200 -3.1564
  159SAPE  C31617860   2.258   6.868   8.597 -0.0896  0.1402 -0.5750
  159SAPE  H16X17861   2.354   6.885   8.649 -0.7915  1.4573  0.3333
  159SAPE  H16Y17862   2.175   6.882   8.670  2.3308 -1.2262  2.6306
  159SAPE  C31717863   2.236   6.980   8.489  0.4357  0.0588  0.0380
  159SAPE  H17X17864   2.136   6.969   8.444  1.3943 -2.5539 -1.6726
  159SAPE  H17Y17865   2.309   6.958   8.408  1.3074 -0.1245  0.8385
  159SAPE  C31817866   2.253   7.121   8.545 -1.0885 -0.6162  0.1729
  159SAPE  H18X17867   2.358   7.147   8.571 -1.0549 -1.8498  1.3697
  159SAPE  H18Y17868   2.194   7.129   8.638  0.0951 -0.0150  0.8982
  159SAPE  H18Z17869   2.225   7.191   8.462 -0.1503 -1.1702 -0.6379
  160SAPE     N17870   0.088   0.712   6.664 -0.2011 -0.1144 -0.5915
  160SAPE   HN117871   0.011   0.683   6.728 -0.7124 -1.7027 -1.8758
  160SAPE   HN217872   0.139   0.627   6.636 -3.0374 -1.3167 -2.6370
  160SAPE   HN317873   0.153   0.776   6.714  3.1255 -1.4084 -2.9421
  160SAPE   C1217874   0.020   0.805   6.561  0.0370 -0.8613  0.0907
  160SAPE  H12A17875  -0.041   0.878   6.618 -0.9152  0.0545 -2.0048
  160SAPE  H12B17876  -0.043   0.744   6.492  1.7467 -0.1110 -2.2545
  160SAPE   C1117877   0.122   0.889   6.481  0.8476  0.4655  0.1186
  160SAPE  H11A17878   0.055   0.942   6.411 -0.8702  1.0368  2.0961
  160SAPE  H11B17879   0.195   0.820   6.433  1.8158 -0.4147  2.6521
  160SAPE     P17880   0.281   1.085   6.512 -0.4429  0.4335 -0.0403
  160SAPE   O1317881   0.407   1.019   6.469 -0.1881 -0.6232  0.5837
  160SAPE   O1417882   0.208   1.160   6.406  0.3737 -0.4055 -0.0595
  160SAPE   O1217883   0.189   0.971   6.568 -0.0268  0.4990 -0.5646
  160SAPE   O1117884   0.307   1.177   6.634  0.1310 -0.3038 -0.0020
  160SAPE    C117885   0.249   1.143   6.764  0.0744 -0.7436  0.0127
  160SAPE    HA17886   0.240   1.234   6.828  2.0252 -1.0839  0.8520
  160SAPE    HB17887   0.147   1.100   6.763 -0.0956 -0.4109  1.0275
  160SAPE    C217888   0.346   1.049   6.852  0.6693 -0.1129 -0.5645
  160SAPE    HS17889   0.365   0.958   6.791 -0.6581  0.7410 -2.3036
  160SAPE   O2117890   0.269   1.028   6.974  0.0199  0.1112  0.1244
  160SAPE   C2117891   0.182   0.929   6.973  0.0037  0.6919 -0.0751
  160SAPE   O2217892   0.139   0.875   6.873  0.3555  0.1260 -0.5776
  160SAPE   C2217893   0.147   0.894   7.124 -0.3113 -0.4385 -0.0875
  160SAPE   H2R17894   0.247   0.886   7.171 -0.3294 -2.2117 -0.2671
  160SAPE   H2S17895   0.098   0.985   7.163  0.0682 -0.0318 -0.5488
  160SAPE    C317896   0.482   1.110   6.891 -0.8420  0.3952  0.3067
  160SAPE    HX17897   0.546   1.124   6.801 -1.2215  1.1662  0.1424
  160SAPE    HY17898   0.543   1.048   6.960 -1.1744 -0.2801 -0.0015
  160SAPE   O3117899   0.470   1.244   6.947  0.5885  0.5631  0.0772
  160SAPE   C3117900   0.574   1.290   7.003 -0.7155  0.2651  0.6187
  160SAPE   O3217901   0.688   1.241   6.996  0.7509  0.6146  0.3110
  160SAPE   C3217902   0.530   1.414   7.076 -0.6010  0.1605  0.1575
  160SAPE   H2X17903   0.430   1.414   7.126 -0.0607  2.4638  1.4198
  160SAPE   H2Y17904   0.535   1.491   6.996  1.8829 -0.4277 -0.3368
  160SAPE   C2317905   0.073   0.764   7.144 -0.6361 -0.1117 -0.1193
  160SAPE   H3R17906   0.150   0.694   7.105  2.2633  2.1333  1.1717
  160SAPE   H3S17907  -0.016   0.763   7.078 -0.3806 -0.1496 -0.4648
  160SAPE   C2417908   0.058   0.740   7.296  0.0044 -0.5152  0.1495
  160SAPE   H4R17909   0.151   0.702   7.344  0.5902 -2.5662 -2.3602
  160SAPE   H4S17910  -0.001   0.647   7.304  0.6144 -0.7985  1.7156
  160SAPE   C2517911  -0.023   0.844   7.368  0.0740 -0.7140 -0.1276
  160SAPE   H5R17912  -0.114   0.873   7.313  1.1559 -0.2396 -1.7387
  160SAPE   C2617913   0.007   0.905   7.484  0.2628 -0.3533  0.3151
  160SAPE   H6R17914  -0.058   0.987   7.519 -0.1303 -0.6475  0.2814
  160SAPE   C2717915   0.127   0.876   7.572 -0.2651 -0.2920  0.4669
  160SAPE   H7R17916   0.151   0.967   7.631 -1.9190 -0.4095  1.3548
  160SAPE   H7S17917   0.210   0.857   7.500 -1.4618 -1.3352 -0.6890
  160SAPE   C2817918   0.124   0.766   7.670 -0.4993  0.5040  0.6362
  160SAPE   H8R17919   0.094   0.668   7.629  1.2865 -0.2300  0.9621
  160SAPE   C2917920   0.127   0.780   7.803 -0.0644  0.2836  0.1794
  160SAPE   H9R17921   0.104   0.691   7.864 -0.6516  0.0867 -0.3225
  160SAPE  C21017922   0.134   0.913   7.882  0.8429 -0.2079  0.5416
  160SAPE  H10R17923   0.134   1.009   7.827 -1.5490 -0.0741  0.6481
  160SAPE  H10S17924   0.234   0.906   7.930  1.6473 -3.5835 -1.2708
  160SAPE  C21117925   0.029   0.939   7.993  0.4793 -0.5808 -0.2597
  160SAPE  H11R17926  -0.067   0.978   7.955  1.5396  2.2419 -0.2919
  160SAPE  C21217927   0.033   0.900   8.123  0.1231  0.0115 -0.0531
  160SAPE  H12R17928  -0.062   0.900   8.179 -0.7696 -2.4556 -1.4034
  160SAPE  C21317929   0.142   0.826   8.197  0.2972 -0.3606  0.0551
  160SAPE  H13R17930   0.202   0.761   8.129  1.6758  1.8593 -0.9451
  160SAPE  H13S17931   0.096   0.749   8.263 -0.7305 -0.2623 -0.5221
  160SAPE  C21417932   0.239   0.909   8.273  0.0352 -0.4669 -0.5342
  160SAPE  H14R17933   0.298   0.980   8.214 -1.4274 -0.5979 -2.2457
  160SAPE  C21517934   0.257   0.898   8.407 -0.3198 -0.1331 -0.2715
  160SAPE  H15R17935   0.342   0.958   8.445 -0.2797  0.0642 -0.6737
  160SAPE  C21617936   0.195   0.812   8.507  0.7357  0.2333 -0.7644
  160SAPE  H16R17937   0.088   0.792   8.484  1.1332 -0.6433 -1.9290
  160SAPE  H16S17938   0.175   0.855   8.607  2.1429  0.8509 -0.7198
  160SAPE  C21717939   0.285   0.685   8.538  0.2548 -0.7251 -0.2363
  160SAPE  H17R17940   0.375   0.719   8.594  0.8884 -5.3749  2.0650
  160SAPE  H17S17941   0.312   0.640   8.440 -0.2451 -1.4218 -0.0694
  160SAPE  C21817942   0.211   0.577   8.613  0.4689 -0.2538  0.1893
  160SAPE  H18R17943   0.106   0.568   8.578 -1.2485  0.9631  4.3768
  160SAPE  H18S17944   0.196   0.612   8.718  1.0394  0.2738  0.0920
  160SAPE  C21917945   0.291   0.444   8.629 -0.1262  0.0923 -0.6685
  160SAPE  H19R17946   0.331   0.413   8.530 -0.7379  2.3691 -1.7011
  160SAPE  H19S17947   0.215   0.367   8.654  0.1237 -0.0479 -0.3308
  160SAPE  C22017948   0.393   0.455   8.749  0.1218  0.3574  0.0832
  160SAPE  H20R17949   0.464   0.540   8.740 -1.3723  1.7915  1.2022
  160SAPE  H20S17950   0.451   0.361   8.752  1.7469  1.3036 -0.3923
  160SAPE  H20T17951   0.343   0.476   8.846  1.6274  0.2483  0.9143
  160SAPE   C3317952   0.640   1.447   7.185  0.2541  0.4529  0.1942
  160SAPE   H3X17953   0.616   1.548   7.224  2.1072  0.4580  1.4622
  160SAPE   H3Y17954   0.737   1.460   7.132  1.8323 -4.1741  1.4788
  160SAPE   C3417955   0.662   1.353   7.299  0.3268 -0.2194  0.3299
  160SAPE   H4X17956   0.731   1.266   7.290  0.1260 -0.4226  0.7237
  160SAPE   H4Y17957   0.568   1.307   7.336  1.5151 -2.6238  0.6140
  160SAPE   C3517958   0.716   1.439   7.420  0.5945  0.4201  0.7466
  160SAPE   H5X17959   0.634   1.514   7.429  1.6088  1.8153 -0.9571
  160SAPE   H5Y17960   0.801   1.499   7.382  1.5985  1.1533  3.8350
  160SAPE   C3617961   0.753   1.359   7.542 -0.5195 -0.1161 -0.0988
  160SAPE   H6X17962   0.843   1.297   7.524 -0.4896  0.1751 -1.0248
  160SAPE   H6Y17963   0.667   1.292   7.565 -1.9594  1.9567  0.8956
  160SAPE   C3717964   0.774   1.461   7.657  0.2851  0.3601  0.9926
  160SAPE   H7X17965   0.689   1.528   7.679  0.7063  1.5104 -0.7106
  160SAPE   H7Y17966   0.866   1.521   7.636 -1.0395  1.3058 -3.0910
  160SAPE   C3817967   0.798   1.381   7.791 -0.0584  0.3694 -0.9574
  160SAPE   H8X17968   0.882   1.310   7.779 -1.6087 -1.6608 -0.2533
  160SAPE   H8Y17969   0.711   1.314   7.802  0.4390 -0.1358 -0.0350
  160SAPE   C3917970   0.813   1.480   7.902  0.4706 -0.0523  0.3210
  160SAPE   H9X17971   0.727   1.550   7.908  1.6853  1.5983 -0.5829
  160SAPE   H9Y17972   0.903   1.538   7.873  0.8135 -1.0000 -0.5612
  160SAPE  C31017973   0.840   1.418   8.039 -0.0520  1.2033 -1.0682
  160SAPE  H10X17974   0.903   1.326   8.044 -2.0755 -0.1898  0.0061
  160SAPE  H10Y17975   0.744   1.380   8.079 -0.1522  1.8942 -0.6428
  160SAPE  C31117976   0.892   1.519   8.136 -0.3738 -0.0126 -0.9644
  160SAPE  H11X17977   0.827   1.609   8.128 -3.7117 -2.3415 -2.0004
  160SAPE  H11Y17978   0.987   1.568   8.105  0.1571  0.8428  1.7759
  160SAPE  C31217979   0.894   1.482   8.287 -0.2294 -0.1850  0.0421
  160SAPE  H12X17980   0.797   1.430   8.294  0.0395 -0.8013 -0.5691
  160SAPE  H12Y17981   0.906   1.575   8.346 -0.6574  0.5117 -0.9404
  160SAPE  C31317982   1.002   1.384   8.338 -0.1027  0.2484 -0.2608
  160SAPE  H13X17983   1.096   1.439   8.318  0.0840 -0.5683 -1.8046
  160SAPE  H13Y17984   1.011   1.291   8.278  1.4182 -0.9458  1.7209
  160SAPE  C31417985   0.982   1.337   8.482 -0.5239  0.1473  0.4049
  160SAPE  H14X17986   0.881   1.291   8.494 -1.2690  1.0522 -1.8298
  160SAPE  H14Y17987   0.977   1.429   8.545 -0.5233  0.0792  0.5050
  160SAPE  C31517988   1.092   1.244   8.526  0.1769 -0.5782  0.8222
  160SAPE  H15X17989   1.185   1.283   8.478  1.1760 -1.8636  1.6546
  160SAPE  H15Y17990   1.074   1.146   8.478 -0.2389  0.4761 -1.2860
  160SAPE  C31617991   1.113   1.227   8.675 -0.7809  0.1520  0.0330
  160SAPE  H16X17992   1.154   1.129   8.705 -3.1607 -1.4745 -1.6824
  160SAPE  H16Y17993   1.010   1.221   8.716 -1.4405 -0.1692 -1.6119
  160SAPE  C31717994   1.200   1.340   8.741 -0.1033 -0.4829  0.1762
  160SAPE  H17X17995   1.147   1.431   8.708 -1.8750 -2.1530 -1.8770
  160SAPE  H17Y17996   1.303   1.321   8.704 -0.8159 -2.9604 -0.7848
  160SAPE  C31817997   1.194   1.360   8.895  0.2659  0.2947 -0.1813
  160SAPE  H18X17998   1.267   1.437   8.929  0.0622  0.5246 -0.2666
  160SAPE  H18Y17999   1.211   1.259   8.938 -1.7969  1.0403  2.6745
  160SAPE  H18Z18000   1.091   1.385   8.928  0.8574 -1.1218  3.2538
  161SAPE     N18001   0.994   5.657   6.135  0.0436 -0.5620  0.3373
  161SAPE   HN118002   0.939   5.590   6.193  0.3090 -1.6127 -0.5918
  161SAPE   HN218003   0.962   5.755   6.143 -0.0219 -0.5652  0.1084
  161SAPE   HN318004   0.989   5.629   6.035  0.0526 -1.1394  0.4902
  161SAPE   C1218005   1.130   5.649   6.191 -0.4945  0.4370  0.3414
  161SAPE  H12A18006   1.190   5.733   6.150 -0.6507  0.3399 -0.0989
  161SAPE  H12B18007   1.171   5.549   6.166 -1.0984  0.5337 -1.1567
  161SAPE   C1118008   1.126   5.667   6.338 -0.5942 -0.5672 -0.6217
  161SAPE  H11A18009   1.229   5.645   6.374 -1.6954  0.4895  3.7524
  161SAPE  H11B18010   1.064   5.597   6.398  0.2376 -0.6278  0.1896
  161SAPE     P18011   1.178   5.906   6.429  0.1911 -0.2320 -0.0302
  161SAPE   O1318012   1.317   5.883   6.380 -0.6112  0.2557  0.3311
  161SAPE   O1418013   1.122   6.041   6.426 -0.6245  0.0128 -0.0418
  161SAPE   O1218014   1.077   5.801   6.365  0.6884  0.0394  0.4759
  161SAPE   O1118015   1.171   5.864   6.582 -0.8205 -0.0022  0.1052
  161SAPE    C118016   1.053   5.823   6.649 -0.6209  0.4451  0.3909
  161SAPE    HA18017   0.970   5.896   6.640 -1.1229 -0.2756 -1.2919
  161SAPE    HB18018   1.009   5.736   6.595 -0.4152  1.3703 -1.3544
  161SAPE    C218019   1.086   5.784   6.795 -0.1197  0.8506 -0.0144
  161SAPE    HS18020   1.006   5.718   6.835  0.7834 -0.8255 -0.8804
  161SAPE   O2118021   1.102   5.902   6.880  0.1559  0.8668 -0.1249
  161SAPE   C2118022   0.985   5.958   6.918  0.2188 -0.1063 -0.1774
  161SAPE   O2218023   0.876   5.919   6.886 -0.1226  0.2627  0.5886
  161SAPE   C2218024   1.020   6.070   7.018  1.0719 -0.0241  0.7301
  161SAPE   H2R18025   1.118   6.104   6.980 -0.2845 -0.7397 -3.9947
  161SAPE   H2S18026   0.937   6.144   7.017 -0.6541 -1.8365 -1.2213
  161SAPE    C318027   1.214   5.693   6.812  0.3385  0.0229 -0.4139
  161SAPE    HX18028   1.289   5.756   6.760  1.4919 -0.6076  0.4539
  161SAPE    HY18029   1.199   5.594   6.765 -0.9839 -0.8600  1.7327
  161SAPE   O3118030   1.231   5.674   6.960  0.3299  0.0724  0.5640
  161SAPE   C3118031   1.354   5.616   6.984  0.6982 -1.2763 -0.5610
  161SAPE   O3218032   1.437   5.580   6.907 -0.4266  0.0967  0.6163
  161SAPE   C3218033   1.378   5.588   7.137  0.3997  0.4599 -0.0923
  161SAPE   H2X18034   1.295   5.624   7.201 -1.7247  0.9035 -2.8722
  161SAPE   H2Y18035   1.471   5.645   7.156  1.7837 -1.9657  0.8568
  161SAPE   C2318036   1.047   6.008   7.156  0.6458  0.4556 -0.7863
  161SAPE   H3R18037   1.092   6.082   7.226  1.4265 -1.1116  0.4408
  161SAPE   H3S18038   1.116   5.922   7.151 -1.0986 -1.1470  0.8334
  161SAPE   C2418039   0.913   5.953   7.220 -0.6186 -0.0289  0.5234
  161SAPE   H4R18040   0.863   5.891   7.143  2.2684 -1.1933 -0.5655
  161SAPE   H4S18041   0.847   6.039   7.242  2.2910  2.4940  0.1879
  161SAPE   C2518042   0.945   5.862   7.339 -0.4592  0.3630  0.3684
  161SAPE   H5R18043   0.969   5.909   7.436 -1.0396  1.9903 -0.2412
  161SAPE   C2618044   0.920   5.729   7.356 -0.5250 -0.3107  0.1676
  161SAPE   H6R18045   0.947   5.693   7.456  0.7225  0.7482  0.2389
  161SAPE   C2718046   0.862   5.638   7.251  0.1373  0.0392  0.2794
  161SAPE   H7R18047   0.851   5.678   7.148  1.5039  0.0215  0.1068
  161SAPE   H7S18048   0.758   5.610   7.278 -0.3036 -0.5726 -1.8138
  161SAPE   C2818049   0.942   5.510   7.230 -0.1778  0.2842 -0.9948
  161SAPE   H8R18050   1.047   5.531   7.207  0.0829 -0.1060 -0.1952
  161SAPE   C2918051   0.903   5.383   7.243  0.2323 -0.5677  0.8568
  161SAPE   H9R18052   0.983   5.308   7.245  1.4289  0.6385 -0.0324
  161SAPE  C21018053   0.761   5.345   7.273 -0.3444 -0.8614 -1.0809
  161SAPE  H10R18054   0.679   5.412   7.240  1.3363  2.2189  0.5951
  161SAPE  H10S18055   0.762   5.343   7.384 -0.1211 -1.1453 -1.0880
  161SAPE  C21118056   0.733   5.209   7.218  0.2667  0.2313 -0.2953
  161SAPE  H11R18057   0.734   5.200   7.109  0.3448 -0.2217 -0.2591
  161SAPE  C21218058   0.701   5.106   7.289  0.4329 -0.2549 -0.9430
  161SAPE  H12R18059   0.648   5.018   7.252  0.6730 -1.5521  1.5780
  161SAPE  C21318060   0.702   5.102   7.440  0.2456  0.0588 -1.3724
  161SAPE  H13R18061   0.604   5.140   7.477  0.1426  0.4076 -1.9915
  161SAPE  H13S18062   0.784   5.161   7.486 -0.4148 -0.9365  1.2739
  161SAPE  C21418063   0.708   4.964   7.504 -0.2955  0.5170  0.6449
  161SAPE  H14R18064   0.659   4.888   7.441  0.3699  1.9566 -1.7441
  161SAPE  C21518065   0.756   4.928   7.623 -0.2630 -0.4521  0.7136
  161SAPE  H15R18066   0.745   4.821   7.647 -0.6636 -1.2717 -2.5732
  161SAPE  C21618067   0.825   5.023   7.720 -0.2929 -0.5152 -1.2992
  161SAPE  H16R18068   0.766   5.109   7.759 -0.8076 -1.3702 -0.0988
  161SAPE  H16S18069   0.919   5.069   7.684 -0.4112  0.9256  0.0925
  161SAPE  C21718070   0.868   4.936   7.843  0.6363  0.2382  0.0241
  161SAPE  H17R18071   0.944   4.857   7.824  2.8070  2.0661  0.6764
  161SAPE  H17S18072   0.785   4.888   7.901  2.6792  0.5414  3.5133
  161SAPE  C21818073   0.926   5.020   7.958  0.1578 -0.3600  0.0988
  161SAPE  H18R18074   0.872   5.113   7.982  1.8837  1.0365 -1.1489
  161SAPE  H18S18075   1.028   5.055   7.929 -0.6882  1.6498 -0.5737
  161SAPE  C21918076   0.952   4.937   8.086 -0.4013 -0.1001 -0.7089
  161SAPE  H19R18077   1.037   4.977   8.144  0.7828 -2.0006 -1.0381
  161SAPE  H19S18078   0.988   4.837   8.052  1.0158  0.5261 -1.1294
  161SAPE  C22018079   0.832   4.921   8.183  0.3465 -0.3967  0.1515
  161SAPE  H20R18080   0.860   4.870   8.278 -1.8372 -0.3293  0.8808
  161SAPE  H20S18081   0.760   4.848   8.140  0.9352 -1.3226  0.6909
  161SAPE  H20T18082   0.784   5.018   8.205  2.6423  0.4314  1.8938
  161SAPE   C3318083   1.399   5.431   7.162 -0.5317  0.3361  0.3806
  161SAPE   H3X18084   1.495   5.404   7.114 -2.4185 -0.4365 -3.3047
  161SAPE   H3Y18085   1.313   5.379   7.115  0.2877 -3.0676  2.3156
  161SAPE   C3418086   1.409   5.386   7.312 -0.2634  0.7192  0.0842
  161SAPE   H4X18087   1.498   5.420   7.370  0.7514 -2.1224  0.3617
  161SAPE   H4Y18088   1.413   5.275   7.308 -0.8134  0.6909  0.2008
  161SAPE   C3518089   1.280   5.412   7.389  0.0904  0.2112  0.0132
  161SAPE   H5X18090   1.194   5.377   7.328  1.3444 -0.6946 -1.3201
  161SAPE   H5Y18091   1.279   5.520   7.415  2.1220  0.2659  0.0254
  161SAPE   C3618092   1.271   5.333   7.526 -0.7067 -1.0086  0.2795
  161SAPE   H6X18093   1.325   5.397   7.599 -0.5120 -0.4481 -0.3478
  161SAPE   H6Y18094   1.334   5.243   7.509 -1.2060 -1.1114 -1.1016
  161SAPE   C3718095   1.138   5.297   7.586 -0.5889  0.4684 -0.1520
  161SAPE   H7X18096   1.152   5.223   7.668  1.3572  1.6873  0.6820
  161SAPE   H7Y18097   1.079   5.249   7.504 -0.8912 -0.4947  0.6109
  161SAPE   C3818098   1.060   5.424   7.613  0.1524 -0.0773  0.7911
  161SAPE   H8X18099   1.057   5.479   7.516 -0.4728  0.7312  1.2557
  161SAPE   H8Y18100   1.117   5.492   7.681 -0.3860  1.3077 -0.0945
  161SAPE   C3918101   0.914   5.402   7.661 -0.3265  0.9855  0.2716
  161SAPE   H9X18102   0.910   5.373   7.768  0.5249  2.4217  0.7226
  161SAPE   H9Y18103   0.878   5.311   7.607  2.0844 -0.3647  0.8037
  161SAPE  C31018104   0.817   5.518   7.655  0.4155  0.4963 -0.1372
  161SAPE  H10X18105   0.721   5.468   7.679 -0.0586  1.0475 -0.8111
  161SAPE  H10Y18106   0.820   5.552   7.549 -0.6922 -1.4636 -0.8457
  161SAPE  C31118107   0.852   5.622   7.760  0.1941 -0.7217  0.9090
  161SAPE  H11X18108   0.961   5.625   7.780  0.9239  1.6193 -2.6579
  161SAPE  H11Y18109   0.821   5.606   7.866 -1.6394 -1.1926  0.3368
  161SAPE  C31218110   0.798   5.763   7.731 -0.3386  0.2533 -0.3319
  161SAPE  H12X18111   0.825   5.778   7.624  0.7236  1.5993  0.0886
  161SAPE  H12Y18112   0.864   5.839   7.777  2.3811 -1.3651 -1.3082
  161SAPE  C31318113   0.654   5.778   7.772  0.3005 -0.2755 -0.0761
  161SAPE  H13X18114   0.602   5.696   7.718 -0.4165  0.4452 -0.4963
  161SAPE  H13Y18115   0.616   5.873   7.728 -0.0903 -0.0288  0.7678
  161SAPE  C31418116   0.620   5.782   7.921 -0.3340 -0.0638 -0.6063
  161SAPE  H14X18117   0.718   5.774   7.974 -1.3707  1.6712  1.7324
  161SAPE  H14Y18118   0.550   5.700   7.945  1.0746 -0.5834  2.1637
  161SAPE  C31518119   0.535   5.906   7.950  0.9162 -0.1864 -0.0990
  161SAPE  H15X18120   0.437   5.924   7.900  0.5780 -0.3063  0.5162
  161SAPE  H15Y18121   0.593   5.995   7.918  2.2308 -0.7215  0.7325
  161SAPE  C31618122   0.510   5.943   8.102 -0.4680  0.0326 -0.2416
  161SAPE  H16X18123   0.609   5.942   8.152 -1.2904 -1.2721  1.4653
  161SAPE  H16Y18124   0.446   5.862   8.146 -0.4746  0.2145  0.0891
  161SAPE  C31718125   0.460   6.087   8.116 -0.6756 -0.6077 -0.4149
  161SAPE  H17X18126   0.366   6.099   8.059 -1.1923 -1.7283  0.1792
  161SAPE  H17Y18127   0.529   6.164   8.075 -2.1850  2.2520  1.9757
  161SAPE  C31818128   0.422   6.138   8.257 -0.0278 -0.0311  0.2941
  161SAPE  H18X18129   0.512   6.170   8.314  0.1312  0.3076 -0.1413
  161SAPE  H18Y18130   0.385   6.055   8.320 -0.2930  0.0450  0.2379
  161SAPE  H18Z18131   0.334   6.205   8.251  0.0905  0.1701  0.8112
  162SAPE     N18132   1.614   1.938   6.065 -0.0146  0.2019 -0.0197
  162SAPE   HN118133   1.519   1.966   6.033 -0.0363 -0.5413 -0.6392
  162SAPE   HN218134   1.674   1.934   5.980 -1.0698 -2.2461 -0.7209
  162SAPE   HN318135   1.617   1.845   6.111  3.6584 -0.0329 -0.4182
  162SAPE   C1218136   1.656   2.031   6.174 -0.8720  0.4429  1.0155
  162SAPE  H12A18137   1.700   2.124   6.132 -0.4181 -0.5987 -0.9391
  162SAPE  H12B18138   1.735   1.977   6.230  0.4050 -2.0068 -2.7123
  162SAPE   C1118139   1.532   2.065   6.258 -0.0828 -0.0373  0.1415
  162SAPE  H11A18140   1.570   2.128   6.341 -2.5469  0.6536  0.8286
  162SAPE  H11B18141   1.489   1.977   6.311  1.2621 -0.1940  1.0263
  162SAPE     P18142   1.302   2.083   6.126 -0.1915  0.3709  0.2034
  162SAPE   O1318143   1.225   2.189   6.054 -0.7173  0.2223 -0.2958
  162SAPE   O1418144   1.360   1.979   6.036  1.4793  0.1690 -0.1169
  162SAPE   O1218145   1.423   2.145   6.201  0.6272  0.6661  0.1040
  162SAPE   O1118146   1.195   2.018   6.233 -0.1504 -0.5550  0.0468
  162SAPE    C118147   1.125   2.098   6.325 -0.5059  0.1768 -0.4167
  162SAPE    HA18148   1.091   2.199   6.295 -2.0243  0.3729  1.7575
  162SAPE    HB18149   1.033   2.046   6.357 -0.4797  0.2691 -0.1917
  162SAPE    C218150   1.210   2.098   6.460  0.4349 -0.1670 -0.0989
  162SAPE    HS18151   1.301   2.159   6.446 -0.8927  2.4533  1.7542
  162SAPE   O2118152   1.215   1.962   6.506  0.2683 -0.9002  0.1960
  162SAPE   C2118153   1.333   1.944   6.573 -0.3185  0.1887  0.2768
  162SAPE   O2218154   1.427   2.024   6.588  0.1548  0.1646 -0.8037
  162SAPE   C2218155   1.334   1.795   6.621  0.3224  0.1505 -0.5669
  162SAPE   H2R18156   1.252   1.736   6.577  0.0933  1.1280 -1.4781
  162SAPE   H2S18157   1.428   1.751   6.581 -1.0795 -0.2734 -3.6743
  162SAPE    C318158   1.130   2.184   6.560 -0.5951  0.0202 -0.4855
  162SAPE    HX18159   1.048   2.117   6.591 -0.3363 -0.6466 -1.2278
  162SAPE    HY18160   1.092   2.278   6.515 -2.9228  0.7727  2.6899
  162SAPE   O3118161   1.208   2.213   6.681 -0.0646 -0.5525  0.3701
  162SAPE   C3118162   1.278   2.322   6.683 -0.8253  0.0618  0.5845
  162SAPE   O3218163   1.285   2.403   6.594  0.3675 -0.3774  0.0459
  162SAPE   C3218164   1.335   2.348   6.827 -0.1274 -0.1542 -0.3211
  162SAPE   H2X18165   1.393   2.443   6.827 -0.5612  0.1685  2.1971
  162SAPE   H2Y18166   1.399   2.262   6.857 -0.7168  0.5459  3.4142
  162SAPE   C2318167   1.328   1.780   6.773 -0.7260  0.1078 -0.7000
  162SAPE   H3R18168   1.416   1.817   6.829 -1.0346  2.1543 -1.4938
  162SAPE   H3S18169   1.324   1.670   6.793  1.8371  0.3388  1.6217
  162SAPE   C2418170   1.192   1.839   6.822 -0.9610  0.2903 -0.1058
  162SAPE   H4R18171   1.148   1.754   6.879 -1.1725 -1.2678 -2.4682
  162SAPE   H4S18172   1.120   1.846   6.737 -1.2416 -2.5760 -0.1890
  162SAPE   C2518173   1.206   1.969   6.898 -0.3142  0.3082  0.6884
  162SAPE   H5R18174   1.210   2.055   6.830 -2.3318 -1.6971 -2.2405
  162SAPE   C2618175   1.193   1.982   7.031  0.1480  0.4689 -0.1179
  162SAPE   H6R18176   1.216   2.078   7.081  0.7350 -0.2149  0.9771
  162SAPE   C2718177   1.167   1.875   7.137 -0.2485 -0.1533 -0.2813
  162SAPE   H7R18178   1.147   1.775   7.094  0.2612 -1.0090  1.3999
  162SAPE   H7S18179   1.071   1.899   7.189  0.4270 -0.7618  1.3085
  162SAPE   C2818180   1.283   1.863   7.233 -0.1519 -0.7302  0.0342
  162SAPE   H8R18181   1.369   1.804   7.202  0.0061 -1.3136  1.5020
  162SAPE   C2918182   1.284   1.904   7.357  0.1002 -0.0506  0.1624
  162SAPE   H9R18183   1.371   1.873   7.416 -0.7097 -1.5800  0.6126
  162SAPE  C21018184   1.179   1.978   7.439  0.1348 -0.1678 -0.2058
  162SAPE  H10R18185   1.110   1.904   7.485  1.6968 -0.0271  2.5726
  162SAPE  H10S18186   1.111   2.043   7.380 -0.4691 -0.2673  0.3735
  162SAPE  C21118187   1.232   2.064   7.549 -0.0541  0.0673 -0.4614
  162SAPE  H11R18188   1.228   2.171   7.524 -2.3287  0.2269  0.3635
  162SAPE  C21218189   1.287   2.021   7.669  0.9931 -0.6022 -0.5931
  162SAPE  H12R18190   1.321   2.095   7.742  2.2840  0.2944 -2.0390
  162SAPE  C21318191   1.287   1.876   7.716  0.0572  0.3774 -0.5271
  162SAPE  H13R18192   1.364   1.864   7.795 -0.6197  1.9688  0.4302
  162SAPE  H13S18193   1.317   1.815   7.628  3.0107  4.1431 -2.4561
  162SAPE  C21418194   1.163   1.825   7.780 -0.1180 -0.4841 -0.7093
  162SAPE  H14R18195   1.100   1.752   7.727 -2.8299  1.8792 -1.0205
  162SAPE  C21518196   1.109   1.877   7.895  0.6321 -0.5819 -0.6224
  162SAPE  H15R18197   1.021   1.826   7.936 -0.0821  0.6210 -0.6166
  162SAPE  C21618198   1.169   1.986   7.985 -0.8691 -0.7519 -0.2360
  162SAPE  H16R18199   1.113   2.081   7.973 -3.1270 -2.0236 -0.3552
  162SAPE  H16S18200   1.274   2.009   7.960 -1.2174  0.8170 -0.3300
  162SAPE  C21718201   1.175   1.952   8.136  0.2516  0.5973 -0.1066
  162SAPE  H17R18202   1.263   2.005   8.180  1.4842 -1.7830  0.5128
  162SAPE  H17S18203   1.185   1.842   8.154 -2.1847  0.5962  1.8604
  162SAPE  C21818204   1.053   2.007   8.210 -0.4579  0.0411  0.1556
  162SAPE  H18R18205   0.957   1.989   8.157 -0.0479 -1.9891  0.0253
  162SAPE  H18S18206   1.053   2.118   8.215 -2.3333  0.1561 -1.1353
  162SAPE  C21918207   1.053   1.943   8.350  0.2481 -0.8374  0.4428
  162SAPE  H19R18208   1.047   1.832   8.353  3.2240 -1.0632  2.9407
  162SAPE  H19S18209   0.964   1.981   8.405  1.1364  1.2255  0.5603
  162SAPE  C22018210   1.171   1.973   8.440 -0.7778  0.3218 -0.0850
  162SAPE  H20R18211   1.253   1.908   8.402 -1.5152 -1.3428  1.0608
  162SAPE  H20S18212   1.148   1.953   8.546 -2.5992  2.0986 -0.0917
  162SAPE  H20T18213   1.202   2.079   8.436 -1.6672  0.6424  0.9925
  162SAPE   C3318214   1.222   2.369   6.933  0.6640 -0.2436 -0.2122
  162SAPE   H3X18215   1.153   2.282   6.933 -1.7366  1.5282 -1.4552
  162SAPE   H3Y18216   1.164   2.458   6.901  0.0646 -0.1908  0.9715
  162SAPE   C3418217   1.270   2.407   7.073 -0.0547  0.1577  0.8586
  162SAPE   H4X18218   1.288   2.516   7.067  0.3738  0.0162 -1.2639
  162SAPE   H4Y18219   1.369   2.363   7.095  0.0284 -1.4055 -2.1311
  162SAPE   C3518220   1.170   2.363   7.181  0.2890 -0.2014 -0.0460
  162SAPE   H5X18221   1.154   2.253   7.183 -1.6141  0.0632  1.9568
  162SAPE   H5Y18222   1.074   2.411   7.152  0.6225 -0.0737 -0.9981
  162SAPE   C3618223   1.206   2.404   7.327 -0.2187  0.5373  0.4560
  162SAPE   H6X18224   1.287   2.333   7.353 -0.5701 -0.3732 -0.8074
  162SAPE   H6Y18225   1.125   2.385   7.400 -0.4761 -2.5730 -0.4795
  162SAPE   C3718226   1.266   2.550   7.342  0.7900  0.1428 -0.3886
  162SAPE   H7X18227   1.195   2.615   7.286  0.4741 -0.9578 -1.3182
  162SAPE   H7Y18228   1.359   2.543   7.282  0.6938 -0.5611 -0.4574
  162SAPE   C3818229   1.289   2.605   7.481 -0.3721  0.0759  0.2009
  162SAPE   H8X18230   1.198   2.600   7.545  1.0094  1.0435  2.3614
  162SAPE   H8Y18231   1.318   2.713   7.478 -1.9692  0.5150 -0.6739
  162SAPE   C3918232   1.405   2.529   7.550  0.1016  0.6015  1.1374
  162SAPE   H9X18233   1.505   2.541   7.503  1.5904 -0.7295  3.7188
  162SAPE   H9Y18234   1.382   2.420   7.541 -0.8774  0.8837 -0.0322
  162SAPE  C31018235   1.413   2.552   7.699 -0.2141  0.3482  0.5691
  162SAPE  H10X18236   1.406   2.656   7.735 -2.2185  0.3171  0.3960
  162SAPE  H10Y18237   1.515   2.515   7.723  0.5108  1.8905 -0.0305
  162SAPE  C31118238   1.310   2.467   7.778 -0.0430 -0.3267  0.1257
  162SAPE  H11X18239   1.288   2.366   7.738  1.0587 -0.1243 -1.0659
  162SAPE  H11Y18240   1.214   2.522   7.771  0.3657  0.6071  1.3752
  162SAPE  C31218241   1.326   2.462   7.932  0.2728  0.2440  0.5573
  162SAPE  H12X18242   1.332   2.559   7.986  1.0113  0.7774 -0.4490
  162SAPE  H12Y18243   1.426   2.420   7.954  0.0856 -1.2068 -1.1693
  162SAPE  C31318244   1.230   2.372   8.009  0.3529 -0.0272  0.3154
  162SAPE  H13X18245   1.243   2.270   7.968 -0.8428 -0.5566  1.1722
  162SAPE  H13Y18246   1.125   2.392   7.980 -0.8876 -3.8123  1.5462
  162SAPE  C31418247   1.236   2.375   8.165  0.1761 -0.0822  0.3488
  162SAPE  H14X18248   1.338   2.339   8.188 -0.3013 -0.2172  2.4751
  162SAPE  H14Y18249   1.158   2.313   8.214 -0.3508  0.8117  0.6874
  162SAPE  C31518250   1.226   2.518   8.224  0.6228  0.2968 -0.8607
  162SAPE  H15X18251   1.134   2.572   8.192  0.0100  0.0354  0.3926
  162SAPE  H15Y18252   1.305   2.585   8.184  0.1554  1.3922 -0.0053
  162SAPE  C31618253   1.222   2.535   8.375  0.0367 -0.1250  0.5304
  162SAPE  H16X18254   1.117   2.528   8.411 -0.0300  2.3428  0.9966
  162SAPE  H16Y18255   1.248   2.637   8.410  3.1472 -0.6413  0.0293
  162SAPE  C31718256   1.314   2.441   8.455  0.5546  0.8634  0.4721
  162SAPE  H17X18257   1.421   2.453   8.426  0.2438  1.5452 -0.4385
  162SAPE  H17Y18258   1.281   2.336   8.441 -1.2001  1.2681  1.3204
  162SAPE  C31818259   1.292   2.480   8.603  0.2171  0.0772 -0.8322
  162SAPE  H18X18260   1.193   2.446   8.638 -0.0474  2.2367  0.7286
  162SAPE  H18Y18261   1.298   2.590   8.616  0.8239 -0.0997  0.5201
  162SAPE  H18Z18262   1.375   2.434   8.660 -0.6873  0.2966  0.7145
  163SAPE     N18263   6.298   1.504   6.548 -0.0939  0.1158 -0.0549
  163SAPE   HN118264   6.330   1.504   6.449 -1.7817  0.5769 -0.6501
  163SAPE   HN218265   6.210   1.449   6.558 -1.0728  1.9003  1.8974
  163SAPE   HN318266   6.274   1.604   6.562  0.2707  0.2988 -0.6850
  163SAPE   C1218267   6.402   1.444   6.634 -0.1456 -0.3093 -0.5102
  163SAPE  H12A18268   6.369   1.429   6.739  0.9803  2.8161  0.4266
  163SAPE  H12B18269   6.485   1.517   6.650  1.2197 -2.5242  4.4467
  163SAPE   C1118270   6.456   1.313   6.566 -1.0265  0.2017 -0.1107
  163SAPE  H11A18271   6.548   1.273   6.615 -0.4599  0.6527 -0.7927
  163SAPE  H11B18272   6.490   1.338   6.464 -0.3600  1.3294  0.3751
  163SAPE     P18273   6.301   1.121   6.675 -0.0512  0.0470  0.1713
  163SAPE   O1318274   6.185   1.184   6.746  0.0207 -0.2898 -0.2578
  163SAPE   O1418275   6.288   0.987   6.618  0.5245 -0.2003 -0.3169
  163SAPE   O1218276   6.355   1.220   6.563  0.2362 -0.2569  0.0763
  163SAPE   O1118277   6.419   1.114   6.780 -0.0583  0.0063 -0.2784
  163SAPE    C118278   6.537   1.035   6.761  0.2158 -0.0875  0.4312
  163SAPE    HA18279   6.506   0.930   6.741  1.4422 -0.4054  0.1208
  163SAPE    HB18280   6.596   1.069   6.673 -0.1087 -2.3802 -0.7679
  163SAPE    C218281   6.626   1.046   6.897  0.3054 -0.0836  0.0155
  163SAPE    HS18282   6.723   0.999   6.875  1.6395  1.9260  1.2520
  163SAPE   O2118283   6.560   0.978   7.007 -0.5253  0.0379 -0.0172
  163SAPE   C2118284   6.543   0.851   6.991  0.0945  0.2574  0.1424
  163SAPE   O2218285   6.596   0.782   6.902 -0.4024  0.0391 -0.0559
  163SAPE   C2218286   6.439   0.811   7.098  0.6669  0.7132  0.2746
  163SAPE   H2R18287   6.420   0.885   7.179 -3.1158 -0.8186  1.0111
  163SAPE   H2S18288   6.341   0.809   7.047  0.2016  2.1435  1.0633
  163SAPE    C318289   6.651   1.193   6.937 -0.0364  0.6065 -0.0654
  163SAPE    HX18290   6.555   1.242   6.966 -0.9035  0.0424 -1.8736
  163SAPE    HY18291   6.700   1.247   6.853  1.6561  1.4426  1.3760
  163SAPE   O3118292   6.747   1.195   7.049  0.1419 -0.7222 -0.9755
  163SAPE   C3118293   6.822   1.303   7.061 -1.5627  0.6898  0.0793
  163SAPE   O3218294   6.821   1.400   6.989 -0.1688  0.5799 -0.4595
  163SAPE   C3218295   6.918   1.283   7.182  0.0322  0.3548  0.1885
  163SAPE   H2X18296   6.981   1.375   7.177 -0.1623  0.4617 -0.3613
  163SAPE   H2Y18297   6.982   1.197   7.151  0.3319  0.9706 -0.9622
  163SAPE   C2318298   6.462   0.669   7.170  0.0959 -0.1869 -0.8423
  163SAPE   H3R18299   6.552   0.668   7.234 -0.3633  2.1259 -0.0735
  163SAPE   H3S18300   6.473   0.591   7.092 -0.2038 -0.7166 -0.3655
  163SAPE   C2418301   6.340   0.636   7.250  0.0367  0.0708  0.4185
  163SAPE   H4R18302   6.260   0.627   7.173 -0.7553 -0.7415  1.3192
  163SAPE   H4S18303   6.317   0.716   7.323  0.2473 -0.8414  1.5081
  163SAPE   C2518304   6.358   0.512   7.333 -0.1709  0.4809  0.5790
  163SAPE   H5R18305   6.333   0.413   7.291 -0.5900  1.0241 -0.4920
  163SAPE   C2618306   6.405   0.513   7.461 -0.4493 -0.4281  1.0777
  163SAPE   H6R18307   6.410   0.416   7.512  0.2268 -2.0142 -1.7814
  163SAPE   C2718308   6.442   0.638   7.539 -0.8686 -0.1535  0.1036
  163SAPE   H7R18309   6.363   0.657   7.615 -1.4272 -0.0639 -0.4845
  163SAPE   H7S18310   6.429   0.731   7.479 -0.3236 -1.2360 -1.7917
  163SAPE   C2818311   6.578   0.633   7.598  0.4638  0.8487  0.5167
  163SAPE   H8R18312   6.656   0.652   7.523  0.5565  3.0810  1.0853
  163SAPE   C2918313   6.615   0.583   7.719 -0.2284 -0.1147  0.0797
  163SAPE   H9R18314   6.721   0.586   7.750 -0.3020  0.6869  0.2906
  163SAPE  C21018315   6.512   0.539   7.822 -0.0328  0.2322 -0.5710
  163SAPE  H10R18316   6.420   0.510   7.767 -0.7281 -0.3438  0.8551
  163SAPE  H10S18317   6.497   0.621   7.895 -0.7368 -0.6657  0.3124
  163SAPE  C21118318   6.545   0.409   7.889 -0.2201  0.1664  0.1070
  163SAPE  H11R18319   6.529   0.323   7.821  3.1440 -1.0677  0.6730
  163SAPE  C21218320   6.567   0.387   8.016  0.2482 -0.0257  0.7243
  163SAPE  H12R18321   6.606   0.294   8.061 -1.1718  0.0743  2.2530
  163SAPE  C21318322   6.574   0.499   8.117  0.3295 -0.9752 -0.3533
  163SAPE  H13R18323   6.497   0.575   8.093  1.5445  0.0971 -0.9705
  163SAPE  H13S18324   6.673   0.548   8.117  0.4701 -1.2583 -0.5786
  163SAPE  C21418325   6.520   0.447   8.249 -0.3195 -0.8696 -0.3344
  163SAPE  H14R18326   6.416   0.477   8.271  0.1701  1.4790 -0.9255
  163SAPE  C21518327   6.593   0.391   8.350 -0.8947 -0.5791 -0.1830
  163SAPE  H15R18328   6.535   0.351   8.434 -0.5756  0.5577  0.6120
  163SAPE  C21618329   6.741   0.354   8.364 -0.2960 -0.3426 -0.3305
  163SAPE  H16R18330   6.794   0.407   8.446 -1.2317  2.1352 -1.2233
  163SAPE  H16S18331   6.793   0.396   8.274 -0.0009 -1.7138 -0.8215
  163SAPE  C21718332   6.785   0.210   8.374 -0.2266  0.3699  0.5456
  163SAPE  H17R18333   6.894   0.194   8.389 -0.2552 -0.3568  0.0713
  163SAPE  H17S18334   6.776   0.151   8.280  1.5521  3.2573 -1.6306
  163SAPE  C21818335   6.715   0.134   8.488  0.1032 -0.7665  0.0388
  163SAPE  H18R18336   6.606   0.130   8.465  0.1581 -1.1744 -0.1653
  163SAPE  H18S18337   6.729   0.192   8.581 -3.7098  0.6667 -0.0816
  163SAPE  C21918338   6.762  -0.009   8.510 -0.2913  0.3623  0.4092
  163SAPE  H19R18339   6.710  -0.056   8.596 -0.3872 -0.2135  0.0416
  163SAPE  H19S18340   6.870  -0.007   8.536 -1.1463  0.1717  4.7246
  163SAPE  C22018341   6.730  -0.102   8.387  0.0302 -0.1580 -0.5977
  163SAPE  H20R18342   6.622  -0.125   8.383 -0.2613  0.8887  0.3781
  163SAPE  H20S18343   6.792  -0.194   8.393  1.0863  0.4912 -1.1572
  163SAPE  H20T18344   6.760  -0.046   8.296 -0.8056  1.0123 -0.1732
  163SAPE   C3318345   6.851   1.267   7.318  0.4136 -0.0299 -0.6204
  163SAPE   H3X18346   6.791   1.173   7.316 -0.6710  0.6422 -0.8225
  163SAPE   H3Y18347   6.789   1.354   7.350  2.2448  0.9370  0.4271
  163SAPE   C3418348   6.958   1.251   7.428 -1.0266 -0.0877 -0.1162
  163SAPE   H4X18349   7.009   1.153   7.423 -0.5394  0.1293  0.4338
  163SAPE   H4Y18350   6.904   1.246   7.525 -1.4894  0.9061 -0.3051
  163SAPE   C3518351   7.059   1.363   7.437 -0.0932 -0.2800 -0.5233
  163SAPE   H5X18352   7.008   1.457   7.468  0.4441 -0.4449  0.9793
  163SAPE   H5Y18353   7.119   1.380   7.345 -1.2650 -2.0664 -1.6755
  163SAPE   C3618354   7.150   1.338   7.556 -0.1752  0.2738  0.1930
  163SAPE   H6X18355   7.238   1.405   7.549 -0.4890  0.9078  1.9665
  163SAPE   H6Y18356   7.193   1.236   7.553  0.3015  0.3607  2.4709
  163SAPE   C3718357   7.087   1.358   7.702 -0.4864 -0.0549  0.6604
  163SAPE   H7X18358   7.013   1.277   7.716 -0.0390 -0.6595 -0.3801
  163SAPE   H7Y18359   7.033   1.454   7.695 -0.6297 -0.0858  1.2533
  163SAPE   C3818360   7.188   1.364   7.816  0.2646 -0.3583 -0.0276
  163SAPE   H8X18361   7.235   1.465   7.813  3.0662 -1.5780  0.3795
  163SAPE   H8Y18362   7.267   1.289   7.797 -0.7049 -1.5341  0.4860
  163SAPE   C3918363   7.116   1.338   7.950  0.3537  0.0320  0.3098
  163SAPE   H9X18364   7.058   1.244   7.946 -0.5461  0.6175 -1.7679
  163SAPE   H9Y18365   7.048   1.421   7.979  1.4180  1.7747 -1.8595
  163SAPE  C31018366   7.216   1.319   8.074  0.0238 -0.8058 -0.1887
  163SAPE  H10X18367   7.267   1.418   8.076 -0.2024 -0.5965 -2.4412
  163SAPE  H10Y18368   7.291   1.242   8.046 -1.1466 -1.6410 -1.1103
  163SAPE  C31118369   7.133   1.298   8.201 -0.6287 -0.2589  0.0350
  163SAPE  H11X18370   7.070   1.207   8.211 -0.2181 -0.2529  4.3200
  163SAPE  H11Y18371   7.067   1.385   8.221  1.0688  1.7325 -2.3585
  163SAPE  C31218372   7.228   1.274   8.310 -0.7749 -0.3477  0.3565
  163SAPE  H12X18373   7.311   1.348   8.308 -1.6402  0.6552  0.5129
  163SAPE  H12Y18374   7.276   1.177   8.287  1.7248  0.3918  2.0309
  163SAPE  C31318375   7.175   1.266   8.453 -0.2354  0.0203 -0.3592
  163SAPE  H13X18376   7.259   1.230   8.516  0.9011  0.4518 -1.5847
  163SAPE  H13Y18377   7.095   1.190   8.465  0.5794 -0.6923  0.7647
  163SAPE  C31418378   7.130   1.404   8.506 -0.5329 -0.8678  0.3925
  163SAPE  H14X18379   7.044   1.445   8.449 -0.1372 -0.1360  0.3069
  163SAPE  H14Y18380   7.207   1.484   8.506 -0.2841 -1.0913  1.1856
  163SAPE  C31518381   7.087   1.397   8.656 -0.0961  0.0470 -1.1228
  163SAPE  H15X18382   7.071   1.291   8.684  2.9811  0.0460  1.1204
  163SAPE  H15Y18383   6.997   1.457   8.682  1.5989  1.7726  1.1800
  163SAPE  C31618384   7.196   1.445   8.763  0.9917  0.3869  0.6015
  163SAPE  H16X18385   7.139   1.426   8.857  0.7390 -1.9724  0.0314
  163SAPE  H16Y18386   7.208   1.554   8.749 -0.6733  0.5321  0.0230
  163SAPE  C31718387   7.323   1.365   8.765  0.1142  0.0653  0.0754
  163SAPE  H17X18388   7.381   1.410   8.681  0.6071 -1.6418 -0.5343
  163SAPE  H17Y18389   7.302   1.264   8.726  1.2754 -0.3413  0.4720
  163SAPE  C31818390   7.408   1.359   8.892 -0.1127 -0.4232  0.0730
  163SAPE  H18X18391   7.367   1.294   8.972  0.0774  0.3661  0.8175
  163SAPE  H18Y18392   7.426   1.461   8.931 -1.0131  0.2722 -1.2509
  163SAPE  H18Z18393   7.507   1.318   8.859 -0.4166 -1.2942  0.2061
  164SAPE     N18394   3.229   3.639   5.908  1.1993 -0.5681  0.4190
  164SAPE   HN118395   3.202   3.739   5.903 -1.3624 -1.1508  1.4144
  164SAPE   HN218396   3.180   3.607   5.994  1.9714 -3.3576 -0.0576
  164SAPE   HN318397   3.333   3.641   5.915  1.3150  1.9862 -0.9663
  164SAPE   C1218398   3.176   3.581   5.783 -0.4424 -0.3605  0.6860
  164SAPE  H12A18399   3.174   3.470   5.791  0.5413 -1.0626 -4.7470
  164SAPE  H12B18400   3.235   3.596   5.690 -0.6911  0.8373  0.7150
  164SAPE   C1118401   3.030   3.611   5.763  0.9084  0.7430  0.8632
  164SAPE  H11A18402   3.009   3.572   5.661  2.7514  1.7771  0.0348
  164SAPE  H11B18403   3.017   3.720   5.746 -1.0201  0.5378  0.7435
  164SAPE     P18404   2.796   3.537   5.860 -0.3202 -0.0527 -0.3967
  164SAPE   O1318405   2.719   3.659   5.907  0.4284 -0.2286 -0.5694
  164SAPE   O1418406   2.769   3.486   5.722  0.3233 -0.0030  0.1225
  164SAPE   O1218407   2.953   3.565   5.876  0.0615  1.0329 -0.3251
  164SAPE   O1118408   2.776   3.423   5.961 -0.1601 -0.1153 -0.0144
  164SAPE    C118409   2.893   3.344   6.008  0.0589  0.5969  0.5784
  164SAPE    HA18410   2.939   3.295   5.919 -0.4045  1.3575 -0.1058
  164SAPE    HB18411   2.973   3.411   6.046 -0.4368  2.7477 -1.8154
  164SAPE    C218412   2.853   3.223   6.108 -0.4951  0.2641  0.1281
  164SAPE    HS18413   2.791   3.153   6.049 -1.5849  2.5313 -1.6006
  164SAPE   O2118414   2.789   3.283   6.220 -0.3610 -0.2827  0.4922
  164SAPE   C2118415   2.694   3.203   6.281 -0.8318 -0.4890 -0.0670
  164SAPE   O2218416   2.659   3.094   6.242  0.5913  0.1639 -0.6149
  164SAPE   C2218417   2.644   3.264   6.404 -0.0491  0.1417 -0.4916
  164SAPE   H2R18418   2.696   3.361   6.422  0.6860 -0.5681  1.4143
  164SAPE   H2S18419   2.543   3.302   6.375  0.8459  3.4643  0.2752
  164SAPE    C318420   2.984   3.146   6.158  0.1443 -0.0394  0.2719
  164SAPE    HX18421   3.051   3.231   6.181 -0.2787 -0.0499  1.5911
  164SAPE    HY18422   3.018   3.077   6.078  0.1794 -0.9937  1.0962
  164SAPE   O3118423   2.963   3.074   6.284  0.0358 -0.5681 -0.3753
  164SAPE   C3118424   2.922   2.948   6.268 -0.0450 -0.5540  0.2163
  164SAPE   O3218425   2.911   2.893   6.163  0.4506  0.9159  0.3573
  164SAPE   C3218426   2.930   2.872   6.402 -0.5894 -0.5144  0.6386
  164SAPE   H2X18427   2.924   2.943   6.488 -1.4515  0.3579 -0.1182
  164SAPE   H2Y18428   3.033   2.831   6.411 -0.6770 -1.0583 -0.6060
  164SAPE   C2318429   2.657   3.180   6.533  0.2423 -0.0989  0.0067
  164SAPE   H3R18430   2.764   3.161   6.557 -0.3153 -1.8424  1.3068
  164SAPE   H3S18431   2.615   3.079   6.515 -2.5616  1.1747 -1.2952
  164SAPE   C2418432   2.590   3.233   6.662 -0.3306 -0.0465  1.1120
  164SAPE   H4R18433   2.602   3.161   6.746 -0.4742 -0.1693  1.0304
  164SAPE   H4S18434   2.484   3.241   6.628  0.2925 -0.4622 -1.0553
  164SAPE   C2518435   2.649   3.363   6.705  0.2897 -0.0957  0.7793
  164SAPE   H5R18436   2.613   3.443   6.639  0.5427 -0.3325  0.3500
  164SAPE   C2618437   2.751   3.388   6.800  0.6621 -0.2436 -0.8680
  164SAPE   H6R18438   2.789   3.491   6.810  0.1517  0.0011 -1.4240
  164SAPE   C2718439   2.826   3.279   6.878 -0.0069 -0.0917 -0.1079
  164SAPE   H7R18440   2.890   3.216   6.812 -1.7494  1.3095 -3.3577
  164SAPE   H7S18441   2.744   3.210   6.907 -0.1347 -0.4687 -1.2997
  164SAPE   C2818442   2.892   3.329   6.999  0.2244  0.0562 -0.3213
  164SAPE   H8R18443   2.889   3.439   7.002 -0.0410  0.0334  0.5158
  164SAPE   C2918444   2.954   3.255   7.091 -0.5783 -0.2738  0.1244
  164SAPE   H9R18445   3.000   3.294   7.182  0.6749 -0.6444 -0.3253
  164SAPE  C21018446   2.966   3.103   7.084  0.7004 -1.5998 -0.1104
  164SAPE  H10R18447   3.073   3.081   7.099  1.0903 -0.1590 -0.5623
  164SAPE  H10S18448   2.938   3.053   6.989  0.3834 -1.3057 -0.1777
  164SAPE  C21118449   2.900   3.047   7.204 -0.2382 -0.1263 -0.4763
  164SAPE  H11R18450   2.802   3.003   7.180  0.2869 -1.7264  0.1958
  164SAPE  C21218451   2.941   3.045   7.331  0.2050 -0.2816 -0.1617
  164SAPE  H12R18452   2.867   3.002   7.401 -2.2868  1.1554 -1.7347
  164SAPE  C21318453   3.069   3.097   7.398  0.9660  0.3260  0.2832
  164SAPE  H13R18454   3.139   3.139   7.323  0.1023 -1.6606 -1.7274
  164SAPE  H13S18455   3.123   3.013   7.445  3.0208  0.0845 -2.3018
  164SAPE  C21418456   3.020   3.189   7.507 -1.0447  0.0511 -0.4605
  164SAPE  H14R18457   2.961   3.274   7.470  0.3960  0.2407 -2.4452
  164SAPE  C21518458   3.067   3.196   7.634  0.5312 -0.0972 -0.3785
  164SAPE  H15R18459   3.029   3.273   7.703 -0.5269  0.1486 -1.2098
  164SAPE  C21618460   3.174   3.117   7.697 -0.0417  1.0830  0.3045
  164SAPE  H16R18461   3.266   3.112   7.634 -1.4381 -2.3238 -1.7906
  164SAPE  H16S18462   3.137   3.014   7.715  2.6422  0.3329  2.0650
  164SAPE  C21718463   3.226   3.169   7.830  0.1514 -0.1937 -0.1171
  164SAPE  H17R18464   3.236   3.276   7.802  3.8729 -0.4205 -0.1675
  164SAPE  H17S18465   3.329   3.139   7.860  1.3876  3.2373 -0.4321
  164SAPE  C21818466   3.127   3.155   7.945  0.4235  0.2965  0.5464
  164SAPE  H18R18467   3.052   3.074   7.929  0.7053  0.1966 -0.2978
  164SAPE  H18S18468   3.059   3.243   7.947 -1.0578 -0.8153  0.7638
  164SAPE  C21918469   3.185   3.153   8.082 -0.5340 -0.2200  0.2639
  164SAPE  H19R18470   3.273   3.221   8.073 -1.2613  0.7083  0.0325
  164SAPE  H19S18471   3.238   3.056   8.093  3.9253  1.2316 -4.3681
  164SAPE  C22018472   3.090   3.184   8.202 -0.3229  0.3417  1.5227
  164SAPE  H20R18473   3.148   3.202   8.295  0.6756  0.0835  0.9635
  164SAPE  H20S18474   3.027   3.095   8.221 -1.0387  0.3541 -0.5215
  164SAPE  H20T18475   3.025   3.273   8.186  0.1090  0.1489 -2.1393
  164SAPE   C3318476   2.812   2.779   6.418 -0.1630 -0.0241  0.2851
  164SAPE   H3X18477   2.850   2.677   6.394  1.8142  0.9095 -0.8223
  164SAPE   H3Y18478   2.740   2.794   6.335  2.0347  0.4698 -1.6433
  164SAPE   C3418479   2.749   2.786   6.559  0.6442 -0.4669 -0.4403
  164SAPE   H4X18480   2.652   2.733   6.551  0.3844  0.1077 -1.2364
  164SAPE   H4Y18481   2.725   2.891   6.585 -0.5709 -0.5539 -1.1387
  164SAPE   C3518482   2.840   2.733   6.659 -0.6686 -0.2400  0.2686
  164SAPE   H5X18483   2.943   2.772   6.645 -0.3694 -0.9344  0.4447
  164SAPE   H5Y18484   2.862   2.625   6.642  3.3870  0.3673  0.6882
  164SAPE   C3618485   2.787   2.768   6.795 -0.6574 -0.2220 -0.0064
  164SAPE   H6X18486   2.771   2.877   6.811 -2.4403 -0.4956  0.2037
  164SAPE   H6Y18487   2.869   2.742   6.866 -1.3646  2.4570  1.9522
  164SAPE   C3718488   2.661   2.685   6.840 -0.2087  0.0115 -0.0081
  164SAPE   H7X18489   2.680   2.583   6.800  2.0692  0.0688  0.7751
  164SAPE   H7Y18490   2.572   2.721   6.784 -0.7777  0.5040  1.1848
  164SAPE   C3818491   2.633   2.675   6.998  0.4113 -0.5494  0.9801
  164SAPE   H8X18492   2.553   2.600   7.014  0.1714 -0.5961 -0.3884
  164SAPE   H8Y18493   2.584   2.764   7.041 -5.2467 -2.4992 -0.5906
  164SAPE   C3918494   2.759   2.624   7.071  0.2942  0.0545  0.1751
  164SAPE   H9X18495   2.827   2.711   7.084  0.8370 -0.4343  0.6477
  164SAPE   H9Y18496   2.807   2.546   7.008  0.9335 -0.6834  1.5277
  164SAPE  C31018497   2.724   2.577   7.212  0.1845  0.0012 -0.0322
  164SAPE  H10X18498   2.812   2.529   7.262  0.2064  2.3071  2.3578
  164SAPE  H10Y18499   2.635   2.511   7.213  0.4835 -0.4564 -1.4894
  164SAPE  C31118500   2.685   2.693   7.312  0.4377  0.0736 -0.6914
  164SAPE  H11X18501   2.617   2.757   7.252  0.9140 -0.1926 -1.5276
  164SAPE  H11Y18502   2.772   2.758   7.336 -0.2180  0.2709  1.3215
  164SAPE  C31218503   2.630   2.656   7.452 -0.2397  0.4415 -0.0478
  164SAPE  H12X18504   2.720   2.628   7.511  0.4177  0.5129 -0.9944
  164SAPE  H12Y18505   2.559   2.570   7.454 -0.8069  0.8810 -0.7334
  164SAPE  C31318506   2.577   2.775   7.528 -0.2938 -0.0805  0.8107
  164SAPE  H13X18507   2.476   2.790   7.485 -1.1051  0.4506  2.8115
  164SAPE  H13Y18508   2.643   2.863   7.511 -1.8711  1.4251  2.2020
  164SAPE  C31418509   2.561   2.747   7.678  0.0376  0.3571  0.6206
  164SAPE  H14X18510   2.662   2.717   7.712 -0.3176 -1.5731  0.0718
  164SAPE  H14Y18511   2.481   2.671   7.688  1.2557 -1.1329 -0.4045
  164SAPE  C31518512   2.512   2.878   7.739 -0.0976  0.5026  0.6637
  164SAPE  H15X18513   2.416   2.900   7.690  0.4524  1.0071 -0.2123
  164SAPE  H15Y18514   2.588   2.957   7.722  2.6214 -2.4052 -2.2544
  164SAPE  C31618515   2.481   2.858   7.892  0.7175 -0.0019  0.6881
  164SAPE  H16X18516   2.432   2.758   7.897  2.8489 -1.1256  0.6644
  164SAPE  H16Y18517   2.411   2.937   7.924 -0.6216 -0.7687 -0.2541
  164SAPE  C31718518   2.597   2.850   7.985  0.3666 -0.4116  0.3451
  164SAPE  H17X18519   2.655   2.757   7.965  0.6415 -0.1675  0.0110
  164SAPE  H17Y18520   2.534   2.842   8.076  1.1843  0.5444  1.0133
  164SAPE  C31818521   2.679   2.974   7.984 -0.0641 -0.5400 -0.3086
  164SAPE  H18X18522   2.733   2.990   7.889  1.2238 -0.3936  0.4309
  164SAPE  H18Y18523   2.760   2.962   8.060 -1.0082  0.7023  0.9517
  164SAPE  H18Z18524   2.616   3.063   8.006  0.3835  0.4361 -2.6795
  165SAPE     N18525   3.009   6.540   6.314  0.0520  0.7811  0.1506
  165SAPE   HN118526   2.932   6.508   6.252  0.6679 -1.9557  0.6737
  165SAPE   HN218527   3.088   6.477   6.290  1.2349  2.5265 -0.7703
  165SAPE   HN318528   2.985   6.507   6.410  1.0054 -1.4993 -0.3293
  165SAPE   C1218529   3.039   6.679   6.281 -0.3541  0.3558 -0.3364
  165SAPE  H12A18530   2.959   6.750   6.311  1.3914  2.4200 -0.3222
  165SAPE  H12B18531   3.029   6.687   6.170 -0.8374  3.3834 -0.1505
  165SAPE   C1118532   3.177   6.726   6.338 -0.4911  0.4376 -0.2456
  165SAPE  H11A18533   3.181   6.737   6.449 -1.1091  4.0620 -0.4615
  165SAPE  H11B18534   3.193   6.832   6.312 -1.0079 -0.0409 -2.7721
  165SAPE     P18535   3.434   6.673   6.298 -0.4816  0.0220  0.0170
  165SAPE   O1318536   3.499   6.592   6.189 -0.5761 -0.2541  0.0978
  165SAPE   O1418537   3.453   6.820   6.295  0.0019  0.4123 -0.0367
  165SAPE   O1218538   3.279   6.639   6.290  0.3690  0.2797 -0.5899
  165SAPE   O1118539   3.485   6.618   6.438 -0.0604 -0.5987  0.4252
  165SAPE    C118540   3.456   6.482   6.477 -0.4037  0.9530  0.7389
  165SAPE    HA18541   3.433   6.415   6.392  0.6108  1.3549  0.1239
  165SAPE    HB18542   3.550   6.443   6.522 -0.8152  0.5920  1.3077
  165SAPE    C218543   3.333   6.477   6.568 -0.4338 -0.7729 -0.0425
  165SAPE    HS18544   3.248   6.516   6.508 -1.5793 -1.7642  0.8588
  165SAPE   O2118545   3.364   6.562   6.680 -0.1378  0.4813  0.0927
  165SAPE   C2118546   3.254   6.608   6.742  0.2134 -0.9101 -0.4128
  165SAPE   O2218547   3.138   6.578   6.707 -0.8513 -0.2657 -0.0653
  165SAPE   C2218548   3.307   6.724   6.833 -0.2932  0.0866  0.0230
  165SAPE   H2R18549   3.357   6.802   6.772  0.7552 -0.2230  0.4648
  165SAPE   H2S18550   3.212   6.761   6.877  0.6028  1.6237  0.7517
  165SAPE    C318551   3.300   6.330   6.602  0.5836  0.1750 -0.2095
  165SAPE    HX18552   3.249   6.287   6.514 -0.4836 -0.7323  0.8171
  165SAPE    HY18553   3.222   6.337   6.680 -0.6241 -1.2166 -1.2386
  165SAPE   O3118554   3.414   6.258   6.639 -0.5279 -0.2852 -0.0427
  165SAPE   C3118555   3.413   6.179   6.745  0.5633  0.1153  0.5426
  165SAPE   O3218556   3.311   6.146   6.810 -0.4720 -0.4755  0.6465
  165SAPE   C3218557   3.557   6.133   6.764  0.0006  0.0240  0.2619
  165SAPE   H2X18558   3.614   6.148   6.670  0.1789  0.6244  0.4643
  165SAPE   H2Y18559   3.548   6.024   6.783 -4.3971 -0.0177 -0.9064
  165SAPE   C2318560   3.413   6.687   6.939 -0.3686 -0.3060  0.1314
  165SAPE   H3R18561   3.449   6.781   6.986  0.7218 -1.2635  1.3157
  165SAPE   H3S18562   3.498   6.646   6.880 -0.6960 -1.7477  0.6110
  165SAPE   C2418563   3.365   6.588   7.045  0.7780 -0.0272 -0.1783
  165SAPE   H4R18564   3.341   6.489   7.000  0.2008 -0.0370  0.1288
  165SAPE   H4S18565   3.268   6.622   7.088  0.2573  2.2704 -2.8838
  165SAPE   C2518566   3.481   6.576   7.149  0.3953 -0.4098  0.3591
  165SAPE   H5R18567   3.565   6.515   7.111 -0.1694 -0.6154 -0.6147
  165SAPE   C2618568   3.473   6.618   7.272 -0.4367 -0.2722 -0.0849
  165SAPE   H6R18569   3.563   6.596   7.332 -0.7831 -1.4873  0.0043
  165SAPE   C2718570   3.366   6.696   7.345 -0.6934  0.4453 -0.1961
  165SAPE   H7R18571   3.321   6.636   7.427 -0.7658 -0.6875 -1.0366
  165SAPE   H7S18572   3.283   6.718   7.275 -0.8266  0.8262  0.0800
  165SAPE   C2818573   3.401   6.825   7.413  0.0960  0.2877 -0.1393
  165SAPE   H8R18574   3.377   6.919   7.360  1.8441  0.0486 -1.4280
  165SAPE   C2918575   3.456   6.833   7.533 -0.0383 -0.1384 -0.5522
  165SAPE   H9R18576   3.479   6.932   7.576  0.7680 -1.3619  2.0707
  165SAPE  C21018577   3.490   6.717   7.626 -0.2438  0.5081 -0.5571
  165SAPE  H10R18578   3.592   6.740   7.663 -0.3939  0.5648 -0.1738
  165SAPE  H10S18579   3.506   6.616   7.583  2.7674  1.3488 -1.7007
  165SAPE  C21118580   3.380   6.717   7.736  0.1375 -0.0213  0.2945
  165SAPE  H11R18581   3.279   6.717   7.693 -0.1428  1.0231  0.9178
  165SAPE  C21218582   3.387   6.692   7.865  0.5799 -0.2334 -0.7421
  165SAPE  H12R18583   3.291   6.706   7.917  1.4543  0.3375  0.7718
  165SAPE  C21318584   3.502   6.662   7.947 -0.1578  0.1707  0.5936
  165SAPE  H13R18585   3.595   6.693   7.894 -0.1212  1.1168  1.1906
  165SAPE  H13S18586   3.513   6.554   7.967  2.0105  0.4005  0.9816
  165SAPE  C21418587   3.501   6.733   8.083 -0.1989  0.5805 -0.3181
  165SAPE  H14R18588   3.409   6.784   8.113 -0.8701  0.5128 -2.1381
  165SAPE  C21518589   3.604   6.725   8.169  1.3215  0.0274  0.1660
  165SAPE  H15R18590   3.601   6.777   8.266 -2.9478  0.3655  0.0038
  165SAPE  C21618591   3.737   6.652   8.132  0.6878 -0.1933  0.4917
  165SAPE  H16R18592   3.730   6.590   8.041  0.7674  0.5682 -0.0422
  165SAPE  H16S18593   3.772   6.574   8.203  1.3240  0.1420  0.5517
  165SAPE  C21718594   3.843   6.763   8.118 -0.2315  0.5020  0.8650
  165SAPE  H17R18595   3.830   6.815   8.215 -0.8085 -0.4724  1.3273
  165SAPE  H17S18596   3.794   6.840   8.055 -1.3313 -1.5780 -0.9584
  165SAPE  C21818597   3.985   6.736   8.080  0.0494  1.0915 -0.1946
  165SAPE  H18R18598   4.041   6.831   8.070 -0.1055  1.5602  2.5589
  165SAPE  H18S18599   3.990   6.693   7.977 -0.3846  0.4648  0.0359
  165SAPE  C21918600   4.063   6.638   8.178  0.4427  0.2325 -0.2946
  165SAPE  H19R18601   3.992   6.555   8.198  0.3702  0.9831  3.1117
  165SAPE  H19S18602   4.072   6.694   8.273  1.5768 -1.2356  0.4905
  165SAPE  C22018603   4.190   6.587   8.120 -0.0236  0.1762 -0.2203
  165SAPE  H20R18604   4.234   6.503   8.179 -1.5635  0.3522  1.2435
  165SAPE  H20S18605   4.269   6.665   8.114  0.2417 -0.0138  0.6238
  165SAPE  H20T18606   4.170   6.546   8.019 -1.3352  0.8522 -0.2558
  165SAPE   C3318607   3.636   6.199   6.887  1.2635  0.3966 -0.4791
  165SAPE   H3X18608   3.628   6.309   6.878  1.1964  0.4203 -0.1407
  165SAPE   H3Y18609   3.742   6.168   6.897  1.1313  0.1811  0.3430
  165SAPE   C3418610   3.583   6.162   7.026 -0.3831 -0.1856 -0.8582
  165SAPE   H4X18611   3.578   6.053   7.044  2.4688 -0.2159  0.0917
  165SAPE   H4Y18612   3.479   6.193   7.050 -0.2473 -0.1743 -0.2921
  165SAPE   C3518613   3.678   6.205   7.151  1.0139 -1.2105  0.2713
  165SAPE   H5X18614   3.661   6.314   7.153  1.2186 -1.1263 -1.3346
  165SAPE   H5Y18615   3.782   6.178   7.123  0.1015 -2.4983 -2.2496
  165SAPE   C3618616   3.633   6.139   7.285  0.2415  0.7476 -0.3811
  165SAPE   H6X18617   3.655   6.030   7.289 -1.4291  0.4237  0.4399
  165SAPE   H6Y18618   3.524   6.156   7.295  0.1844  0.9844 -1.2823
  165SAPE   C3718619   3.703   6.211   7.402 -0.1975  0.2590 -0.4695
  165SAPE   H7X18620   3.686   6.320   7.390 -1.8222 -0.0299 -1.0896
  165SAPE   H7Y18621   3.808   6.182   7.382 -0.7634 -0.8543 -2.0678
  165SAPE   C3818622   3.664   6.152   7.539 -0.1141  0.1521  0.2644
  165SAPE   H8X18623   3.697   6.049   7.563 -4.2898 -1.0101  1.8839
  165SAPE   H8Y18624   3.554   6.154   7.557 -0.2407  1.3455 -0.5562
  165SAPE   C3918625   3.720   6.237   7.650 -0.8595 -0.5985 -0.0015
  165SAPE   H9X18626   3.681   6.339   7.626  0.7537 -0.0814 -0.5545
  165SAPE   H9Y18627   3.831   6.231   7.654 -0.9065 -0.9600  2.7214
  165SAPE  C31018628   3.688   6.188   7.788 -0.1672 -0.0634  0.0434
  165SAPE  H10X18629   3.715   6.081   7.794  1.1534  0.2592  0.2929
  165SAPE  H10Y18630   3.583   6.207   7.819 -0.9253 -2.1239 -1.0918
  165SAPE  C31118631   3.774   6.253   7.910 -0.2429 -0.1091  0.4126
  165SAPE  H11X18632   3.740   6.359   7.920  1.6242  0.5349  0.3244
  165SAPE  H11Y18633   3.880   6.254   7.877 -0.6317 -2.0518 -1.0421
  165SAPE  C31218634   3.748   6.171   8.027 -0.3193 -0.0594  0.0114
  165SAPE  H12X18635   3.788   6.068   8.014  1.7006  0.6671  0.2455
  165SAPE  H12Y18636   3.638   6.152   8.028  0.0834 -2.8283  0.2126
  165SAPE  C31318637   3.812   6.233   8.152  0.1940 -0.2679  0.1575
  165SAPE  H13X18638   3.780   6.340   8.152 -1.5391 -0.7558 -0.3624
  165SAPE  H13Y18639   3.922   6.235   8.139  0.6300  1.0635  3.2094
  165SAPE  C31418640   3.771   6.172   8.285 -0.1839  0.0264  0.0776
  165SAPE  H14X18641   3.841   6.205   8.365 -0.3478 -0.7224  0.5465
  165SAPE  H14Y18642   3.789   6.062   8.277 -2.0006 -0.2712 -0.5385
  165SAPE  C31518643   3.627   6.184   8.336 -0.9401  0.3422  0.5472
  165SAPE  H15X18644   3.576   6.121   8.260 -0.2912  0.7010 -0.1919
  165SAPE  H15Y18645   3.594   6.285   8.306 -1.2088 -0.2589 -1.3152
  165SAPE  C31618646   3.603   6.156   8.483  0.5050  0.3522  0.4074
  165SAPE  H16X18647   3.497   6.176   8.511  0.9057  2.4312  0.5941
  165SAPE  H16Y18648   3.661   6.220   8.551 -2.8044  1.2191  2.6695
  165SAPE  C31718649   3.620   6.000   8.511  0.8432 -0.1666  0.2686
  165SAPE  H17X18650   3.694   5.959   8.439  1.4711  0.6831  0.4086
  165SAPE  H17Y18651   3.521   5.951   8.507  0.2824  0.7093  2.4080
  165SAPE  C31818652   3.692   5.975   8.644 -0.7365 -0.2896  0.4025
  165SAPE  H18X18653   3.619   5.986   8.727 -0.5784 -0.2942  0.5415
  165SAPE  H18Y18654   3.778   6.046   8.642 -0.3572 -0.7610 -0.7471
  165SAPE  H18Z18655   3.729   5.871   8.657  0.6380  0.2171  0.7250
  166SAPE     N18656   2.339   2.417   6.018  0.3210 -0.4586  0.1533
  166SAPE   HN118657   2.273   2.495   6.036  0.9070  0.0925 -0.0409
  166SAPE   HN218658   2.297   2.333   6.062 -0.6669 -0.0692 -0.0221
  166SAPE   HN318659   2.429   2.441   6.065  0.3881 -1.6637  0.6812
  166SAPE   C1218660   2.359   2.411   5.872  0.2672 -0.0808  0.2263
  166SAPE  H12A18661   2.260   2.389   5.827  0.3216  0.8459 -0.3564
  166SAPE  H12B18662   2.429   2.326   5.854  2.4176  1.3193  1.4813
  166SAPE   C1118663   2.415   2.543   5.808 -0.6745  0.5865  0.0723
  166SAPE  H11A18664   2.413   2.519   5.700  2.6001 -2.2541  0.4614
  166SAPE  H11B18665   2.521   2.571   5.819 -0.4271 -0.2208 -0.1790
  166SAPE     P18666   2.359   2.794   5.765  0.1543  0.5478 -0.5250
  166SAPE   O1318667   2.486   2.776   5.693 -0.8579  0.0159  0.1643
  166SAPE   O1418668   2.232   2.830   5.695  0.1094  0.2914 -0.3207
  166SAPE   O1218669   2.325   2.658   5.833 -0.0503  0.0008  0.3338
  166SAPE   O1118670   2.374   2.896   5.888 -0.0895 -0.1750  0.0659
  166SAPE    C118671   2.456   2.859   6.003  0.9976 -0.0517 -0.4356
  166SAPE    HA18672   2.520   2.770   5.985 -0.8169 -1.8121  1.2800
  166SAPE    HB18673   2.517   2.943   6.043  2.9039 -1.6602  0.1989
  166SAPE    C218674   2.373   2.834   6.136 -0.1994 -0.2347  0.3533
  166SAPE    HS18675   2.306   2.750   6.105  1.0776 -0.5241 -1.7961
  166SAPE   O2118676   2.300   2.954   6.177  0.1869  0.5646 -0.3188
  166SAPE   C2118677   2.180   2.930   6.239 -0.4355 -0.0300  0.1287
  166SAPE   O2218678   2.116   2.828   6.232 -0.3180  0.7709  0.0480
  166SAPE   C2218679   2.133   3.053   6.292  0.3045 -0.0830  0.2758
  166SAPE   H2R18680   2.213   3.121   6.328  0.6187 -0.3594  0.1025
  166SAPE   H2S18681   2.076   3.107   6.213  1.0373 -0.5602 -0.5878
  166SAPE    C318682   2.471   2.796   6.251  0.2124 -0.1291 -0.0927
  166SAPE    HX18683   2.525   2.891   6.271  1.7614 -0.5253 -2.1284
  166SAPE    HY18684   2.548   2.722   6.218 -0.2431 -0.7569  0.2340
  166SAPE   O3118685   2.402   2.757   6.372  0.1976 -0.0738 -0.3403
  166SAPE   C3118686   2.326   2.637   6.368  0.0327 -0.0131  0.2977
  166SAPE   O3218687   2.341   2.552   6.283 -0.0321  0.3617  0.1937
  166SAPE   C3218688   2.230   2.621   6.494 -0.2844 -0.2704  0.1010
  166SAPE   H2X18689   2.138   2.575   6.451  0.5061 -1.9310  0.1264
  166SAPE   H2Y18690   2.225   2.726   6.532  1.9058 -0.9616  2.6263
  166SAPE   C2318691   2.032   3.032   6.408  0.5073  0.0294  0.3059
  166SAPE   H3R18692   2.068   2.952   6.476 -2.0307 -1.0758  0.4727
  166SAPE   H3S18693   1.935   2.989   6.377  1.6103 -1.1091 -1.7237
  166SAPE   C2418694   2.006   3.162   6.495 -0.1609 -0.2613  0.5227
  166SAPE   H4R18695   2.104   3.211   6.517 -0.5704  0.9194 -0.2073
  166SAPE   H4S18696   1.980   3.121   6.595  1.2311  2.0317  1.9347
  166SAPE   C2518697   1.915   3.272   6.443 -0.2936  0.1331  0.5754
  166SAPE   H5R18698   1.907   3.262   6.333  1.1018 -0.6444  0.5284
  166SAPE   C2618699   1.852   3.373   6.510 -1.9326 -1.3489  0.2479
  166SAPE   H6R18700   1.789   3.448   6.461 -1.2568  0.7405  2.3952
  166SAPE   C2718701   1.878   3.417   6.647 -0.0399 -0.3194 -0.0374
  166SAPE   H7R18702   1.931   3.515   6.652  1.0052 -0.6126 -3.1718
  166SAPE   H7S18703   1.927   3.337   6.707 -0.3658 -1.0228 -0.7062
  166SAPE   C2818704   1.735   3.435   6.704 -0.1715  0.4167  0.3904
  166SAPE   H8R18705   1.654   3.447   6.631 -2.0737 -3.8186  1.5038
  166SAPE   C2918706   1.697   3.437   6.831  0.0915 -0.7071 -0.1240
  166SAPE   H9R18707   1.590   3.429   6.854 -0.0153 -0.5285 -0.5333
  166SAPE  C21018708   1.787   3.421   6.957  0.5128 -0.4298 -0.0310
  166SAPE  H10R18709   1.737   3.477   7.039 -0.2322  1.4857 -1.7081
  166SAPE  H10S18710   1.878   3.483   6.945  1.6241 -1.6700  1.5623
  166SAPE  C21118711   1.831   3.275   6.977  0.5067 -0.7920 -0.1402
  166SAPE  H11R18712   1.810   3.195   6.906  0.2558 -2.0325  1.2854
  166SAPE  C21218713   1.916   3.238   7.076  0.7357 -0.3942  0.4179
  166SAPE  H12R18714   1.948   3.132   7.073 -0.2483 -0.7315  1.1289
  166SAPE  C21318715   1.976   3.325   7.181 -0.2705  0.1024  0.3786
  166SAPE  H13R18716   1.966   3.433   7.160  0.9525  0.2925  0.6555
  166SAPE  H13S18717   2.087   3.326   7.189 -0.1472  3.8377 -0.1836
  166SAPE  C21418718   1.904   3.290   7.303 -0.3698 -0.6640 -0.9217
  166SAPE  H14R18719   1.795   3.275   7.304 -0.1479 -2.6484 -1.2073
  166SAPE  C21518720   1.955   3.283   7.429 -0.3685 -0.2463  0.3679
  166SAPE  H15R18721   1.891   3.250   7.512 -1.5836 -0.7258 -0.7262
  166SAPE  C21618722   2.103   3.297   7.460 -0.0740 -0.2133  0.0134
  166SAPE  H16R18723   2.150   3.362   7.383  0.9714 -1.3108 -0.3070
  166SAPE  H16S18724   2.153   3.199   7.445 -0.0654  0.0639 -2.0758
  166SAPE  C21718725   2.143   3.354   7.595  0.2720  0.2675  0.2068
  166SAPE  H17R18726   2.093   3.452   7.605 -0.3616  0.0886 -1.0078
  166SAPE  H17S18727   2.253   3.358   7.607  0.5112 -0.4925 -1.4143
  166SAPE  C21818728   2.096   3.257   7.700 -0.4486 -0.5300  0.3093
  166SAPE  H18R18729   2.143   3.158   7.682  1.1115  0.6444 -2.7888
  166SAPE  H18S18730   1.986   3.242   7.706 -0.3466 -1.9187 -0.8320
  166SAPE  C21918731   2.155   3.294   7.839  0.8239  0.1419  0.0570
  166SAPE  H19R18732   2.259   3.333   7.842  0.2805  1.8427  4.4409
  166SAPE  H19S18733   2.148   3.204   7.904 -0.6950  2.0400  2.7311
  166SAPE  C22018734   2.060   3.397   7.901  0.1910  0.8633  0.5616
  166SAPE  H20R18735   1.957   3.355   7.905 -0.0540  1.5287  1.6204
  166SAPE  H20S18736   2.061   3.483   7.831  1.9708  1.0210  0.7327
  166SAPE  H20T18737   2.085   3.425   8.006 -0.5966 -0.4127  1.1199
  166SAPE   C3318738   2.291   2.542   6.615 -0.6280  0.2257  0.3309
  166SAPE   H3X18739   2.402   2.544   6.610 -0.6151  0.3587  0.6260
  166SAPE   H3Y18740   2.256   2.437   6.608 -1.9654  0.5711  1.3954
  166SAPE   C3418741   2.247   2.596   6.750  0.1181 -0.3396 -0.3760
  166SAPE   H4X18742   2.142   2.629   6.740 -0.3653 -1.6546  0.1922
  166SAPE   H4Y18743   2.296   2.689   6.784 -1.2581  0.2185  0.1416
  166SAPE   C3518744   2.256   2.481   6.864  0.1329 -0.8406  0.7356
  166SAPE   H5X18745   2.351   2.425   6.878  1.5441  1.7246  2.1606
  166SAPE   H5Y18746   2.185   2.402   6.832 -0.3074 -0.1302 -0.1014
  166SAPE   C3618747   2.216   2.524   7.000 -0.0069  0.1976  0.0099
  166SAPE   H6X18748   2.113   2.565   6.993 -1.0578 -2.3808 -0.7768
  166SAPE   H6Y18749   2.271   2.617   7.027  0.2608  0.2868 -0.7957
  166SAPE   C3718750   2.220   2.416   7.108 -0.0148  0.5736 -0.2451
  166SAPE   H7X18751   2.313   2.355   7.103 -1.4852 -1.7324 -1.4985
  166SAPE   H7Y18752   2.132   2.349   7.094  0.5740 -0.0514 -1.0399
  166SAPE   C3818753   2.237   2.465   7.252  0.2623 -0.2806  0.1798
  166SAPE   H8X18754   2.339   2.504   7.273 -0.8463  0.7555  4.4464
  166SAPE   H8Y18755   2.219   2.388   7.331  0.5554 -1.1535 -0.5790
  166SAPE   C3918756   2.143   2.584   7.290  0.1714 -0.4042 -0.1950
  166SAPE   H9X18757   2.044   2.544   7.318 -0.4110  1.3257  0.3444
  166SAPE   H9Y18758   2.130   2.652   7.203  1.9291 -1.4716 -1.3564
  166SAPE  C31018759   2.200   2.669   7.403 -0.5190 -0.5706 -0.1155
  166SAPE  H10X18760   2.302   2.694   7.369 -0.4834 -2.6848 -1.7871
  166SAPE  H10Y18761   2.210   2.604   7.493  0.2546 -3.6387 -2.2340
  166SAPE  C31118762   2.127   2.800   7.442 -0.1109 -0.1566  0.3930
  166SAPE  H11X18763   2.159   2.840   7.541 -1.7499  1.1729  0.4195
  166SAPE  H11Y18764   2.024   2.765   7.465 -1.4121  3.5195  0.7738
  166SAPE  C31218765   2.120   2.910   7.332 -0.7956 -0.1407  0.0725
  166SAPE  H12X18766   2.059   2.990   7.379  0.4932  1.9674 -1.6162
  166SAPE  H12Y18767   2.060   2.880   7.243 -2.7872  0.3161  1.2011
  166SAPE  C31318768   2.257   2.983   7.313 -0.0393  0.2242  0.3040
  166SAPE  H13X18769   2.313   2.983   7.409  1.1865 -0.1123 -0.4019
  166SAPE  H13Y18770   2.231   3.089   7.293 -1.9318 -0.3643 -0.5841
  166SAPE  C31418771   2.328   2.944   7.183  0.3525  0.2188 -0.4717
  166SAPE  H14X18772   2.357   2.836   7.180  0.8948  0.3294  0.2787
  166SAPE  H14Y18773   2.419   3.006   7.171  1.2180 -0.9483 -0.1877
  166SAPE  C31518774   2.257   2.971   7.052  0.5618  0.2158 -0.0077
  166SAPE  H15X18775   2.218   3.075   7.044 -0.1265 -0.0457 -0.1644
  166SAPE  H15Y18776   2.166   2.907   7.044  0.3719  0.5564 -0.7252
  166SAPE  C31618777   2.351   2.942   6.928  0.2545  0.0527  0.8618
  166SAPE  H16X18778   2.384   2.837   6.919 -0.7224 -0.2917  1.1487
  166SAPE  H16Y18779   2.440   3.006   6.947  0.6087 -0.2644  0.2942
  166SAPE  C31718780   2.285   2.987   6.798  0.3627 -0.4078 -0.3400
  166SAPE  H17X18781   2.283   3.096   6.820  1.5645 -0.3646 -0.4153
  166SAPE  H17Y18782   2.182   2.947   6.793 -1.3648  3.5968 -1.2480
  166SAPE  C31818783   2.359   2.959   6.663 -0.3022 -0.3022  0.4478
  166SAPE  H18X18784   2.374   2.850   6.655  0.2941 -0.2191  0.3934
  166SAPE  H18Y18785   2.458   3.009   6.661 -0.6632  0.6462  2.8825
  166SAPE  H18Z18786   2.302   2.998   6.576  0.2368 -1.5395 -0.4907
  167SAPE     N18787   3.344   2.084   6.264 -0.0249  0.1769  0.0021
  167SAPE   HN118788   3.252   2.056   6.303 -0.5265 -1.9729 -2.3819
  167SAPE   HN218789   3.413   2.034   6.324 -0.2003 -0.3230 -0.2101
  167SAPE   HN318790   3.365   2.185   6.275 -0.6908  0.0240  3.9014
  167SAPE   C1218791   3.346   2.037   6.119  0.0211  0.2409 -0.2218
  167SAPE  H12A18792   3.371   2.129   6.061 -0.7185  0.9274  0.5191
  167SAPE  H12B18793   3.239   2.024   6.092  0.1089 -1.0854  0.0033
  167SAPE   C1118794   3.433   1.924   6.080 -0.4552  0.3450 -0.6114
  167SAPE  H11A18795   3.538   1.957   6.094  0.5048 -3.0559  1.5865
  167SAPE  H11B18796   3.419   1.889   5.975 -0.9278 -1.1141 -0.0884
  167SAPE     P18797   3.305   1.710   6.156  0.0976  0.0471 -0.4354
  167SAPE   O1318798   3.170   1.776   6.147 -0.2920 -0.1116  0.2655
  167SAPE   O1418799   3.342   1.618   6.048 -0.1650  0.1533 -0.1577
  167SAPE   O1218800   3.422   1.811   6.166 -0.0245 -0.2339 -0.5920
  167SAPE   O1118801   3.299   1.636   6.295  0.3155  0.4685  0.3331
  167SAPE    C118802   3.398   1.540   6.332 -0.5008  0.1314  0.7209
  167SAPE    HA18803   3.397   1.446   6.273  0.7295  0.5978 -0.0809
  167SAPE    HB18804   3.502   1.578   6.323 -0.3720 -0.4003 -0.1973
  167SAPE    C218805   3.380   1.491   6.476 -0.4758 -0.6017  0.1023
  167SAPE    HS18806   3.271   1.480   6.497 -0.4693 -0.5651  0.1548
  167SAPE   O2118807   3.430   1.599   6.556  0.5202 -0.2398  0.3786
  167SAPE   C2118808   3.408   1.584   6.683  0.2283  0.4825 -0.0369
  167SAPE   O2218809   3.331   1.501   6.737 -0.1899  0.4576 -0.4769
  167SAPE   C2218810   3.512   1.667   6.752  0.2337  0.8007 -0.1280
  167SAPE   H2R18811   3.610   1.645   6.704  0.0425  1.8544 -1.0381
  167SAPE   H2S18812   3.500   1.777   6.738 -0.0494  0.7429 -0.3502
  167SAPE    C318813   3.449   1.350   6.500 -0.4729 -0.4170  0.7242
  167SAPE    HX18814   3.425   1.285   6.413 -0.5925 -1.5591  1.5798
  167SAPE    HY18815   3.392   1.323   6.592  0.5155  0.1747  1.5384
  167SAPE   O3118816   3.594   1.361   6.512  0.1324  0.4818  0.3095
  167SAPE   C3118817   3.638   1.298   6.624  0.3065  0.0091  0.0082
  167SAPE   O3218818   3.561   1.223   6.688  0.5976 -0.0061 -0.0882
  167SAPE   C3218819   3.778   1.341   6.658 -0.2026 -0.0139  0.5261
  167SAPE   H2X18820   3.771   1.450   6.678 -1.6008 -0.4552  2.7570
  167SAPE   H2Y18821   3.838   1.315   6.569 -0.9192 -1.8891  0.5534
  167SAPE   C2318822   3.511   1.639   6.908 -0.0465 -0.0477 -0.1772
  167SAPE   H3R18823   3.601   1.687   6.951 -0.1128 -1.4426  1.6470
  167SAPE   H3S18824   3.526   1.532   6.933  2.5528 -0.7229 -3.9011
  167SAPE   C2418825   3.397   1.697   6.986  0.3703 -0.5122 -0.2796
  167SAPE   H4R18826   3.409   1.663   7.091  1.3573  2.2588  0.5768
  167SAPE   H4S18827   3.295   1.660   6.962 -0.0635 -1.7885  3.0012
  167SAPE   C2518828   3.397   1.847   6.988  0.3562  0.4892 -0.2016
  167SAPE   H5R18829   3.358   1.903   6.902 -1.0250 -0.8657 -0.4899
  167SAPE   C2618830   3.437   1.910   7.098  0.3657 -0.4817 -0.1820
  167SAPE   H6R18831   3.432   2.020   7.091 -0.5772 -0.3950  1.4661
  167SAPE   C2718832   3.504   1.857   7.228  0.1527  0.0304  0.3115
  167SAPE   H7R18833   3.587   1.926   7.256  0.5790 -0.4037  0.1366
  167SAPE   H7S18834   3.550   1.757   7.215 -0.3566 -0.1028 -0.5415
  167SAPE   C2818835   3.406   1.843   7.342 -0.4116 -0.8091 -0.0027
  167SAPE   H8R18836   3.303   1.832   7.308 -0.4741  0.8461 -0.4588
  167SAPE   C2918837   3.436   1.842   7.473 -0.5783  0.5627 -0.1339
  167SAPE   H9R18838   3.350   1.832   7.542  0.3874  0.8154  1.1523
  167SAPE  C21018839   3.571   1.859   7.532  1.2917 -0.0414  0.0614
  167SAPE  H10R18840   3.586   1.958   7.581 -0.2630  0.5942 -0.6907
  167SAPE  H10S18841   3.647   1.857   7.452  0.5858  0.6158 -0.6325
  167SAPE  C21118842   3.602   1.755   7.623  0.1703  0.1802 -0.2314
  167SAPE  H11R18843   3.646   1.666   7.575  2.9149  0.0133  2.2674
  167SAPE  C21218844   3.594   1.755   7.754 -0.5231 -0.0717 -0.0336
  167SAPE  H12R18845   3.631   1.664   7.804 -0.1628 -0.6026 -1.2481
  167SAPE  C21318846   3.540   1.865   7.845 -0.3120  0.2339  0.2624
  167SAPE  H13R18847   3.477   1.938   7.790  1.7515  1.3222 -0.7819
  167SAPE  H13S18848   3.619   1.922   7.899  0.1288 -1.3554  1.3594
  167SAPE  C21418849   3.450   1.812   7.955 -0.1806 -0.6932  0.0378
  167SAPE  H14R18850   3.345   1.844   7.959 -0.2290 -0.8326 -0.0759
  167SAPE  C21518851   3.493   1.761   8.070 -0.8565  0.9605  0.1256
  167SAPE  H15R18852   3.425   1.742   8.154 -0.7467  1.6994  0.3877
  167SAPE  C21618853   3.640   1.740   8.096 -0.3138 -0.4370 -0.0609
  167SAPE  H16R18854   3.713   1.794   8.032  0.2123  0.2473  1.0662
  167SAPE  H16S18855   3.660   1.631   8.095  2.7479  0.0381 -1.5805
  167SAPE  C21718856   3.676   1.793   8.236 -0.4974 -0.4462  0.1961
  167SAPE  H17R18857   3.783   1.769   8.255 -0.4668  1.2035  2.4606
  167SAPE  H17S18858   3.610   1.754   8.316  0.2801 -0.2125  0.9637
  167SAPE  C21818859   3.684   1.941   8.243  0.2206 -0.3677 -0.5204
  167SAPE  H18R18860   3.592   1.994   8.210  0.4916  1.5780  1.5810
  167SAPE  H18S18861   3.762   1.978   8.173 -0.6139 -2.5153 -2.7326
  167SAPE  C21918862   3.713   1.994   8.383  0.2985 -0.1991 -0.4243
  167SAPE  H19R18863   3.817   1.971   8.415 -0.1758 -0.5613  0.9368
  167SAPE  H19S18864   3.644   1.948   8.457 -0.0518  0.3635 -0.3927
  167SAPE  C22018865   3.690   2.144   8.401 -0.0711 -0.1534  0.6400
  167SAPE  H20R18866   3.772   2.197   8.349  0.4552 -2.3499 -0.8913
  167SAPE  H20S18867   3.710   2.173   8.506 -0.0906  2.8966 -0.1002
  167SAPE  H20T18868   3.593   2.185   8.366 -0.5793 -0.8902  1.1446
  167SAPE   C3318869   3.847   1.281   6.782 -0.3046  0.4676  0.2245
  167SAPE   H3X18870   3.957   1.286   6.764 -0.5938  0.3511 -1.7485
  167SAPE   H3Y18871   3.821   1.174   6.793 -1.6356  0.8812  1.4485
  167SAPE   C3418872   3.811   1.360   6.914 -0.7411  0.6465 -0.0232
  167SAPE   H4X18873   3.700   1.362   6.911 -0.7822  1.5539  1.5239
  167SAPE   H4Y18874   3.846   1.465   6.913 -0.1986  0.4947  1.2153
  167SAPE   C3518875   3.871   1.283   7.030 -0.4763 -0.3480  0.5374
  167SAPE   H5X18876   3.974   1.254   7.001 -0.6150  0.4432 -0.8346
  167SAPE   H5Y18877   3.809   1.192   7.046 -3.7412  0.9098 -3.2682
  167SAPE   C3618878   3.878   1.361   7.162  0.3780  0.0942  0.3945
  167SAPE   H6X18879   3.930   1.457   7.138 -0.4393  0.3701 -0.3533
  167SAPE   H6Y18880   3.937   1.298   7.231  1.7689  1.2215  0.2962
  167SAPE   C3718881   3.746   1.392   7.233 -0.0389  0.2982  0.0566
  167SAPE   H7X18882   3.677   1.304   7.232  1.6422 -1.0683  0.1753
  167SAPE   H7Y18883   3.695   1.473   7.177  0.9093  1.5746  0.9936
  167SAPE   C3818884   3.765   1.439   7.386 -0.2235 -0.3373  0.1668
  167SAPE   H8X18885   3.666   1.480   7.414 -0.6692  0.0010 -1.7677
  167SAPE   H8Y18886   3.846   1.515   7.381  0.3937 -1.0234 -0.5564
  167SAPE   C3918887   3.802   1.316   7.479  0.1193 -0.3067 -0.0820
  167SAPE   H9X18888   3.901   1.277   7.445  0.2540  0.6746 -0.8455
  167SAPE   H9Y18889   3.730   1.232   7.473 -0.2640 -0.2665  2.7829
  167SAPE  C31018890   3.807   1.367   7.623 -0.3569 -0.1733  0.6563
  167SAPE  H10X18891   3.863   1.463   7.622  3.1397 -2.0579  0.0492
  167SAPE  H10Y18892   3.873   1.300   7.682  1.3001  0.9142  0.1193
  167SAPE  C31118893   3.669   1.357   7.688 -0.1390  0.1119 -0.3793
  167SAPE  H11X18894   3.623   1.258   7.668 -1.3309  0.7767 -1.0397
  167SAPE  H11Y18895   3.610   1.440   7.644  1.3996  2.4769  1.7125
  167SAPE  C31218896   3.680   1.382   7.844 -0.1739  0.9519 -0.2747
  167SAPE  H12X18897   3.586   1.417   7.891  1.6994  1.5451  3.4913
  167SAPE  H12Y18898   3.760   1.459   7.840  0.2039  0.7421  1.9749
  167SAPE  C31318899   3.745   1.264   7.917 -0.0425  0.4515 -0.3048
  167SAPE  H13X18900   3.840   1.234   7.866 -0.9440  0.1056 -1.8370
  167SAPE  H13Y18901   3.674   1.179   7.917  0.5985 -0.0964 -0.0041
  167SAPE  C31418902   3.781   1.292   8.063  0.6942 -0.3765  0.1276
  167SAPE  H14X18903   3.845   1.383   8.057 -0.7946  0.6401 -0.8119
  167SAPE  H14Y18904   3.842   1.209   8.106  1.1246 -1.2040 -1.9589
  167SAPE  C31518905   3.649   1.325   8.141  0.5520 -0.2156  0.5946
  167SAPE  H15X18906   3.571   1.249   8.119  1.2407 -1.1520  1.3080
  167SAPE  H15Y18907   3.599   1.413   8.095  2.7645 -0.7574 -3.3827
  167SAPE  C31618908   3.672   1.344   8.293  0.1580  0.4264 -0.2191
  167SAPE  H16X18909   3.735   1.436   8.294 -1.0848  1.4406 -3.1297
  167SAPE  H16Y18910   3.734   1.256   8.320 -2.4551 -1.5432 -0.2724
  167SAPE  C31718911   3.544   1.355   8.386  0.5452  0.0270 -0.2155
  167SAPE  H17X18912   3.478   1.268   8.366 -1.5157  0.7759  2.7211
  167SAPE  H17Y18913   3.485   1.448   8.375  1.4185  1.1419  3.1836
  167SAPE  C31818914   3.582   1.364   8.538 -0.8520 -0.0010 -0.1686
  167SAPE  H18X18915   3.503   1.408   8.602  0.5608  2.4651  0.0094
  167SAPE  H18Y18916   3.665   1.436   8.556 -1.6599  0.5150  1.7881
  167SAPE  H18Z18917   3.618   1.264   8.572  0.6759  0.9107  1.0855
  168SAPE     N18918   5.621   6.096   6.574 -0.0236  0.1450  0.0461
  168SAPE   HN118919   5.620   6.164   6.652 -2.8808 -1.6534  1.7526
  168SAPE   HN218920   5.715   6.096   6.529 -0.6515  2.4021 -1.4662
  168SAPE   HN318921   5.561   6.128   6.496 -0.9953 -2.6194 -0.4407
  168SAPE   C1218922   5.567   5.964   6.624  0.0858 -0.4678  0.1576
  168SAPE  H12A18923   5.649   5.916   6.682  1.3943 -1.5743 -2.4051
  168SAPE  H12B18924   5.550   5.899   6.535  0.6987  0.0884 -0.3759
  168SAPE   C1118925   5.440   5.988   6.709  0.6682 -1.1381  0.0521
  168SAPE  H11A18926   5.471   6.045   6.799 -1.2358 -1.0288  0.6609
  168SAPE  H11B18927   5.395   5.893   6.743 -0.4434 -0.1555  1.3870
  168SAPE     P18928   5.231   5.989   6.557 -0.0378 -0.2819  0.3130
  168SAPE   O1318929   5.139   6.086   6.498  0.1923  0.4090  0.2477
  168SAPE   O1418930   5.302   5.895   6.467 -0.3411 -0.5226  0.5596
  168SAPE   O1218931   5.339   6.073   6.642 -0.4128  0.1568  0.2165
  168SAPE   O1118932   5.149   5.916   6.660 -0.3840  0.5111  0.0124
  168SAPE    C118933   5.055   5.974   6.747  0.4803 -0.1033  0.0648
  168SAPE    HA18934   5.001   6.059   6.699 -0.4411 -0.9573 -0.4607
  168SAPE    HB18935   4.976   5.900   6.775  1.0800 -1.2448 -1.1851
  168SAPE    C218936   5.115   6.024   6.886  0.1863  0.2712 -0.6443
  168SAPE    HS18937   5.196   6.094   6.856  0.6845  1.0062  2.1813
  168SAPE   O2118938   5.154   5.908   6.960  0.4058  0.8369  0.9342
  168SAPE   C2118939   5.276   5.907   7.012 -0.1253 -0.3904  0.5188
  168SAPE   O2218940   5.354   6.002   7.017  0.2115  0.2931  0.0917
  168SAPE   C2218941   5.289   5.775   7.087 -1.1671 -0.1197 -0.0198
  168SAPE   H2R18942   5.190   5.761   7.135 -1.5269  0.7458 -0.4899
  168SAPE   H2S18943   5.307   5.698   7.009 -0.6999  1.1725 -1.2327
  168SAPE    C318944   5.011   6.117   6.956  0.4835  0.1677  0.0118
  168SAPE    HX18945   4.914   6.069   6.981 -0.3640  1.7681 -0.1037
  168SAPE    HY18946   4.996   6.195   6.878 -1.0453  1.7467  1.7796
  168SAPE   O3118947   5.075   6.184   7.065 -0.3343 -0.3364  0.5027
  168SAPE   C3118948   5.052   6.131   7.183  1.0146  0.0686 -0.5266
  168SAPE   O3218949   4.959   6.060   7.217  0.1983 -0.8272 -0.6241
  168SAPE   C3218950   5.163   6.169   7.278  0.9012 -0.1245  0.0770
  168SAPE   H2X18951   5.174   6.279   7.280  1.4130 -0.1290 -1.2870
  168SAPE   H2Y18952   5.261   6.125   7.251  1.0851 -0.0486  0.6071
  168SAPE   C2318953   5.414   5.765   7.180 -0.2716  0.3071  0.1949
  168SAPE   H3R18954   5.398   5.823   7.274  0.4924  0.3720  0.2868
  168SAPE   H3S18955   5.511   5.800   7.140  0.9876 -2.8443  0.2812
  168SAPE   C2418956   5.438   5.617   7.216 -0.4319 -0.5428 -0.6994
  168SAPE   H4R18957   5.470   5.561   7.126  0.9150 -1.5395  0.3466
  168SAPE   H4S18958   5.342   5.575   7.253 -0.1724 -1.2591 -0.8095
  168SAPE   C2518959   5.547   5.596   7.311 -0.3340 -1.0793 -0.9608
  168SAPE   H5R18960   5.646   5.563   7.275 -0.5600 -3.0343  0.1011
  168SAPE   C2618961   5.534   5.590   7.441 -0.0799  0.1783 -0.1344
  168SAPE   H6R18962   5.620   5.559   7.502 -0.3908 -0.3787  0.0282
  168SAPE   C2718963   5.402   5.618   7.516  0.1620  0.7214  0.9101
  168SAPE   H7R18964   5.373   5.528   7.575  0.9722 -0.8860 -1.0268
  168SAPE   H7S18965   5.319   5.646   7.447  0.2189  1.0611  0.9788
  168SAPE   C2818966   5.434   5.727   7.617 -0.0488  0.3962 -0.2657
  168SAPE   H8R18967   5.466   5.825   7.579 -0.2381  0.3669 -0.4997
  168SAPE   C2918968   5.431   5.714   7.751  0.5479 -0.0910 -0.2964
  168SAPE   H9R18969   5.463   5.802   7.808  0.1154 -0.0358 -0.1358
  168SAPE  C21018970   5.391   5.586   7.824 -0.1145  0.6761  0.7356
  168SAPE  H10R18971   5.473   5.512   7.829 -2.0119 -1.4859  1.7000
  168SAPE  H10S18972   5.311   5.534   7.767  0.7934  0.5735 -0.4761
  168SAPE  C21118973   5.352   5.619   7.968 -0.2265  0.0419 -0.1956
  168SAPE  H11R18974   5.429   5.583   8.037 -0.0662 -0.7720 -0.7865
  168SAPE  C21218975   5.245   5.681   8.009  0.0607 -0.4638 -0.3170
  168SAPE  H12R18976   5.221   5.696   8.115 -0.9594  0.1181 -0.6157
  168SAPE  C21318977   5.142   5.745   7.922  0.4593  0.1442 -0.3376
  168SAPE  H13R18978   5.192   5.788   7.833 -1.3642  0.3276 -1.3333
  168SAPE  H13S18979   5.096   5.836   7.967  1.4184  0.8140 -0.6679
  168SAPE  C21418980   5.028   5.649   7.891  0.4395  0.2189  0.6080
  168SAPE  H14R18981   4.975   5.600   7.974 -0.0013 -0.6749 -0.1920
  168SAPE  C21518982   4.981   5.609   7.764 -0.2417 -0.1554  0.2371
  168SAPE  H15R18983   4.892   5.544   7.764 -1.4649  1.4623 -0.6355
  168SAPE  C21618984   5.028   5.648   7.619 -0.5258  0.0892 -0.8418
  168SAPE  H16R18985   5.096   5.567   7.585 -0.2757  0.1213 -0.4349
  168SAPE  H16S18986   5.090   5.741   7.618  0.9220 -0.8024  0.3760
  168SAPE  C21718987   4.905   5.659   7.537  1.0278  0.8551 -0.6294
  168SAPE  H17R18988   4.839   5.736   7.583  2.1734  0.6869  1.4355
  168SAPE  H17S18989   4.869   5.554   7.540 -1.1947  1.5672 -0.6511
  168SAPE  C21818990   4.951   5.685   7.393  0.5351 -0.2435 -0.5983
  168SAPE  H18R18991   5.010   5.595   7.368  2.7630  0.4046  1.8481
  168SAPE  H18S18992   5.031   5.763   7.391  0.3065 -0.0082 -2.1805
  168SAPE  C21918993   4.833   5.721   7.307 -0.0065  0.3671 -0.2668
  168SAPE  H19R18994   4.796   5.820   7.341 -1.9350 -0.2541 -0.4361
  168SAPE  H19S18995   4.761   5.637   7.318  1.7898 -1.1418  0.5760
  168SAPE  C22018996   4.872   5.732   7.161  0.0677 -0.0804 -0.5219
  168SAPE  H20R18997   4.921   5.643   7.117  1.0253 -0.3186  0.9494
  168SAPE  H20S18998   4.955   5.804   7.142  1.5650 -1.8899 -1.1853
  168SAPE  H20T18999   4.788   5.767   7.097  1.1375  0.0559 -1.9283
  168SAPE   C3319000   5.129   6.133   7.423 -0.4830 -0.0482 -0.9680
  168SAPE   H3X19001   5.125   6.023   7.436  0.5838 -0.0813 -0.7921
  168SAPE   H3Y19002   5.031   6.175   7.453  1.0972  3.9104 -0.6432
  168SAPE   C3419003   5.227   6.203   7.519  0.5385  0.1045  0.4158
  168SAPE   H4X19004   5.239   6.312   7.502 -1.4495  0.2381 -0.4639
  168SAPE   H4Y19005   5.325   6.157   7.494 -0.0120 -0.1092 -1.5510
  168SAPE   C3519006   5.191   6.157   7.665  0.0005 -0.4736  0.3152
  168SAPE   H5X19007   5.208   6.047   7.654 -1.2978 -0.5586 -1.2967
  168SAPE   H5Y19008   5.083   6.154   7.689  0.1102 -0.6380  0.7979
  168SAPE   C3619009   5.282   6.209   7.781 -0.4134  0.7828  0.3311
  168SAPE   H6X19010   5.228   6.295   7.826 -0.7486 -0.1706  1.7993
  168SAPE   H6Y19011   5.380   6.239   7.739  1.2127 -2.5082  1.4421
  168SAPE   C3719012   5.307   6.098   7.887 -0.2830 -0.4714 -0.2536
  168SAPE   H7X19013   5.377   6.035   7.828  0.3677 -0.2733  0.2836
  168SAPE   H7Y19014   5.215   6.049   7.925 -0.2923  1.2198  2.1407
  168SAPE   C3819015   5.382   6.138   8.016 -0.7703 -0.5579  0.5314
  168SAPE   H8X19016   5.328   6.219   8.069  2.2143  1.2730  0.9870
  168SAPE   H8Y19017   5.480   6.182   7.989 -0.1156 -1.7390  0.9045
  168SAPE   C3919018   5.408   6.015   8.103  0.1677 -0.0072 -0.4573
  168SAPE   H9X19019   5.456   5.941   8.035  1.0944 -1.0252  1.2404
  168SAPE   H9Y19020   5.317   5.972   8.151 -0.6005  2.0394 -0.0081
  168SAPE  C31019021   5.501   6.039   8.224 -0.2700  0.8957  0.5108
  168SAPE  H10X19022   5.592   6.082   8.177 -0.2065 -1.0675 -1.2845
  168SAPE  H10Y19023   5.542   5.949   8.274  1.4080  1.0013 -0.5905
  168SAPE  C31119024   5.458   6.150   8.321 -0.9146  0.2114 -0.6244
  168SAPE  H11X19025   5.352   6.135   8.351 -0.6091  0.9090  0.9003
  168SAPE  H11Y19026   5.459   6.247   8.267 -3.8438  1.5443  1.4329
  168SAPE  C31219027   5.543   6.153   8.451  0.2434 -0.1719  0.2629
  168SAPE  H12X19028   5.649   6.150   8.420  0.7089 -1.4085  1.8445
  168SAPE  H12Y19029   5.517   6.058   8.503 -1.3133  0.9754  1.6744
  168SAPE  C31319030   5.533   6.280   8.536  0.4254  1.0222  0.4364
  168SAPE  H13X19031   5.572   6.359   8.469 -0.0412  0.6352 -0.3079
  168SAPE  H13Y19032   5.600   6.276   8.625 -1.3538 -1.6135  1.8312
  168SAPE  C31419033   5.379   6.312   8.576 -0.0588 -0.1543 -0.0786
  168SAPE  H14X19034   5.339   6.227   8.636 -0.2059  0.4462  0.7016
  168SAPE  H14Y19035   5.322   6.340   8.485 -0.4711  0.5929  0.3891
  168SAPE  C31519036   5.374   6.447   8.652  0.2514  1.1949 -0.4330
  168SAPE  H15X19037   5.435   6.506   8.580 -0.9694  1.3678 -1.3528
  168SAPE  H15Y19038   5.437   6.441   8.743  1.9526  0.3659 -1.5875
  168SAPE  C31619039   5.244   6.526   8.669  0.2359  0.3037  0.9365
  168SAPE  H16X19040   5.178   6.469   8.737 -0.1246 -0.8159 -0.3108
  168SAPE  H16Y19041   5.213   6.535   8.563  1.3924 -0.4693  0.5160
  168SAPE  C31719042   5.263   6.665   8.729  0.0678 -0.0595  0.3410
  168SAPE  H17X19043   5.169   6.722   8.715 -0.1434 -0.4119  0.3177
  168SAPE  H17Y19044   5.339   6.720   8.669 -0.5051  1.7548  1.2093
  168SAPE  C31819045   5.333   6.677   8.869  0.0312  0.1626  0.0388
  168SAPE  H18X19046   5.332   6.787   8.884 -1.3173  0.1223  0.3691
  168SAPE  H18Y19047   5.434   6.631   8.866 -0.3356 -0.7014  0.4961
  168SAPE  H18Z19048   5.274   6.619   8.944 -0.0766  0.0734 -0.1154
  169SAPE     N19049   2.446   5.804   6.614  0.4372  0.3347  0.4453
  169SAPE   HN119050   2.504   5.803   6.700  0.1874  0.5785  0.6184
  169SAPE   HN219051   2.449   5.716   6.558 -2.2795  0.4010  0.0608
  169SAPE   HN319052   2.478   5.890   6.564 -1.2098  1.2872  0.9616
  169SAPE   C1219053   2.297   5.828   6.641 -1.0680  0.1807  0.7083
  169SAPE  H12A19054   2.292   5.865   6.746 -6.3878  1.0959  0.4003
  169SAPE  H12B19055   2.246   5.730   6.633  1.3000 -1.1087  0.6036
  169SAPE   C1119056   2.237   5.934   6.551  0.5968  0.3572 -0.1054
  169SAPE  H11A19057   2.127   5.945   6.560  0.0388 -0.1878 -4.3099
  169SAPE  H11B19058   2.261   5.899   6.448  2.2216  0.3432  0.2493
  169SAPE     P19059   2.297   6.187   6.495 -0.4214  0.2266  0.5322
  169SAPE   O1319060   2.432   6.195   6.431 -0.0461 -0.2553 -0.1280
  169SAPE   O1419061   2.183   6.184   6.403 -0.1113  0.3216  0.0179
  169SAPE   O1219062   2.296   6.063   6.586 -0.1083  0.2937 -0.7885
  169SAPE   O1119063   2.271   6.303   6.599  0.1253  0.6339  0.3331
  169SAPE    C119064   2.372   6.327   6.704 -0.2441  0.3280 -0.2458
  169SAPE    HA19065   2.474   6.313   6.664  0.0206 -0.4340  0.6729
  169SAPE    HB19066   2.366   6.431   6.743 -1.2217  0.2171 -0.0575
  169SAPE    C219067   2.355   6.241   6.832 -0.8514  0.6832 -0.3370
  169SAPE    HS19068   2.396   6.143   6.799 -1.2849  0.4644 -0.2279
  169SAPE   O2119069   2.220   6.234   6.879  0.2772  0.8162 -0.6460
  169SAPE   C2119070   2.169   6.128   6.934 -0.1881  0.1863  0.8709
  169SAPE   O2219071   2.222   6.026   6.945 -0.2840  0.3503  0.1020
  169SAPE   C2219072   2.033   6.165   6.990 -0.4687 -0.2855 -0.0844
  169SAPE   H2R19073   1.970   6.209   6.910  1.6263 -1.5548 -2.5663
  169SAPE   H2S19074   1.981   6.068   7.006  0.1154 -0.2230  2.7457
  169SAPE    C319075   2.445   6.301   6.940  0.4760 -0.1451 -0.3259
  169SAPE    HX19076   2.393   6.393   6.975 -0.6224 -0.5645 -0.8362
  169SAPE    HY19077   2.549   6.321   6.906  1.4375 -2.8831  0.7037
  169SAPE   O3119078   2.448   6.217   7.056 -0.1693 -0.0905 -0.2804
  169SAPE   C3119079   2.538   6.126   7.068  0.4477  0.3783  0.3283
  169SAPE   O3219080   2.611   6.078   6.981 -0.6224 -0.1067 -0.5900
  169SAPE   C3219081   2.531   6.069   7.208  0.7738  0.2483  0.0494
  169SAPE   H2X19082   2.605   5.987   7.214 -0.4050 -0.8323  0.4134
  169SAPE   H2Y19083   2.438   6.007   7.209  1.1020 -0.2417  0.6214
  169SAPE   C2319084   2.054   6.231   7.125  0.1270 -0.5803 -0.3723
  169SAPE   H3R19085   1.956   6.245   7.176 -1.0589 -1.9920 -2.1092
  169SAPE   H3S19086   2.099   6.332   7.121 -1.8488  0.5101  2.1842
  169SAPE   C2419087   2.147   6.150   7.224 -0.5346  0.7621 -0.1518
  169SAPE   H4R19088   2.159   6.208   7.318 -1.4647 -1.0939  1.1701
  169SAPE   H4S19089   2.246   6.128   7.179 -1.1217  0.2093 -1.2070
  169SAPE   C2519090   2.092   6.019   7.264 -0.6912 -0.3147 -0.8606
  169SAPE   H5R19091   2.102   5.942   7.186 -0.8200 -0.4370 -0.7573
  169SAPE   C2619092   2.032   5.981   7.379 -0.2147 -0.0026  0.0352
  169SAPE   H6R19093   1.986   5.881   7.382  0.7678 -0.4437  0.8192
  169SAPE   C2719094   2.001   6.059   7.502  0.2394  0.0527 -0.6119
  169SAPE   H7R19095   1.909   6.029   7.557 -0.3870  3.7702  0.6605
  169SAPE   H7S19096   1.972   6.157   7.458  2.2360  2.2514  2.5135
  169SAPE   C2819097   2.117   6.089   7.603 -0.1304 -0.2712 -0.2965
  169SAPE   H8R19098   2.210   6.130   7.560 -1.5268  2.3220 -1.0711
  169SAPE   C2919099   2.120   6.071   7.737 -0.5714  0.2102  0.1931
  169SAPE   H9R19100   2.209   6.113   7.787 -0.7097 -0.9038  1.4440
  169SAPE  C21019101   2.024   6.014   7.839 -0.1389 -0.9732 -0.2337
  169SAPE  H10R19102   1.927   5.996   7.787 -0.4458  0.5035 -0.2111
  169SAPE  H10S19103   2.016   6.096   7.913 -0.9628  0.4682 -1.8518
  169SAPE  C21119104   2.087   5.881   7.881  0.3066 -0.1310  0.3071
  169SAPE  H11R19105   2.139   5.826   7.801 -2.0119 -0.8398 -0.7901
  169SAPE  C21219106   2.128   5.854   8.007 -0.1359 -0.3133 -0.5678
  169SAPE  H12R19107   2.157   5.749   8.026 -0.5901 -0.1870  0.9596
  169SAPE  C21319108   2.116   5.942   8.129 -0.0710  0.6466 -0.0283
  169SAPE  H13R19109   2.029   6.010   8.116  0.5502  1.7760  1.4207
  169SAPE  H13S19110   2.203   6.011   8.127  1.3556 -1.0078  1.5958
  169SAPE  C21419111   2.109   5.865   8.260  0.0375 -0.5115  0.1726
  169SAPE  H14R19112   2.207   5.853   8.308 -0.8503 -0.4220  2.0915
  169SAPE  C21519113   2.006   5.825   8.332  0.6234 -0.5469  0.0241
  169SAPE  H15R19114   2.025   5.771   8.426  0.3652 -1.4626 -0.4347
  169SAPE  C21619115   1.856   5.839   8.302 -0.3852 -0.7122 -0.1972
  169SAPE  H16R19116   1.835   5.882   8.201  0.3290  1.7023  0.6011
  169SAPE  H16S19117   1.794   5.898   8.372 -0.8880 -1.3928 -0.0688
  169SAPE  C21719118   1.781   5.704   8.299  0.2579 -0.7119  0.3798
  169SAPE  H17R19119   1.776   5.670   8.404 -3.3799 -0.4912  0.3944
  169SAPE  H17S19120   1.839   5.628   8.241 -0.5283 -0.9641 -0.0914
  169SAPE  C21819121   1.647   5.709   8.229 -0.2499  0.0562 -0.4656
  169SAPE  H18R19122   1.617   5.616   8.176  0.0763  0.6955 -1.8105
  169SAPE  H18S19123   1.644   5.791   8.154 -1.1385 -0.4825 -1.0362
  169SAPE  C21919124   1.541   5.744   8.328 -0.3104  0.3809 -0.3466
  169SAPE  H19R19125   1.573   5.818   8.405 -0.9562 -0.1607  0.4648
  169SAPE  H19S19126   1.511   5.655   8.387  0.6994  0.8761  0.9850
  169SAPE  C22019127   1.417   5.805   8.264 -0.2443  0.1854 -0.0559
  169SAPE  H20R19128   1.369   5.724   8.206 -0.6833 -1.6704  2.6730
  169SAPE  H20S19129   1.437   5.895   8.202  0.1661  1.7104  2.1678
  169SAPE  H20T19130   1.339   5.833   8.338 -1.4690 -0.1920 -1.1673
  169SAPE   C3319131   2.531   6.166   7.337 -0.2057 -0.4369  0.2474
  169SAPE   H3X19132   2.450   6.242   7.339 -1.3699 -1.6173  3.0540
  169SAPE   H3Y19133   2.629   6.219   7.340 -1.3870  2.1809 -2.4020
  169SAPE   C3419134   2.507   6.084   7.466 -0.5845 -0.1746 -0.4883
  169SAPE   H4X19135   2.579   6.000   7.459  1.0466  1.1154  0.0176
  169SAPE   H4Y19136   2.402   6.047   7.459 -0.4403 -1.0993  1.6030
  169SAPE   C3519137   2.516   6.170   7.589  0.3676  0.3695  1.0947
  169SAPE   H5X19138   2.441   6.252   7.591  0.2359  0.2385  1.5605
  169SAPE   H5Y19139   2.617   6.215   7.577  0.5368 -0.6253 -2.7257
  169SAPE   C3619140   2.513   6.090   7.711  0.6356  0.6872 -1.0174
  169SAPE   H6X19141   2.582   6.003   7.714 -0.9927 -0.6358  0.5405
  169SAPE   H6Y19142   2.412   6.044   7.721  0.8783  0.4106  0.4600
  169SAPE   C3719143   2.551   6.185   7.833 -0.1501  0.3233  0.6605
  169SAPE   H7X19144   2.506   6.285   7.818 -1.1615 -0.3305 -1.0209
  169SAPE   H7Y19145   2.658   6.207   7.815 -0.3991  1.1896  0.1808
  169SAPE   C3819146   2.552   6.107   7.961  0.2777  0.3291 -0.8302
  169SAPE   H8X19147   2.638   6.037   7.958  1.2250  1.4791 -2.0246
  169SAPE   H8Y19148   2.451   6.061   7.968 -0.6576  2.0361 -2.2163
  169SAPE   C3919149   2.556   6.203   8.076 -0.2266  0.3077 -0.1528
  169SAPE   H9X19150   2.467   6.267   8.060 -2.1013 -1.9952  0.5715
  169SAPE   H9Y19151   2.651   6.260   8.060 -0.6488  0.6874 -1.3908
  169SAPE  C31019152   2.566   6.145   8.216  0.4016 -0.3684  0.1426
  169SAPE  H10X19153   2.667   6.103   8.233 -0.0779 -0.6488  2.7285
  169SAPE  H10Y19154   2.498   6.058   8.229 -1.0276  0.5388 -0.8610
  169SAPE  C31119155   2.537   6.241   8.326  0.5730  1.1709 -0.3984
  169SAPE  H11X19156   2.448   6.302   8.303  0.3086  0.6395 -0.7882
  169SAPE  H11Y19157   2.623   6.311   8.335  1.4663  0.0019  0.6045
  169SAPE  C31219158   2.519   6.169   8.463 -1.1486  0.0346  0.0027
  169SAPE  H12X19159   2.570   6.070   8.476 -0.0362  0.5487 -0.3054
  169SAPE  H12Y19160   2.411   6.150   8.482 -0.7734 -2.1981  0.2113
  169SAPE  C31319161   2.566   6.278   8.567 -0.2805 -0.6395 -0.2380
  169SAPE  H13X19162   2.518   6.267   8.667  0.8100  2.3349  0.6987
  169SAPE  H13Y19163   2.545   6.380   8.529  0.6551 -0.3770 -0.0710
  169SAPE  C31419164   2.716   6.270   8.585 -0.7403 -0.4077 -0.6512
  169SAPE  H14X19165   2.778   6.289   8.495  2.0701  0.5067  1.3549
  169SAPE  H14Y19166   2.748   6.170   8.621  0.6505  0.2955  0.1274
  169SAPE  C31519167   2.764   6.360   8.703  0.6103 -0.1681  0.2317
  169SAPE  H15X19168   2.697   6.367   8.792  1.8761 -0.1457  1.2137
  169SAPE  H15Y19169   2.784   6.465   8.672 -0.9002  0.6166  1.7139
  169SAPE  C31619170   2.905   6.322   8.757 -0.2124  0.0179  0.0297
  169SAPE  H16X19171   2.935   6.414   8.813 -2.3285  0.8218 -0.0396
  169SAPE  H16Y19172   2.972   6.298   8.673 -0.1358  2.2267 -0.6132
  169SAPE  C31719173   2.898   6.217   8.866  0.4969 -0.2376 -1.0925
  169SAPE  H17X19174   2.867   6.116   8.833 -2.6289 -0.0600  0.9005
  169SAPE  H17Y19175   2.813   6.232   8.936  1.1977 -2.7014  0.3814
  169SAPE  C31819176   3.022   6.198   8.953  0.0220  0.0847 -0.1962
  169SAPE  H18X19177   2.989   6.127   9.033  0.6566  0.4132  0.3641
  169SAPE  H18Y19178   3.047   6.290   9.009 -0.0431  0.5608 -0.9367
  169SAPE  H18Z19179   3.108   6.178   8.886 -0.0272  0.2304 -0.3034
  170SAPE     N19180   5.081   3.611   6.260 -0.3683 -0.0440 -0.1929
  170SAPE   HN119181   5.109   3.638   6.163 -4.5538  2.2032 -1.0191
  170SAPE   HN219182   5.081   3.508   6.270  0.4260  0.0725  1.4077
  170SAPE   HN319183   4.993   3.662   6.280  0.1453  0.5757  0.5614
  170SAPE   C1219184   5.180   3.674   6.354 -0.2143 -0.1379 -0.4264
  170SAPE  H12A19185   5.148   3.632   6.451 -1.4421 -1.0995 -1.2163
  170SAPE  H12B19186   5.175   3.784   6.370  0.5359  0.0548 -1.4013
  170SAPE   C1119187   5.327   3.632   6.321 -0.2057 -0.1445 -0.1029
  170SAPE  H11A19188   5.350   3.526   6.344  0.4448 -0.2594 -1.2121
  170SAPE  H11B19189   5.391   3.685   6.394  0.0824 -3.0879  1.9408
  170SAPE     P19190   5.406   3.786   6.116  0.0168  0.0059 -0.0579
  170SAPE   O1319191   5.434   3.763   5.973  0.0156  0.2152 -0.9480
  170SAPE   O1419192   5.303   3.889   6.146 -0.3167  0.5526  0.2559
  170SAPE   O1219193   5.364   3.644   6.185  0.1455 -0.1514 -0.1988
  170SAPE   O1119194   5.544   3.809   6.183 -0.7218  0.6317  0.1167
  170SAPE    C119195   5.601   3.930   6.216  0.2500  0.1048 -0.2749
  170SAPE    HA19196   5.708   3.926   6.189  0.1651 -0.8086 -0.5225
  170SAPE    HB19197   5.562   4.019   6.162  2.3861  1.3112  0.0622
  170SAPE    C219198   5.578   3.974   6.366  0.2168  0.4605 -0.5494
  170SAPE    HS19199   5.643   4.064   6.370 -1.5929  1.8712 -1.3376
  170SAPE   O2119200   5.619   3.872   6.452  0.0473 -0.6211 -0.7706
  170SAPE   C2119201   5.743   3.865   6.483  1.1617 -0.2955 -0.4450
  170SAPE   O2219202   5.829   3.938   6.432  0.3567 -0.0561 -0.1205
  170SAPE   C2219203   5.770   3.752   6.590 -0.2554 -0.5349 -0.0964
  170SAPE   H2R19204   5.755   3.656   6.535 -0.0227 -0.2327 -0.7012
  170SAPE   H2S19205   5.874   3.762   6.628 -0.4649  0.7619  0.1674
  170SAPE    C319206   5.426   4.018   6.399 -0.2018 -0.2046 -0.7090
  170SAPE    HX19207   5.360   3.939   6.358  1.2262 -2.5795  1.2446
  170SAPE    HY19208   5.399   4.118   6.360 -0.1738  1.2031  2.5342
  170SAPE   O3119209   5.408   4.019   6.539 -0.0566 -0.9325  0.2100
  170SAPE   C3119210   5.456   4.124   6.605  1.1605  1.1793 -0.4397
  170SAPE   O3219211   5.526   4.216   6.566 -0.1951 -0.8262  0.6191
  170SAPE   C3219212   5.406   4.107   6.751 -0.0044 -0.4576 -0.6389
  170SAPE   H2X19213   5.364   4.005   6.768  0.6271 -0.3866  1.7176
  170SAPE   H2Y19214   5.329   4.186   6.762  1.3487  0.9334 -0.9036
  170SAPE   C2319215   5.679   3.769   6.709 -0.3610  0.3201  0.1229
  170SAPE   H3R19216   5.581   3.819   6.694 -1.2098 -1.1379  0.5979
  170SAPE   H3S19217   5.738   3.825   6.785  1.2843 -0.7688 -0.2915
  170SAPE   C2419218   5.637   3.637   6.775  0.7393 -0.4133 -0.7688
  170SAPE   H4R19219   5.595   3.646   6.878  0.2993  0.4566 -1.0141
  170SAPE   H4S19220   5.721   3.567   6.794  2.5144  2.0877  1.2480
  170SAPE   C2519221   5.549   3.566   6.687 -0.7670  0.0637 -0.6743
  170SAPE   H5R19222   5.599   3.501   6.615  0.1322  2.1108 -2.0052
  170SAPE   C2619223   5.418   3.578   6.672 -0.2117 -0.0450  0.1626
  170SAPE   H6R19224   5.370   3.504   6.607 -2.1687  0.5736  0.8226
  170SAPE   C2719225   5.328   3.670   6.752 -0.5131 -0.3296  0.0303
  170SAPE   H7R19226   5.263   3.716   6.674 -0.2016 -1.5118 -0.9414
  170SAPE   H7S19227   5.380   3.742   6.820 -0.4027  0.1684 -0.5683
  170SAPE   C2819228   5.241   3.575   6.835 -1.0081  0.2058 -0.0665
  170SAPE   H8R19229   5.200   3.500   6.766 -0.2105  1.4711 -2.0186
  170SAPE   C2919230   5.220   3.580   6.969  0.5194  0.1253  0.4922
  170SAPE   H9R19231   5.171   3.496   7.019  1.9092  0.1263  1.9330
  170SAPE  C21019232   5.258   3.677   7.075  0.0654  0.3361  0.8404
  170SAPE  H10R19233   5.170   3.687   7.142 -1.3732  1.4702 -1.1197
  170SAPE  H10S19234   5.273   3.778   7.032  0.9470 -0.1033  0.0745
  170SAPE  C21119235   5.393   3.643   7.134 -0.0474 -0.5260  0.2717
  170SAPE  H11R19236   5.473   3.629   7.060  0.7888  1.0656  0.8310
  170SAPE  C21219237   5.419   3.632   7.264 -0.1575 -0.3377  0.7592
  170SAPE  H12R19238   5.521   3.610   7.296  0.7607 -0.1262 -1.7941
  170SAPE  C21319239   5.313   3.652   7.370 -0.5781  0.3947 -0.0983
  170SAPE  H13R19240   5.252   3.743   7.351 -0.9792  0.4990  1.4905
  170SAPE  H13S19241   5.372   3.669   7.463 -0.0166 -0.1469 -0.3476
  170SAPE  C21419242   5.222   3.534   7.401 -0.4159 -0.2249 -0.3894
  170SAPE  H14R19243   5.198   3.471   7.314 -0.0682  1.2589 -1.5878
  170SAPE  C21519244   5.182   3.499   7.524  0.1110  0.5153 -0.6720
  170SAPE  H15R19245   5.109   3.418   7.542 -0.6655  1.8970  3.8373
  170SAPE  C21619246   5.221   3.566   7.653 -0.0692  0.1436 -0.3605
  170SAPE  H16R19247   5.129   3.598   7.707 -0.7370 -0.3554 -1.2008
  170SAPE  H16S19248   5.281   3.659   7.640  0.2057  0.1007  0.5231
  170SAPE  C21719249   5.308   3.472   7.745 -0.2411  0.6207  0.4816
  170SAPE  H17R19250   5.398   3.434   7.693 -2.1435 -0.6562 -2.1131
  170SAPE  H17S19251   5.247   3.379   7.754  2.1115 -0.9929  0.6374
  170SAPE  C21819252   5.326   3.521   7.891 -0.7426  0.0729  0.1421
  170SAPE  H18R19253   5.236   3.578   7.925  0.6580  0.7358  3.1036
  170SAPE  H18S19254   5.401   3.603   7.901 -0.0484 -0.6597  1.0805
  170SAPE  C21919255   5.358   3.405   7.990  0.1068 -0.2189 -0.4867
  170SAPE  H19R19256   5.385   3.447   8.089 -0.9866 -0.3635 -0.1166
  170SAPE  H19S19257   5.452   3.353   7.961  0.8481  0.9064 -0.1964
  170SAPE  C22019258   5.248   3.301   8.015 -0.0674 -1.0542  0.8027
  170SAPE  H20R19259   5.144   3.337   7.997  0.0856  0.4924  2.6644
  170SAPE  H20S19260   5.256   3.266   8.120 -1.8936  1.1330  1.7578
  170SAPE  H20T19261   5.267   3.213   7.951  0.3245  0.7197 -1.6605
  170SAPE   C3319262   5.513   4.123   6.864  0.5544 -0.0741 -0.3045
  170SAPE   H3X19263   5.563   4.221   6.851  2.1569 -1.0381 -1.8884
  170SAPE   H3Y19264   5.592   4.048   6.842  0.2528 -0.2182 -0.9412
  170SAPE   C3419265   5.465   4.096   7.004  0.0500  0.1725 -0.6650
  170SAPE   H4X19266   5.425   3.992   7.009  1.6657 -0.6022 -2.4484
  170SAPE   H4Y19267   5.380   4.164   7.021 -0.6761  0.9005 -5.5877
  170SAPE   C3519268   5.566   4.111   7.116  0.0708 -0.4915 -0.7369
  170SAPE   H5X19269   5.575   4.213   7.158  0.6344 -0.0572 -1.8639
  170SAPE   H5Y19270   5.664   4.067   7.088  0.4385 -0.5420  0.5709
  170SAPE   C3619271   5.515   4.018   7.230  0.0530 -0.4483  0.4280
  170SAPE   H6X19272   5.521   3.910   7.203  2.2055 -0.3815  0.4781
  170SAPE   H6Y19273   5.407   4.041   7.241  0.3984  1.1789  0.6346
  170SAPE   C3719274   5.600   4.027   7.358  0.2373 -0.1888 -0.4439
  170SAPE   H7X19275   5.614   4.136   7.380  0.5745  0.2501 -2.6435
  170SAPE   H7Y19276   5.705   4.001   7.333 -0.2892 -1.1527 -1.7229
  170SAPE   C3819277   5.555   3.944   7.479 -0.6152  0.3912  0.0874
  170SAPE   H8X19278   5.564   3.837   7.447  0.9334  0.9877 -1.6851
  170SAPE   H8Y19279   5.455   3.975   7.514 -0.7799 -0.9766  0.9040
  170SAPE   C3919280   5.654   3.957   7.598 -0.2496  0.1927 -0.0406
  170SAPE   H9X19281   5.650   4.060   7.639 -0.4172  0.3208 -0.3705
  170SAPE   H9Y19282   5.755   3.937   7.557 -0.2724 -1.0872  0.4527
  170SAPE  C31019283   5.640   3.852   7.708 -0.0750  0.2338 -0.4592
  170SAPE  H10X19284   5.720   3.775   7.717 -1.6192 -1.2730  1.0818
  170SAPE  H10Y19285   5.545   3.805   7.676 -0.2711  2.0457 -2.8891
  170SAPE  C31119286   5.613   3.911   7.848 -0.0103  0.5466  0.0418
  170SAPE  H11X19287   5.708   3.968   7.856  0.1845  0.2142  0.0932
  170SAPE  H11Y19288   5.608   3.829   7.923 -1.1629  0.5018 -0.0641
  170SAPE  C31219289   5.483   4.001   7.855  0.8598 -0.2047 -0.5019
  170SAPE  H12X19290   5.388   3.943   7.847 -0.2880  1.6002 -0.6348
  170SAPE  H12Y19291   5.490   4.077   7.774 -2.2790 -1.2065 -1.8575
  170SAPE  C31319292   5.463   4.077   7.988  0.0775  0.3202  0.6655
  170SAPE  H13X19293   5.441   3.993   8.058 -0.3173 -0.1188  0.0306
  170SAPE  H13Y19294   5.365   4.126   7.968 -1.9975 -3.9215 -0.7715
  170SAPE  C31419295   5.577   4.172   8.028  0.3446  0.9578 -0.6629
  170SAPE  H14X19296   5.576   4.262   7.963 -1.3799  1.6879  0.3000
  170SAPE  H14Y19297   5.674   4.119   8.022 -0.5403 -0.9428  0.7873
  170SAPE  C31519298   5.559   4.233   8.164 -0.7317  0.6146 -0.2764
  170SAPE  H15X19299   5.625   4.321   8.183 -0.1550  0.1448 -0.0876
  170SAPE  H15Y19300   5.577   4.151   8.236 -1.4226  0.3184 -0.4346
  170SAPE  C31619301   5.421   4.294   8.194  0.9543 -0.5364  0.4136
  170SAPE  H16X19302   5.349   4.214   8.217  1.7271 -1.9954 -1.8964
  170SAPE  H16Y19303   5.376   4.353   8.112 -1.2710  0.0383  1.9478
  170SAPE  C31719304   5.414   4.387   8.325 -0.1181  0.1943 -0.3233
  170SAPE  H17X19305   5.309   4.410   8.351  0.5471  2.5877  0.5416
  170SAPE  H17Y19306   5.460   4.481   8.286  0.3171  0.5679  1.0315
  170SAPE  C31819307   5.490   4.339   8.445  0.4253  0.6340  0.3821
  170SAPE  H18X19308   5.597   4.320   8.423 -0.0056  0.2906 -1.6117
  170SAPE  H18Y19309   5.444   4.242   8.472 -0.6039  1.1718  0.6272
  170SAPE  H18Z19310   5.486   4.412   8.529 -0.6473 -1.9132  2.6965
  171SAPE     N19311   5.799   4.717   6.568  0.0193  0.3024 -0.1147
  171SAPE   HN119312   5.783   4.616   6.552  0.2638  0.5356 -2.1593
  171SAPE   HN219313   5.740   4.747   6.647 -1.8628  0.0458 -1.3614
  171SAPE   HN319314   5.773   4.767   6.480  2.3648 -0.3821 -1.2872
  171SAPE   C1219315   5.939   4.727   6.602  0.5888 -0.2042 -0.2455
  171SAPE  H12A19316   5.953   4.675   6.699  2.1477 -0.2044 -0.4474
  171SAPE  H12B19317   5.975   4.832   6.603  0.2399 -0.0815 -0.5322
  171SAPE   C1119318   6.012   4.650   6.499 -0.0243 -0.4611 -0.1824
  171SAPE  H11A19319   6.121   4.666   6.507 -0.2268  0.4931  1.0577
  171SAPE  H11B19320   5.987   4.684   6.396  0.5717 -1.4842 -0.6740
  171SAPE     P19321   6.070   4.416   6.397  0.1106  0.2443  0.1002
  171SAPE   O1319322   5.984   4.372   6.281  0.4165  0.2389 -0.2063
  171SAPE   O1419323   6.198   4.484   6.365  0.2963  0.6514 -0.5028
  171SAPE   O1219324   5.984   4.515   6.491 -0.7920  0.6357  0.6676
  171SAPE   O1119325   6.089   4.291   6.490 -0.2867  0.0649 -0.0875
  171SAPE    C119326   5.984   4.242   6.571  0.6136 -0.6417  0.0524
  171SAPE    HA19327   5.882   4.275   6.544  0.8056 -0.5729 -0.6086
  171SAPE    HB19328   5.971   4.135   6.545 -1.2395 -0.5105  0.2815
  171SAPE    C219329   6.002   4.256   6.728  0.0569 -0.5054  0.1305
  171SAPE    HS19330   5.989   4.366   6.743  0.1435 -0.1985 -1.8347
  171SAPE   O2119331   6.135   4.213   6.760 -0.3191 -0.3597 -0.1952
  171SAPE   C2119332   6.234   4.304   6.738 -1.0956  0.0332  0.3645
  171SAPE   O2219333   6.222   4.424   6.724  0.4097  0.1066  0.4915
  171SAPE   C2219334   6.373   4.235   6.754 -0.2296 -0.7277  0.3881
  171SAPE   H2R19335   6.373   4.147   6.686  0.8104 -2.9002  3.0224
  171SAPE   H2S19336   6.449   4.311   6.725 -0.2736 -0.7487  0.2144
  171SAPE    C319337   5.898   4.176   6.802  0.3929  0.0886 -0.5431
  171SAPE    HX19338   5.911   4.075   6.759 -0.6576 -2.0829  3.6553
  171SAPE    HY19339   5.794   4.202   6.775 -0.1013  1.1021  2.0059
  171SAPE   O3119340   5.909   4.164   6.947  0.1351 -0.4565  0.8854
  171SAPE   C3119341   5.881   4.273   7.022 -0.2361 -0.6873  0.2836
  171SAPE   O3219342   5.855   4.382   6.969 -0.5662 -0.5028 -0.7586
  171SAPE   C3219343   5.906   4.255   7.176 -0.3855 -0.7169  0.9258
  171SAPE   H2X19344   5.815   4.212   7.223 -1.4719 -0.0214 -0.4574
  171SAPE   H2Y19345   5.926   4.357   7.215  1.7518 -0.7559  0.0903
  171SAPE   C2319346   6.394   4.196   6.895  0.5571 -0.0474 -0.3684
  171SAPE   H3R19347   6.318   4.129   6.939  0.2989  1.2417  1.2385
  171SAPE   H3S19348   6.381   4.284   6.962 -0.2853 -0.0942 -0.4598
  171SAPE   C2419349   6.537   4.143   6.917  0.5407  0.7297 -0.0284
  171SAPE   H4R19350   6.540   4.053   6.852 -0.7204 -0.5704  1.6357
  171SAPE   H4S19351   6.522   4.099   7.017 -1.0955 -1.3582 -1.1255
  171SAPE   C2519352   6.658   4.231   6.903 -0.2106  0.2451  0.1847
  171SAPE   H5R19353   6.674   4.275   6.803  1.2379  1.9922  1.1178
  171SAPE   C2619354   6.739   4.270   7.002  0.6444 -0.5015 -0.6021
  171SAPE   H6R19355   6.816   4.346   6.986 -0.7707  1.1992  0.2309
  171SAPE   C2719356   6.724   4.225   7.148 -0.5823  0.5772  0.5632
  171SAPE   H7R19357   6.826   4.200   7.186  0.1691  1.5021 -0.7669
  171SAPE   H7S19358   6.677   4.124   7.144 -1.5987  1.0785 -0.5860
  171SAPE   C2819359   6.650   4.329   7.238  0.1086  0.1190 -0.2221
  171SAPE   H8R19360   6.545   4.348   7.209  0.4248  1.1426 -0.7503
  171SAPE   C2919361   6.708   4.399   7.343 -0.2718  0.5704  0.0557
  171SAPE   H9R19362   6.638   4.476   7.377 -0.6263  0.4560 -0.3989
  171SAPE  C21019363   6.842   4.392   7.398 -0.3554 -0.4956  0.6813
  171SAPE  H10R19364   6.913   4.470   7.362  1.1768 -1.6764  1.0461
  171SAPE  H10S19365   6.888   4.292   7.385  1.0795  0.2987 -0.8164
  171SAPE  C21119366   6.834   4.428   7.545 -0.1095  0.2503 -0.0495
  171SAPE  H11R19367   6.797   4.340   7.600  0.1802 -1.2524 -2.1516
  171SAPE  C21219368   6.860   4.543   7.610 -0.5195  1.1286  0.3163
  171SAPE  H12R19369   6.858   4.541   7.720  4.3534 -1.1949  0.6071
  171SAPE  C21319370   6.901   4.673   7.553 -0.2013  0.0306  0.8351
  171SAPE  H13R19371   6.833   4.701   7.469  0.6819 -0.6852 -0.1488
  171SAPE  H13S19372   7.002   4.667   7.507 -0.7467 -0.7788 -0.3132
  171SAPE  C21419373   6.882   4.787   7.653 -0.3334 -0.0132 -0.4890
  171SAPE  H14R19374   6.795   4.851   7.633  0.3797  1.6295  1.3173
  171SAPE  C21519375   6.959   4.806   7.762 -0.2526 -0.3255  0.0622
  171SAPE  H15R19376   6.951   4.900   7.819  1.1789  0.0149 -0.2472
  171SAPE  C21619377   7.082   4.732   7.808 -0.6013  0.1153  0.6240
  171SAPE  H16R19378   7.110   4.643   7.748 -0.3927 -0.5464  1.6781
  171SAPE  H16S19379   7.063   4.703   7.913 -0.7460 -1.7727  0.1114
  171SAPE  C21719380   7.207   4.821   7.804 -0.1650  0.2668 -0.4821
  171SAPE  H17R19381   7.235   4.875   7.711  1.7776  2.3735  1.2054
  171SAPE  H17S19382   7.294   4.754   7.822 -0.6555 -0.1133  0.5564
  171SAPE  C21819383   7.213   4.910   7.928  0.6876 -0.2424 -0.2035
  171SAPE  H18R19384   7.145   4.995   7.909 -1.2603 -1.4620  0.9319
  171SAPE  H18S19385   7.316   4.952   7.924  0.6088 -0.0341 -0.0606
  171SAPE  C21919386   7.200   4.843   8.069  0.2437  0.0507  0.1125
  171SAPE  H19R19387   7.261   4.749   8.065 -0.1940 -0.2043 -1.7509
  171SAPE  H19S19388   7.093   4.821   8.088  0.4451  0.4973  1.9284
  171SAPE  C22019389   7.230   4.936   8.188  0.5990 -0.3129  0.2619
  171SAPE  H20R19390   7.333   4.977   8.195  0.4762  0.2203 -0.8879
  171SAPE  H20S19391   7.211   4.864   8.271 -0.4295 -0.5498 -0.1659
  171SAPE  H20T19392   7.153   5.016   8.192 -1.9553 -2.6550  2.5085
  171SAPE   C3319393   6.025   4.169   7.208 -1.1005  0.4391 -0.9322
  171SAPE   H3X19394   6.026   4.082   7.139 -0.8488 -1.7138  1.6040
  171SAPE   H3Y19395   6.010   4.121   7.308 -1.8485  1.3556 -0.5855
  171SAPE   C3419396   6.156   4.248   7.208  0.2301 -0.3177  0.4542
  171SAPE   H4X19397   6.147   4.344   7.264  0.5505 -0.1411  0.2067
  171SAPE   H4Y19398   6.170   4.284   7.104  1.6166  0.2332  0.8031
  171SAPE   C3519399   6.290   4.185   7.253  0.5802  0.9364  0.0993
  171SAPE   H5X19400   6.376   4.235   7.203  2.0425  0.5992  2.1819
  171SAPE   H5Y19401   6.274   4.079   7.223 -1.4420  0.2598  3.1762
  171SAPE   C3619402   6.309   4.195   7.408 -0.4401 -0.7125 -0.2781
  171SAPE   H6X19403   6.219   4.166   7.466  0.5199  1.5235  2.5254
  171SAPE   H6Y19404   6.331   4.301   7.431 -1.7792 -0.2349 -1.0924
  171SAPE   C3719405   6.421   4.097   7.443 -0.3311  0.2910  0.4099
  171SAPE   H7X19406   6.518   4.137   7.406  0.8509 -2.2415  0.5328
  171SAPE   H7Y19407   6.398   4.010   7.377  1.5341 -0.1210  0.2555
  171SAPE   C3819408   6.439   4.068   7.590  0.0943  0.5724 -1.2840
  171SAPE   H8X19409   6.513   3.988   7.612 -0.3527  0.2929 -0.7760
  171SAPE   H8Y19410   6.346   4.031   7.639  0.1550 -0.6480 -2.0470
  171SAPE   C3919411   6.472   4.196   7.676 -0.2094  0.0365 -0.1108
  171SAPE   H9X19412   6.397   4.274   7.651 -0.8379 -0.6519 -0.3809
  171SAPE   H9Y19413   6.571   4.232   7.639  1.0972 -0.7711  2.3413
  171SAPE  C31019414   6.453   4.165   7.831  0.3516 -0.1219  0.8588
  171SAPE  H10X19415   6.516   4.077   7.858 -0.3710 -1.6062 -1.9645
  171SAPE  H10Y19416   6.348   4.148   7.863 -0.0339  0.1256 -0.2520
  171SAPE  C31119417   6.487   4.289   7.920  0.6246 -0.5721 -0.7819
  171SAPE  H11X19418   6.394   4.317   7.974 -1.7614 -2.6184 -3.4569
  171SAPE  H11Y19419   6.511   4.374   7.852 -1.9501 -2.0303 -3.8058
  171SAPE  C31219420   6.602   4.271   8.013 -1.1652  0.8743  0.6201
  171SAPE  H12X19421   6.699   4.276   7.959  1.1964 -0.8682  4.2761
  171SAPE  H12Y19422   6.602   4.168   8.056 -2.0228  1.1052  1.2109
  171SAPE  C31319423   6.598   4.363   8.134 -0.2328  0.1837 -0.7728
  171SAPE  H13X19424   6.499   4.340   8.180  0.1620 -1.8459 -0.8124
  171SAPE  H13Y19425   6.600   4.471   8.112 -0.7167  0.5021  0.6260
  171SAPE  C31419426   6.696   4.343   8.257 -0.1837 -0.4339  0.0646
  171SAPE  H14X19427   6.697   4.235   8.285  0.3514 -0.1649  1.1501
  171SAPE  H14Y19428   6.655   4.390   8.349  0.2075 -1.2525  0.6741
  171SAPE  C31519429   6.846   4.383   8.233 -0.4139  0.5476 -0.0512
  171SAPE  H15X19430   6.889   4.327   8.147  1.5889  0.3886  1.0025
  171SAPE  H15Y19431   6.902   4.352   8.324  0.8167  1.9739 -0.2781
  171SAPE  C31619432   6.881   4.534   8.216 -0.1433  0.8220  0.1103
  171SAPE  H16X19433   6.825   4.572   8.128 -0.7378  0.4050  0.2999
  171SAPE  H16Y19434   6.991   4.541   8.204 -0.2014  0.1274 -0.9569
  171SAPE  C31719435   6.847   4.622   8.334  0.4070 -0.2633  0.8346
  171SAPE  H17X19436   6.904   4.583   8.421 -0.2935  0.6117  1.7106
  171SAPE  H17Y19437   6.738   4.618   8.354  0.1540 -1.7698 -0.6541
  171SAPE  C31819438   6.875   4.771   8.315 -0.3127 -0.7692  0.7574
  171SAPE  H18X19439   6.984   4.786   8.301 -0.7903  2.2319 -0.3751
  171SAPE  H18Y19440   6.856   4.831   8.407  4.3586 -1.2537  2.3097
  171SAPE  H18Z19441   6.820   4.819   8.232  0.5929  0.1709  0.6815
  172SAPE     N19442   5.883   2.454   6.354 -0.0945 -1.0705  0.0704
  172SAPE   HN119443   5.957   2.384   6.377  2.4633  1.8308  1.3025
  172SAPE   HN219444   5.926   2.545   6.328  1.2340 -0.7463  3.0058
  172SAPE   HN319445   5.820   2.463   6.435  1.0326 -1.6008  1.0373
  172SAPE   C1219446   5.812   2.419   6.227 -0.0401  0.4158  0.1192
  172SAPE  H12A19447   5.783   2.313   6.240 -0.3985  0.6803  1.6727
  172SAPE  H12B19448   5.885   2.418   6.143  0.1250  0.0589  0.2622
  172SAPE   C1119449   5.695   2.520   6.216  0.0375  0.5555  0.5202
  172SAPE  H11A19450   5.646   2.497   6.118  3.1757 -0.0793 -1.0330
  172SAPE  H11B19451   5.738   2.622   6.203  2.5633 -0.5468 -0.2699
  172SAPE     P19452   5.452   2.478   6.302  0.2896  0.2173 -0.0580
  172SAPE   O1319453   5.392   2.562   6.193  0.1432 -0.8251  0.4022
  172SAPE   O1419454   5.438   2.335   6.280  0.5912  0.5922  0.2757
  172SAPE   O1219455   5.598   2.511   6.322 -0.1397 -0.8203  0.4766
  172SAPE   O1119456   5.391   2.518   6.446  0.0097 -0.3458 -0.0992
  172SAPE    C119457   5.394   2.424   6.552 -0.2451 -0.5371  0.0224
  172SAPE    HA19458   5.293   2.379   6.542  0.2396 -1.1742 -3.6410
  172SAPE    HB19459   5.487   2.364   6.555  0.3030 -0.0636 -3.2171
  172SAPE    C219460   5.389   2.489   6.694  0.1366 -0.0349 -0.8859
  172SAPE    HS19461   5.313   2.570   6.689 -0.6108 -0.7962 -2.6227
  172SAPE   O2119462   5.524   2.530   6.722 -0.2556  0.2484  0.3550
  172SAPE   C2119463   5.537   2.653   6.773  0.3100  0.5495  0.0860
  172SAPE   O2219464   5.452   2.734   6.796 -0.3318  0.0382  0.0843
  172SAPE   C2219465   5.683   2.668   6.817  0.0130 -0.0839  0.1098
  172SAPE   H2R19466   5.710   2.575   6.872 -0.3896 -0.9234 -1.0901
  172SAPE   H2S19467   5.734   2.676   6.719 -0.2000  0.7771  0.0579
  172SAPE    C319468   5.358   2.385   6.811  0.1055 -0.0925  0.0673
  172SAPE    HX19469   5.448   2.320   6.817 -0.9848 -1.6629  0.1457
  172SAPE    HY19470   5.274   2.318   6.782 -0.1834 -0.6307  1.9882
  172SAPE   O3119471   5.335   2.440   6.945 -0.3783  0.1258 -0.8257
  172SAPE   C3119472   5.214   2.478   6.961 -0.2322  0.1154  0.9289
  172SAPE   O3219473   5.126   2.473   6.870  0.2753 -0.2295  0.0491
  172SAPE   C3219474   5.195   2.515   7.110 -0.8718 -0.1666 -0.1358
  172SAPE   H2X19475   5.091   2.485   7.136 -0.5389  0.1688  1.7333
  172SAPE   H2Y19476   5.192   2.625   7.117  0.1510 -0.0426 -1.3323
  172SAPE   C2319477   5.693   2.790   6.908  0.2061  0.0414  0.3472
  172SAPE   H3R19478   5.638   2.881   6.874  0.8476 -0.0511 -0.9789
  172SAPE   H3S19479   5.800   2.815   6.892  0.7633 -1.4258  1.5248
  172SAPE   C2419480   5.655   2.752   7.050  0.4649 -0.7604 -0.1163
  172SAPE   H4R19481   5.720   2.669   7.085  1.3614 -0.1057 -0.2150
  172SAPE   H4S19482   5.546   2.736   7.067  0.3450  1.1047  1.0692
  172SAPE   C2519483   5.681   2.874   7.134  0.8276  0.4173  0.5834
  172SAPE   H5R19484   5.706   2.968   7.082 -0.2312  0.8425  0.8228
  172SAPE   C2619485   5.681   2.875   7.268  0.5527  0.2167  0.1438
  172SAPE   H6R19486   5.711   2.959   7.332 -0.3989  0.1704  0.6745
  172SAPE   C2719487   5.662   2.751   7.354  0.3615 -0.2383 -0.5598
  172SAPE   H7R19488   5.765   2.714   7.372  0.6920  0.3497 -1.1623
  172SAPE   H7S19489   5.608   2.668   7.303 -0.4173 -0.4656  0.6039
  172SAPE   C2819490   5.583   2.783   7.476 -0.0421  0.1062  0.4389
  172SAPE   H8R19491   5.477   2.808   7.464 -0.5978 -1.4752  1.6802
  172SAPE   C2919492   5.629   2.786   7.598 -0.6709 -0.3045  0.4563
  172SAPE   H9R19493   5.557   2.824   7.671 -1.3935  1.4928 -1.1099
  172SAPE  C21019494   5.774   2.761   7.638  0.4046  0.0552  0.5823
  172SAPE  H10R19495   5.840   2.849   7.624 -0.9571  1.3714  2.0180
  172SAPE  H10S19496   5.829   2.684   7.579  0.1466  1.5721 -1.7579
  172SAPE  C21119497   5.786   2.721   7.780  0.1593 -0.8339  0.0196
  172SAPE  H11R19498   5.800   2.616   7.811 -1.8020 -1.0453  0.2914
  172SAPE  C21219499   5.782   2.814   7.876 -0.1587 -0.2044  0.1107
  172SAPE  H12R19500   5.783   2.786   7.982 -0.6550  0.0532  0.1878
  172SAPE  C21319501   5.755   2.962   7.866  0.8898 -0.1594 -0.5323
  172SAPE  H13R19502   5.770   2.983   7.758 -2.0250  0.7499 -0.8633
  172SAPE  H13S19503   5.829   3.017   7.928 -1.2439 -0.1200  2.1666
  172SAPE  C21419504   5.617   3.013   7.903  0.0677 -0.1694 -0.2783
  172SAPE  H14R19505   5.550   3.048   7.824 -2.1748 -0.0831  1.5507
  172SAPE  C21519506   5.564   3.012   8.028 -0.2072  0.1797  0.3247
  172SAPE  H15R19507   5.461   3.051   8.033 -0.1107  0.4560  0.1638
  172SAPE  C21619508   5.622   2.979   8.158 -1.0394  0.5915  0.3550
  172SAPE  H16R19509   5.732   2.987   8.162 -0.7505 -1.8277 -0.6424
  172SAPE  H16S19510   5.599   2.872   8.179  1.4681 -0.0614  0.1163
  172SAPE  C21719511   5.567   3.071   8.262  0.0099  0.0328 -0.4347
  172SAPE  H17R19512   5.458   3.054   8.278  0.3036 -0.2106  1.4480
  172SAPE  H17S19513   5.567   3.177   8.227  0.9860  0.4081  0.6492
  172SAPE  C21819514   5.638   3.076   8.401  0.3604 -0.1457 -0.1478
  172SAPE  H18R19515   5.648   2.970   8.432  2.5823 -0.0021 -0.2119
  172SAPE  H18S19516   5.566   3.114   8.477 -1.7586 -1.3752 -1.4238
  172SAPE  C21919517   5.778   3.145   8.393 -0.4126 -0.2584  0.5392
  172SAPE  H19R19518   5.765   3.251   8.362 -1.3319 -0.9952 -1.7880
  172SAPE  H19S19519   5.838   3.097   8.313 -0.8164  0.8398 -0.4656
  172SAPE  C22019520   5.849   3.149   8.532 -0.5301 -0.1957  0.4100
  172SAPE  H20R19521   5.953   3.178   8.508 -1.3264  1.5651 -1.2239
  172SAPE  H20S19522   5.855   3.045   8.570  3.1594 -0.6182 -0.9619
  172SAPE  H20T19523   5.816   3.218   8.613  0.9817 -0.6113  1.4319
  172SAPE   C3319524   5.288   2.454   7.216 -0.6107 -0.3244  0.0766
  172SAPE   H3X19525   5.391   2.488   7.194 -0.6311  0.1424  0.7144
  172SAPE   H3Y19526   5.293   2.343   7.214  2.0313 -0.2544  0.0110
  172SAPE   C3419527   5.255   2.503   7.355  0.3473 -0.0218 -0.3936
  172SAPE   H4X19528   5.149   2.478   7.374  0.4695 -0.5767 -0.4151
  172SAPE   H4Y19529   5.260   2.614   7.359 -0.4203 -0.0055  0.4299
  172SAPE   C3519530   5.356   2.438   7.444 -0.4443 -0.4915  0.3358
  172SAPE   H5X19531   5.458   2.444   7.399  0.2346  0.8812  1.9457
  172SAPE   H5Y19532   5.327   2.331   7.453  0.3025 -0.5734  1.9272
  172SAPE   C3619533   5.355   2.494   7.590 -0.1852 -0.1691  0.7131
  172SAPE   H6X19534   5.261   2.452   7.632  0.9450 -1.7849  1.7771
  172SAPE   H6Y19535   5.336   2.603   7.596  0.8216  0.0659 -0.0907
  172SAPE   C3719536   5.470   2.459   7.683 -1.2974  0.0385 -1.1162
  172SAPE   H7X19537   5.561   2.507   7.642 -1.0380  2.6454  2.0382
  172SAPE   H7Y19538   5.486   2.349   7.678  1.3690  0.2130  1.0212
  172SAPE   C3819539   5.437   2.504   7.823  0.6105 -0.6875  0.1793
  172SAPE   H8X19540   5.343   2.456   7.856  0.3905 -1.0763 -1.0030
  172SAPE   H8Y19541   5.429   2.615   7.823 -1.4517 -0.7973 -1.1970
  172SAPE   C3919542   5.533   2.452   7.922 -0.0105 -0.2528 -0.2115
  172SAPE   H9X19543   5.639   2.468   7.890 -0.1699 -1.0989 -1.1945
  172SAPE   H9Y19544   5.534   2.341   7.925 -1.5910 -0.3473 -1.7291
  172SAPE  C31019545   5.510   2.511   8.057 -1.0956 -0.0218  0.4410
  172SAPE  H10X19546   5.405   2.485   8.081 -0.0791 -3.0316  2.1097
  172SAPE  H10Y19547   5.511   2.622   8.049 -0.6312  0.1310  2.2374
  172SAPE  C31119548   5.600   2.449   8.162  0.0006  0.4183 -0.1389
  172SAPE  H11X19549   5.706   2.483   8.156 -0.1448  0.6671 -2.0481
  172SAPE  H11Y19550   5.600   2.338   8.163  1.0306  0.3702 -1.9328
  172SAPE  C31219551   5.550   2.504   8.295  0.3369  0.3005 -0.2371
  172SAPE  H12X19552   5.440   2.493   8.291  0.2497  1.1504 -0.4135
  172SAPE  H12Y19553   5.571   2.613   8.301  1.1494  0.1077  0.8245
  172SAPE  C31319554   5.612   2.436   8.420  0.3867 -0.5553  0.8268
  172SAPE  H13X19555   5.720   2.458   8.433  0.2220  0.8532 -0.0921
  172SAPE  H13Y19556   5.594   2.326   8.421 -3.1550 -0.1102  1.3360
  172SAPE  C31419557   5.551   2.499   8.548  0.2574 -0.1772  0.0870
  172SAPE  H14X19558   5.444   2.470   8.564 -0.3241  1.7969  0.0910
  172SAPE  H14Y19559   5.532   2.609   8.553 -1.2865 -0.2694 -2.3359
  172SAPE  C31519560   5.625   2.463   8.677  0.9833  0.1558  0.6879
  172SAPE  H15X19561   5.729   2.494   8.654  0.1096  2.1635 -0.8934
  172SAPE  H15Y19562   5.627   2.353   8.692 -1.2575  0.1706  1.4361
  172SAPE  C31619563   5.554   2.519   8.804  0.8410  0.6686 -0.1546
  172SAPE  H16X19564   5.596   2.463   8.890  1.0151 -0.4383 -0.9355
  172SAPE  H16Y19565   5.447   2.492   8.797  1.2230 -0.9737  0.0869
  172SAPE  C31719566   5.580   2.665   8.830 -0.1384 -0.1932 -0.3542
  172SAPE  H17X19567   5.519   2.687   8.921 -1.1000 -1.8910 -0.5546
  172SAPE  H17Y19568   5.542   2.731   8.749 -1.3702 -0.2982  0.1245
  172SAPE  C31819569   5.727   2.702   8.856 -0.6053  0.4801 -0.5372
  172SAPE  H18X19570   5.789   2.670   8.769  0.5102  1.7958 -0.2572
  172SAPE  H18Y19571   5.765   2.656   8.950  0.4898  1.0408 -0.6953
  172SAPE  H18Z19572   5.727   2.812   8.866 -2.5759  0.4925 -0.2389
  173SOPE     N19573   0.009   6.063  11.241 -0.8099  0.9246  0.4454
  173SOPE   HN119574  -0.079   6.108  11.207 -2.1619 -2.4034 -0.9037
  173SOPE   HN219575  -0.006   6.029  11.338 -0.7149 -0.8396 -0.1264
  173SOPE   HN319576   0.088   6.129  11.229  0.7139 -0.8884  0.0705
  173SOPE   C1219577   0.037   5.933  11.167  0.0359  0.3611  0.1671
  173SOPE  H12A19578  -0.054   5.873  11.186  1.4794 -1.5696  1.2871
  173SOPE  H12B19579   0.123   5.883  11.217 -0.0688 -0.5871 -0.5652
  173SOPE   C1119580   0.065   5.960  11.024  0.6114 -0.2559  0.2442
  173SOPE  H11A19581  -0.029   6.001  10.984  0.4545  0.1163  0.9827
  173SOPE  H11B19582   0.075   5.871  10.958 -0.9340  1.2597 -2.1824
  173SOPE     P19583   0.320   5.997  10.985 -0.1605 -0.2319  0.0211
  173SOPE   O1319584   0.357   5.911  11.099  0.1591 -0.5673 -0.5167
  173SOPE   O1419585   0.412   6.111  10.952  0.7904 -0.5651  0.1328
  173SOPE   O1219586   0.170   6.049  11.004  0.6435 -0.3126 -0.7288
  173SOPE   O1119587   0.314   5.906  10.861 -0.3739 -0.0955  0.6626
  173SOPE    C119588   0.250   5.950  10.740 -0.1084 -0.4567  0.7321
  173SOPE    HA19589   0.162   6.016  10.756 -0.8732 -1.4824  0.8839
  173SOPE    HB19590   0.211   5.867  10.679  0.1447  1.0398 -1.5882
  173SOPE    C219591   0.363   6.019  10.651  0.0620 -0.3253 -0.4761
  173SOPE    HS19592   0.361   6.123  10.692 -0.4920 -1.2128  1.9622
  173SOPE   O2119593   0.320   6.027  10.519 -0.4184 -0.2074 -0.1350
  173SOPE   C2119594   0.395   6.082  10.426  0.2316 -0.0518 -0.3036
  173SOPE   O2219595   0.506   6.135  10.443 -0.4980 -0.1461  0.3207
  173SOPE   C2219596   0.334   6.066  10.294 -0.4715 -0.0197 -0.1133
  173SOPE   H2R19597   0.247   6.135  10.289  0.6911  1.6634  1.3979
  173SOPE   H2S19598   0.321   5.958  10.274  1.9820 -0.1017 -1.7781
  173SOPE    C319599   0.504   5.956  10.663 -1.0668  0.2439 -0.0904
  173SOPE    HX19600   0.525   5.906  10.760  0.6539 -0.8238 -0.9473
  173SOPE    HY19601   0.582   6.034  10.662  0.0324 -0.8261 -0.6762
  173SOPE   O3119602   0.541   5.865  10.555 -0.3978  0.4510  0.2366
  173SOPE   C3119603   0.520   5.737  10.579  0.6909 -0.0660  0.7143
  173SOPE   O3219604   0.474   5.692  10.684  0.4965 -0.0786  0.5445
  173SOPE   C3219605   0.548   5.647  10.459 -0.3181 -0.0681 -0.0739
  173SOPE   H2X19606   0.504   5.551  10.492 -0.6044  0.4857  1.2421
  173SOPE   H2Y19607   0.656   5.650  10.435 -0.6745  0.7142 -1.7605
  173SOPE   C2319608   0.438   6.106  10.186 -0.3607  0.1323 -0.1901
  173SOPE   H3R19609   0.525   6.037  10.176 -0.1877 -0.0708  2.1924
  173SOPE   H3S19610   0.480   6.209  10.192  0.4295 -0.2713  2.4935
  173SOPE   C2419611   0.383   6.096  10.049 -0.2057  0.4534 -0.2602
  173SOPE   H4R19612   0.363   5.988  10.032  1.4356 -0.1702  1.3491
  173SOPE   H4S19613   0.293   6.160  10.042  0.4514  1.4617  0.2272
  173SOPE   C2519614   0.476   6.134   9.937 -0.1958 -0.4124  0.4724
  173SOPE   H5R19615   0.496   6.242   9.957 -1.1931 -0.5872  2.7650
  173SOPE   H5S19616   0.569   6.075   9.945 -0.1592 -0.3368  0.6125
  173SOPE   C2619617   0.417   6.121   9.795  0.5597  0.0785  0.5916
  173SOPE   H6R19618   0.395   6.013   9.781  2.3807 -0.2617  0.0921
  173SOPE   H6S19619   0.323   6.181   9.797  0.1516 -0.5586  2.0324
  173SOPE   C2719620   0.510   6.173   9.679  1.0751  0.5919 -0.0592
  173SOPE   H7R19621   0.562   6.266   9.711 -0.5496  1.9701 -1.2982
  173SOPE   H7S19622   0.592   6.099   9.668  0.9688  0.3832  0.5361
  173SOPE   C2819623   0.441   6.210   9.545 -0.0606  0.1032  0.2627
  173SOPE   H8R19624   0.374   6.294   9.573 -0.8600  0.0931 -1.4924
  173SOPE   H8S19625   0.524   6.256   9.487  0.2198 -1.3208 -0.4922
  173SOPE   C2919626   0.374   6.094   9.472 -0.6078 -0.2725  0.1023
  173SOPE   H9119627   0.326   6.023   9.541  4.4851 -3.8557  0.5222
  173SOPE  C21019628   0.380   6.080   9.339  0.4988 -0.7498 -0.6935
  173SOPE  H10119629   0.305   6.013   9.295  0.4980 -1.3973  0.2683
  173SOPE  C21119630   0.454   6.180   9.251 -0.4108  0.7312 -0.0855
  173SOPE  H11R19631   0.564   6.177   9.259 -0.4928  0.1589  0.8519
  173SOPE  H11S19632   0.427   6.288   9.259 -2.0195  0.5399 -2.1418
  173SOPE  C21219633   0.399   6.140   9.112 -0.1785  0.4876 -0.3282
  173SOPE  H12R19634   0.297   6.097   9.109 -0.3832  0.8606  0.7995
  173SOPE  H12S19635   0.467   6.071   9.057  0.1461 -0.4734  1.2206
  173SOPE  C21319636   0.393   6.263   9.014  0.4239 -0.0644 -0.4655
  173SOPE  H13R19637   0.492   6.314   9.015  1.5279 -2.0799 -0.1271
  173SOPE  H13S19638   0.320   6.328   9.066  1.3996 -1.2871  2.7131
  173SOPE  C21419639   0.345   6.218   8.874  0.0528  0.4861 -0.1203
  173SOPE  H14R19640   0.278   6.130   8.881  0.3638  0.3045  0.6107
  173SOPE  H14S19641   0.428   6.170   8.818  0.1994 -0.8203  1.1716
  173SOPE  C21519642   0.268   6.332   8.802 -0.0048  0.0303 -0.3288
  173SOPE  H15R19643   0.340   6.401   8.753 -0.3577  0.0053 -0.8866
  173SOPE  H15S19644   0.195   6.378   8.872 -1.3099 -1.1856 -0.8228
  173SOPE  C21619645   0.186   6.272   8.692  0.3203  0.1734 -0.6169
  173SOPE  H16R19646   0.145   6.359   8.636  0.0473  1.6610  1.7400
  173SOPE  H16S19647   0.094   6.224   8.732  0.8056  0.7303  1.2772
  173SOPE  C21719648   0.257   6.171   8.601 -0.0459 -0.0475  0.3217
  173SOPE  H17R19649   0.281   6.087   8.670  1.2305  1.3232  1.6317
  173SOPE  H17S19650   0.350   6.213   8.558  1.2377 -1.5641  1.4979
  173SOPE  C21819651   0.163   6.119   8.485 -0.1785 -0.8658 -0.6477
  173SOPE  H18R19652   0.146   6.194   8.405  0.5114  1.4175  1.2586
  173SOPE  H18S19653   0.064   6.088   8.525 -0.5766 -0.7807 -1.5342
  173SOPE  H18T19654   0.218   6.035   8.435 -0.2655 -0.6356 -1.1373
  173SOPE   C3319655   0.492   5.714  10.336 -0.4397 -0.3639 -0.6097
  173SOPE   H3X19656   0.559   5.803  10.326 -1.0174  0.0254 -1.0520
  173SOPE   H3Y19657   0.387   5.747  10.346 -0.0486  0.9510 -0.6387
  173SOPE   C3419658   0.510   5.623  10.217 -0.3774  1.1545  0.3117
  173SOPE   H4X19659   0.467   5.523  10.238  0.0890  0.7325 -0.6950
  173SOPE   H4Y19660   0.621   5.613  10.213 -0.4039  0.2874  1.2425
  173SOPE   C3519661   0.454   5.679  10.090  0.7983 -0.7521  0.5486
  173SOPE   H5X19662   0.479   5.788  10.091  0.3924 -0.6576  1.0133
  173SOPE   H5Y19663   0.343   5.671  10.087  0.7578 -1.6025  2.6818
  173SOPE   C3619664   0.511   5.622   9.962  0.3381 -0.6077 -0.2092
  173SOPE   H6X19665   0.515   5.512   9.972  0.3947 -0.5319  0.6589
  173SOPE   H6Y19666   0.618   5.652   9.963 -0.3468  2.1472  2.1413
  173SOPE   C3719667   0.436   5.681   9.849  0.4918 -0.2458  0.7409
  173SOPE   H7X19668   0.484   5.779   9.833  1.5263 -0.6675  1.1793
  173SOPE   H7Y19669   0.326   5.696   9.863  0.1000 -2.8735  0.9533
  173SOPE   C3819670   0.449   5.613   9.713  0.3217  0.5643  0.3526
  173SOPE   H8X19671   0.395   5.517   9.717  0.1834  0.5403 -1.4638
  173SOPE   H8Y19672   0.558   5.592   9.703  0.6402  1.7184  1.1946
  173SOPE   C3919673   0.396   5.698   9.597  0.4432  0.0472 -0.3413
  173SOPE   H9X19674   0.460   5.789   9.594  1.0546 -0.3275  0.9563
  173SOPE   H9Y19675   0.295   5.739   9.621  0.3234 -0.9389  0.8832
  173SOPE  C31019676   0.396   5.628   9.459 -0.2923 -0.2670 -0.1566
  173SOPE  H10X19677   0.306   5.565   9.441  0.6365 -1.3082 -1.3614
  173SOPE  H10Y19678   0.488   5.566   9.467  1.7671  2.6641  0.5402
  173SOPE  C31119679   0.426   5.728   9.352 -0.7319  0.1894  0.1125
  173SOPE  H11X19680   0.526   5.775   9.365 -1.2632  1.2652  0.3670
  173SOPE  H11Y19681   0.362   5.819   9.348  0.8269  1.2746 -1.8053
  173SOPE  C31219682   0.435   5.662   9.206 -0.3240  0.1903  0.7582
  173SOPE  H12X19683   0.337   5.617   9.180  0.0442 -0.3671  0.3202
  173SOPE  H12Y19684   0.514   5.584   9.199  0.5538  0.9219  2.0306
  173SOPE  C31319685   0.461   5.759   9.084  0.5477  0.5677 -1.0687
  173SOPE  H13X19686   0.554   5.814   9.110  0.6185  0.2081 -0.5479
  173SOPE  H13Y19687   0.368   5.821   9.088 -0.6897 -1.2833  1.2934
  173SOPE  C31419688   0.489   5.685   8.955 -0.0097  0.4213 -0.0636
  173SOPE  H14X19689   0.414   5.603   8.953  0.8168 -0.5502  3.3618
  173SOPE  H14Y19690   0.589   5.637   8.965  0.0171  0.2963 -0.8356
  173SOPE  C31519691   0.493   5.784   8.835  0.6806  0.8575 -0.4193
  173SOPE  H15X19692   0.556   5.868   8.872 -0.7468  0.9263  2.0068
  173SOPE  H15Y19693   0.389   5.822   8.833  0.8915  1.4693 -0.0548
  173SOPE  C31619694   0.556   5.724   8.704  0.2622 -0.0084  0.4322
  173SOPE  H16X19695   0.483   5.644   8.678  0.4926 -0.4288  1.0459
  173SOPE  H16Y19696   0.650   5.666   8.719  1.5076  0.4399 -4.1577
  173SOPE  C31719697   0.579   5.833   8.593  0.3767  0.6385  0.5201
  173SOPE  H17X19698   0.681   5.870   8.614  0.8559 -0.9636  1.2288
  173SOPE  H17Y19699   0.512   5.919   8.613 -2.2289 -1.3497  0.9242
  173SOPE  C31819700   0.565   5.786   8.446  0.3362  0.4244  0.5614
  173SOPE  H18X19701   0.572   5.868   8.371  1.3272  0.8304  1.0857
  173SOPE  H18Y19702   0.464   5.744   8.427  0.1141  1.5848 -1.0561
  173SOPE  H18Z19703   0.644   5.715   8.416 -1.1262 -0.0509 -2.6055
  174SOPE     N19704   0.246   4.514  10.615 -0.3965 -0.1826  0.2653
  174SOPE   HN119705   0.232   4.552  10.711 -0.5508 -0.4927  0.3673
  174SOPE   HN219706   0.336   4.464  10.616  0.6994  1.6795 -0.1191
  174SOPE   HN319707   0.254   4.593  10.548 -0.5131 -0.3440  0.0615
  174SOPE   C1219708   0.122   4.440  10.563  0.2860  0.5957  0.2668
  174SOPE  H12A19709   0.152   4.377  10.477  1.2961  1.6303 -0.1709
  174SOPE  H12B19710   0.045   4.516  10.540 -1.6030 -0.8929  1.3872
  174SOPE   C1119711   0.059   4.358  10.673 -0.4400 -0.1013 -0.2516
  174SOPE  H11A19712   0.121   4.271  10.703 -0.6618 -0.1396  0.1063
  174SOPE  H11B19713  -0.034   4.303  10.649  0.0551 -1.9219  1.6704
  174SOPE     P19714  -0.108   4.511  10.834  0.0953 -0.0787 -0.0093
  174SOPE   O1319715  -0.086   4.610  10.942 -0.4852  0.3923  0.3133
  174SOPE   O1419716  -0.199   4.400  10.868 -0.2483 -0.3807 -0.1676
  174SOPE   O1219717   0.029   4.433  10.789  0.1117 -0.2789  0.9591
  174SOPE   O1119718  -0.148   4.578  10.691  0.7886  0.2256  0.6556
  174SOPE    C119719  -0.114   4.718  10.682  0.5768  0.4890 -0.1054
  174SOPE    HA19720  -0.107   4.750  10.576  1.7420 -0.2724 -0.2722
  174SOPE    HB19721  -0.023   4.742  10.741  0.8906 -2.1155  0.5972
  174SOPE    C219722  -0.234   4.804  10.737  0.6766  0.7898 -0.3241
  174SOPE    HS19723  -0.247   4.775  10.844  0.4446 -0.5723 -0.6929
  174SOPE   O2119724  -0.354   4.758  10.671 -0.0414 -0.1940  0.0643
  174SOPE   C2119725  -0.471   4.793  10.729  0.5642 -0.0939 -0.2446
  174SOPE   O2219726  -0.489   4.860  10.827 -0.2544 -0.4556 -0.1977
  174SOPE   C2219727  -0.599   4.747  10.656 -0.6511 -0.3221 -0.4007
  174SOPE   H2R19728  -0.671   4.702  10.728 -2.6738  2.1191 -0.7635
  174SOPE   H2S19729  -0.558   4.674  10.584 -0.4862  1.7662 -2.5423
  174SOPE    C319730  -0.202   4.958  10.725  0.3506 -0.2375 -0.1043
  174SOPE    HX19731  -0.139   4.992  10.810  1.1729 -1.9508  0.0192
  174SOPE    HY19732  -0.292   5.016  10.754 -0.5967 -1.6155 -0.1635
  174SOPE   O3119733  -0.136   4.987  10.602 -0.0397  0.3029  0.2289
  174SOPE   C3119734  -0.227   5.043  10.516  0.3132  0.0269 -0.1759
  174SOPE   O3219735  -0.337   5.089  10.545  0.1293 -0.1195 -0.2148
  174SOPE   C3219736  -0.142   5.075  10.390 -0.1595  0.7396  0.5231
  174SOPE   H2X19737  -0.139   4.980  10.331 -3.0947 -0.2002  1.6826
  174SOPE   H2Y19738  -0.035   5.092  10.414  0.1331  0.5013 -0.5456
  174SOPE   C2319739  -0.659   4.854  10.565  0.1194  1.0378 -0.3548
  174SOPE   H3R19740  -0.658   4.959  10.600  0.4494  0.4250  1.6153
  174SOPE   H3S19741  -0.766   4.826  10.574  0.8034 -1.1897  2.2606
  174SOPE   C2419742  -0.609   4.843  10.420  0.6240  0.5320  0.4967
  174SOPE   H4R19743  -0.498   4.840  10.424  0.6744  2.3539  3.1067
  174SOPE   H4S19744  -0.646   4.748  10.375  1.5495  0.1079  0.6079
  174SOPE   C2519745  -0.658   4.959  10.325  0.4135 -0.2782 -0.3267
  174SOPE   H5R19746  -0.769   4.959  10.316  0.1771  3.3803  0.9248
  174SOPE   H5S19747  -0.635   5.055  10.377 -0.4653  1.4564 -2.9050
  174SOPE   C2619748  -0.599   4.962  10.184  0.8854 -0.9601  0.5076
  174SOPE   H6R19749  -0.490   4.952  10.202  0.6659 -0.3610  2.5226
  174SOPE   H6S19750  -0.648   4.880  10.128  0.9780  0.2836 -1.4814
  174SOPE   C2719751  -0.641   5.091  10.108  0.4982  0.1428  0.2818
  174SOPE   H7R19752  -0.725   5.144  10.158  1.3295 -1.1069  3.1797
  174SOPE   H7S19753  -0.562   5.168  10.116 -1.3942  2.1713  0.5087
  174SOPE   C2819754  -0.682   5.063   9.960  0.0917 -0.0304 -0.6159
  174SOPE   H8R19755  -0.658   5.151   9.896 -0.3037  0.7405  0.2798
  174SOPE   H8S19756  -0.617   4.985   9.914  0.0103 -0.0896 -0.6304
  174SOPE   C2919757  -0.821   5.010   9.945  0.0272 -0.1324 -0.3024
  174SOPE   H9119758  -0.835   4.905   9.976 -3.0549  0.4210  0.5123
  174SOPE  C21019759  -0.929   5.085   9.898  0.4722 -0.0034 -0.4499
  174SOPE  H10119760  -1.031   5.044   9.900 -0.1658  1.5498 -0.4445
  174SOPE  C21119761  -0.924   5.225   9.839  0.1066 -0.6274  0.1468
  174SOPE  H11R19762  -0.826   5.275   9.853  1.0368 -2.2617 -0.2172
  174SOPE  H11S19763  -1.001   5.293   9.883  0.7225  0.0583  0.1771
  174SOPE  C21219764  -0.942   5.206   9.691  0.1937  0.8981  0.0004
  174SOPE  H12R19765  -1.019   5.134   9.657  1.8015  0.7739 -3.9638
  174SOPE  H12S19766  -0.854   5.153   9.647  0.0447 -0.8675  1.6653
  174SOPE  C21319767  -0.954   5.346   9.629  0.4329 -0.0109  0.5264
  174SOPE  H13R19768  -0.897   5.417   9.693  0.0035 -0.1483  1.0748
  174SOPE  H13S19769  -1.062   5.373   9.632  0.3871  0.3647 -1.9874
  174SOPE  C21419770  -0.923   5.346   9.478 -0.1455  0.5563  1.1110
  174SOPE  H14R19771  -0.814   5.328   9.473 -0.2501 -0.0524 -4.1528
  174SOPE  H14S19772  -0.939   5.450   9.442  2.2631  0.3567 -0.6971
  174SOPE  C21519773  -1.004   5.235   9.401 -0.3784  0.1453 -0.9745
  174SOPE  H15R19774  -1.107   5.240   9.442 -0.6887  0.1375 -1.7360
  174SOPE  H15S19775  -0.969   5.136   9.436 -2.0179 -0.1839 -0.1996
  174SOPE  C21619776  -0.997   5.243   9.254 -0.4781 -0.2737  0.4962
  174SOPE  H16R19777  -0.903   5.190   9.229  0.0808 -0.0182  1.9182
  174SOPE  H16S19778  -0.992   5.350   9.225 -2.6344 -0.1916  0.2663
  174SOPE  C21719779  -1.110   5.170   9.174 -0.4445  0.6143 -0.6164
  174SOPE  H17R19780  -1.204   5.224   9.198 -0.4902  0.8285 -1.2757
  174SOPE  H17S19781  -1.110   5.067   9.216 -0.0592  0.3348 -1.2824
  174SOPE  C21819782  -1.075   5.161   9.025 -0.5687  0.0902 -0.2812
  174SOPE  H18R19783  -0.985   5.099   9.007 -2.2176 -1.8982 -2.3126
  174SOPE  H18S19784  -1.051   5.265   8.992  0.9822 -0.0550  0.2991
  174SOPE  H18T19785  -1.153   5.113   8.962  0.1440 -0.1585 -0.9955
  174SOPE   C3319786  -0.178   5.196  10.304 -0.0548 -0.1445 -0.3596
  174SOPE   H3X19787  -0.142   5.285  10.360  0.8157 -1.2674  0.9280
  174SOPE   H3Y19788  -0.287   5.193  10.280  0.4534  0.7580 -3.1458
  174SOPE   C3419789  -0.124   5.190  10.166  0.4775 -0.1088  0.7625
  174SOPE   H4X19790  -0.016   5.166  10.180  0.3095 -1.6092 -0.2853
  174SOPE   H4Y19791  -0.134   5.290  10.118 -0.0953 -0.2415  0.6076
  174SOPE   C3519792  -0.174   5.075  10.075  0.3162  0.4087 -0.0197
  174SOPE   H5X19793  -0.284   5.078  10.066 -0.0540 -1.7138  2.5450
  174SOPE   H5Y19794  -0.152   4.984  10.134  1.3727  0.9518  0.4663
  174SOPE   C3619795  -0.102   5.067   9.938  0.1204  0.6995  0.1704
  174SOPE   H6X19796  -0.103   4.959   9.912 -0.2240  0.4414  1.1853
  174SOPE   H6Y19797   0.005   5.096   9.939  0.4878 -0.5881  0.0453
  174SOPE   C3719798  -0.157   5.159   9.829  0.0103  0.2139  0.0673
  174SOPE   H7X19799  -0.089   5.146   9.742  0.0515 -4.9643  0.5649
  174SOPE   H7Y19800  -0.143   5.266   9.855 -1.9215  1.0957 -2.1448
  174SOPE   C3819801  -0.306   5.137   9.818  0.3130  0.4454  0.1413
  174SOPE   H8X19802  -0.357   5.228   9.856 -1.0068  0.5673 -1.7746
  174SOPE   H8Y19803  -0.334   5.041   9.867  2.9394 -0.2728  0.3959
  174SOPE   C3919804  -0.336   5.140   9.667 -1.0237 -0.1449 -0.4004
  174SOPE   H9X19805  -0.270   5.071   9.612 -1.6930 -0.1068 -1.2739
  174SOPE   H9Y19806  -0.327   5.247   9.638 -2.5585 -0.6147 -2.9149
  174SOPE  C31019807  -0.475   5.094   9.622 -0.4687  0.0581  0.4030
  174SOPE  H10X19808  -0.549   5.137   9.693  0.4788  1.2438  0.7161
  174SOPE  H10Y19809  -0.476   4.985   9.645 -0.6047  0.3196  1.7517
  174SOPE  C31119810  -0.518   5.138   9.481 -0.6201 -0.0830  0.3011
  174SOPE  H11X19811  -0.488   5.242   9.456 -0.3623  0.2024  1.6981
  174SOPE  H11Y19812  -0.628   5.129   9.477 -0.5894 -0.4345  0.1933
  174SOPE  C31219813  -0.471   5.043   9.364 -0.0195 -0.4854  0.2633
  174SOPE  H12X19814  -0.499   4.936   9.377 -0.5925 -0.5511 -1.3417
  174SOPE  H12Y19815  -0.360   5.041   9.353 -0.2188 -0.7668 -2.0032
  174SOPE  C31319816  -0.535   5.080   9.228  0.1375 -0.2003  0.0937
  174SOPE  H13X19817  -0.523   5.190   9.216  3.9253 -0.5128 -0.2356
  174SOPE  H13Y19818  -0.642   5.055   9.243 -0.5592  1.1230 -2.0956
  174SOPE  C31419819  -0.489   5.002   9.109  0.3492 -0.5127 -0.0165
  174SOPE  H14X19820  -0.532   4.900   9.096  0.0066 -0.3685 -0.0499
  174SOPE  H14Y19821  -0.379   4.987   9.114  0.7034  1.2219 -1.5497
  174SOPE  C31519822  -0.535   5.059   8.974  0.0808  1.2374  0.6446
  174SOPE  H15X19823  -0.493   5.002   8.888 -0.8178 -0.4853  1.2975
  174SOPE  H15Y19824  -0.507   5.167   8.968  0.6342  1.0165 -1.2877
  174SOPE  C31619825  -0.688   5.050   8.944 -0.3568 -0.6519 -0.6336
  174SOPE  H16X19826  -0.729   5.147   8.979  0.1497 -0.1388 -1.4245
  174SOPE  H16Y19827  -0.727   4.963   9.001 -1.1166  1.2099  1.8541
  174SOPE  C31719828  -0.725   5.055   8.793 -0.4816  0.7452  0.5905
  174SOPE  H17X19829  -0.698   4.961   8.740 -2.1719  1.4720 -1.7493
  174SOPE  H17Y19830  -0.675   5.138   8.738 -0.2057  0.0359 -0.2617
  174SOPE  C31819831  -0.875   5.061   8.760 -0.1017 -0.2318 -0.0091
  174SOPE  H18X19832  -0.930   4.988   8.823  0.7930  1.0023  2.2810
  174SOPE  H18Y19833  -0.897   5.056   8.651 -0.5836 -0.4402  0.0948
  174SOPE  H18Z19834  -0.907   5.156   8.807  0.3119 -0.1090  0.0284
  175SOPE     N19835   2.462   1.353  10.864  0.4341  0.7181  1.1517
  175SOPE   HN119836   2.466   1.258  10.821 -0.5501  0.2929  1.9605
  175SOPE   HN219837   2.537   1.356  10.936 -0.6799 -2.1846  2.5896
  175SOPE   HN319838   2.371   1.360  10.912  0.2591  0.0677  0.9204
  175SOPE   C1219839   2.464   1.466  10.766  0.3345 -0.9895  0.0929
  175SOPE  H12A19840   2.555   1.472  10.704 -0.6340  0.7064 -1.2452
  175SOPE  H12B19841   2.448   1.557  10.827 -1.7557 -2.1546  1.4428
  175SOPE   C1119842   2.345   1.466  10.665  0.1266 -0.5386  0.4003
  175SOPE  H11A19843   2.375   1.386  10.594 -0.4438 -0.8082  0.4604
  175SOPE  H11B19844   2.333   1.567  10.620  1.3544 -0.1700  0.8475
  175SOPE     P19845   2.078   1.425  10.673 -0.4674  0.4060 -0.3585
  175SOPE   O1319846   2.023   1.562  10.666 -0.5664  0.5383  0.3779
  175SOPE   O1419847   1.999   1.335  10.760  0.2601  0.0111  0.1140
  175SOPE   O1219848   2.224   1.429  10.733  0.4068 -0.1985 -0.2963
  175SOPE   O1119849   2.099   1.363  10.529  0.1179  0.0059 -0.6268
  175SOPE    C119850   2.112   1.216  10.531 -0.2524 -0.0879 -0.1012
  175SOPE    HA19851   2.047   1.163  10.604  0.0802 -1.7745 -0.9818
  175SOPE    HB19852   2.219   1.189  10.546 -0.6654 -1.6150  0.2539
  175SOPE    C219853   2.081   1.139  10.398 -0.1345 -0.1704 -0.0085
  175SOPE    HS19854   2.138   1.044  10.407  0.2286  0.1310  1.0227
  175SOPE   O2119855   2.136   1.194  10.280  0.2012  0.4699 -0.1006
  175SOPE   C2119856   2.268   1.212  10.266 -0.1226 -0.2839 -0.4248
  175SOPE   O2219857   2.361   1.179  10.340  0.7469  0.1499  0.9148
  175SOPE   C2219858   2.290   1.284  10.129 -0.1158  0.2580  0.0504
  175SOPE   H2R19859   2.400   1.291  10.113  0.1665  1.3328  2.1127
  175SOPE   H2S19860   2.240   1.383  10.141 -0.4036 -0.0306  1.3384
  175SOPE    C319861   1.928   1.111  10.381 -0.5965 -0.4144  1.1185
  175SOPE    HX19862   1.872   1.193  10.431  0.9899  0.1285  2.0704
  175SOPE    HY19863   1.892   1.024  10.440  0.3906 -0.8439  1.1193
  175SOPE   O3119864   1.900   1.088  10.237  0.2796 -0.3081  0.1792
  175SOPE   C3119865   1.849   1.198  10.172 -0.2699  0.7371  0.0807
  175SOPE   O3219866   1.807   1.298  10.226 -0.2683  0.3588 -0.2840
  175SOPE   C3219867   1.836   1.165  10.033  0.3525 -0.6581 -0.4886
  175SOPE   H2X19868   1.780   1.069  10.036  1.3013 -1.1882  0.8652
  175SOPE   H2Y19869   1.932   1.127   9.993  0.0828 -1.9137  0.0050
  175SOPE   C2319870   2.226   1.204  10.017  0.5146 -0.6402  0.4926
  175SOPE   H3R19871   2.116   1.196  10.034  0.3403 -1.1836 -0.7824
  175SOPE   H3S19872   2.261   1.099  10.020 -0.0667 -0.9309 -1.4033
  175SOPE   C2419873   2.250   1.264   9.880 -0.2983  0.7303  0.2743
  175SOPE   H4R19874   2.247   1.375   9.881 -0.1432  0.7742  3.4936
  175SOPE   H4S19875   2.356   1.238   9.860 -0.2886 -0.2447  1.4600
  175SOPE   C2519876   2.155   1.209   9.767 -0.0125 -0.9529  0.0425
  175SOPE   H5R19877   2.167   1.098   9.763  3.5966 -0.6507 -2.3833
  175SOPE   H5S19878   2.056   1.225   9.814 -1.1858 -3.1236 -1.5440
  175SOPE   C2619879   2.169   1.278   9.631 -0.1188 -0.3056 -0.4159
  175SOPE   H6R19880   2.154   1.384   9.659  0.2331 -0.1180 -0.9171
  175SOPE   H6S19881   2.274   1.268   9.594 -0.1800 -1.8210 -0.2448
  175SOPE   C2719882   2.071   1.215   9.538  0.4103 -0.0496 -0.4768
  175SOPE   H7R19883   2.107   1.110   9.531 -1.7354 -1.0589  1.9666
  175SOPE   H7S19884   1.970   1.198   9.579  0.2477 -1.2525 -1.3266
  175SOPE   C2819885   2.070   1.285   9.400 -0.4935  0.0837 -0.1157
  175SOPE   H8R19886   2.029   1.387   9.412  0.1394  0.3910 -0.5060
  175SOPE   H8S19887   2.178   1.294   9.375 -0.3571  0.2968  0.5408
  175SOPE   C2919888   1.981   1.222   9.300 -0.6594  0.2142  0.1953
  175SOPE   H9119889   1.873   1.227   9.316 -0.5564  2.2184  0.4583
  175SOPE  C21019890   2.032   1.162   9.193  0.5251 -0.2942 -0.3316
  175SOPE  H10119891   1.965   1.099   9.133  1.1323 -1.3588  0.0988
  175SOPE  C21119892   2.177   1.147   9.144 -0.1261 -0.0456  0.5231
  175SOPE  H11R19893   2.223   1.058   9.190  1.9354 -0.8725 -2.8027
  175SOPE  H11S19894   2.240   1.237   9.159  1.4309 -1.4080  2.6775
  175SOPE  C21219895   2.181   1.108   8.991 -0.4064  0.7926 -0.6990
  175SOPE  H12R19896   2.114   1.184   8.946 -1.2634  1.2105  1.1738
  175SOPE  H12S19897   2.139   1.006   8.975  1.3142 -0.4406  1.9143
  175SOPE  C21319898   2.318   1.111   8.927 -0.1104 -0.2941 -0.4487
  175SOPE  H13R19899   2.387   1.028   8.956  0.4286  0.0212 -0.8070
  175SOPE  H13S19900   2.366   1.203   8.966 -1.7209  0.0212  0.8682
  175SOPE  C21419901   2.308   1.134   8.775 -0.3763  0.2344 -0.1394
  175SOPE  H14R19902   2.398   1.194   8.749 -0.4295 -0.8799 -3.3119
  175SOPE  H14S19903   2.219   1.196   8.751 -0.4338 -0.1813 -1.0396
  175SOPE  C21519904   2.295   1.013   8.684  0.8125  0.6009 -0.2765
  175SOPE  H15R19905   2.396   0.968   8.671  0.1323 -0.8597 -0.6037
  175SOPE  H15S19906   2.275   1.041   8.578  0.6886 -1.4310 -0.8317
  175SOPE  C21619907   2.185   0.917   8.729  0.2265  0.1588 -0.2902
  175SOPE  H16R19908   2.097   0.972   8.767  2.1304 -0.5363  6.3735
  175SOPE  H16S19909   2.226   0.868   8.820 -0.1558  0.6499  0.1505
  175SOPE  C21719910   2.162   0.811   8.624  0.4959 -0.6532 -0.1118
  175SOPE  H17R19911   2.258   0.762   8.596 -0.8496 -4.5810  1.4602
  175SOPE  H17S19912   2.113   0.858   8.536  2.5636 -1.3215 -1.6934
  175SOPE  C21819913   2.058   0.708   8.677 -0.2459  0.7303 -0.1150
  175SOPE  H18R19914   2.039   0.632   8.598  1.9429  1.4166 -1.3846
  175SOPE  H18S19915   1.956   0.745   8.702 -0.8632  0.2880 -1.8522
  175SOPE  H18T19916   2.088   0.653   8.769 -2.4512  0.6462  0.6140
  175SOPE   C3319917   1.759   1.256   9.943 -0.6081 -0.1669  0.0899
  175SOPE   H3X19918   1.799   1.359   9.954  1.5080 -0.8498 -0.8208
  175SOPE   H3Y19919   1.653   1.260   9.978 -0.3180 -0.7040  1.0932
  175SOPE   C3419920   1.772   1.219   9.793 -0.2929  0.9018  0.0447
  175SOPE   H4X19921   1.752   1.114   9.764  0.4409  1.2291 -1.7621
  175SOPE   H4Y19922   1.871   1.257   9.760 -0.4138  2.4391  1.3227
  175SOPE   C3519923   1.658   1.289   9.715 -0.0114  0.3711 -0.4072
  175SOPE   H5X19924   1.667   1.398   9.732 -0.3667  0.4784 -0.8677
  175SOPE   H5Y19925   1.561   1.244   9.745 -1.4351  1.8023 -2.5618
  175SOPE   C3619926   1.663   1.264   9.560  0.5832 -0.2421 -0.1056
  175SOPE   H6X19927   1.680   1.156   9.537 -0.5882 -0.5302  0.3194
  175SOPE   H6Y19928   1.755   1.319   9.534  1.1261  1.0625  3.9845
  175SOPE   C3719929   1.543   1.328   9.490  0.0801  0.9881  0.1656
  175SOPE   H7X19930   1.545   1.435   9.520  2.4290  1.0060  0.1899
  175SOPE   H7Y19931   1.451   1.282   9.531 -0.0245  1.1989  0.1649
  175SOPE   C3819932   1.537   1.302   9.338 -0.8300 -0.2160  0.0551
  175SOPE   H8X19933   1.636   1.327   9.294 -0.1734 -2.1602  0.3559
  175SOPE   H8Y19934   1.467   1.369   9.283  1.2387  0.6298 -1.6967
  175SOPE   C3919935   1.511   1.154   9.296  0.4120 -0.0747  0.3059
  175SOPE   H9X19936   1.426   1.107   9.350  1.3133 -0.5776  1.3317
  175SOPE   H9Y19937   1.606   1.110   9.333  1.4074  1.6166 -0.1514
  175SOPE  C31019938   1.503   1.127   9.148  0.4903  0.1784 -0.2406
  175SOPE  H10X19939   1.404   1.167   9.117  0.5082  0.8509  0.5365
  175SOPE  H10Y19940   1.500   1.017   9.131 -0.6332  0.1270  0.2363
  175SOPE  C31119941   1.618   1.180   9.074 -0.3722  0.3920  0.1187
  175SOPE  H11X19942   1.710   1.124   9.103 -0.2476  2.4104  4.2251
  175SOPE  H11Y19943   1.639   1.287   9.092 -1.4643  0.1859  3.1045
  175SOPE  C31219944   1.602   1.150   8.922  0.2156 -0.1246  0.2651
  175SOPE  H12X19945   1.528   1.204   8.860  2.0882  1.1492 -0.9857
  175SOPE  H12Y19946   1.574   1.044   8.904 -1.3617 -0.3745  3.4844
  175SOPE  C31319947   1.731   1.192   8.847  0.6821 -0.2222  0.2017
  175SOPE  H13X19948   1.819   1.136   8.886  0.5153 -0.1615  0.6667
  175SOPE  H13Y19949   1.751   1.301   8.862  0.2420 -0.1876  0.5654
  175SOPE  C31419950   1.719   1.166   8.697  0.3361  0.2860  0.1237
  175SOPE  H14X19951   1.627   1.219   8.665  0.5928  1.3348  1.0401
  175SOPE  H14Y19952   1.702   1.057   8.682  1.6347 -0.0052  0.6394
  175SOPE  C31519953   1.836   1.206   8.615 -1.2814  0.1121  0.3641
  175SOPE  H15X19954   1.926   1.143   8.633 -0.0523  1.1959 -1.6007
  175SOPE  H15Y19955   1.872   1.309   8.632  1.3531 -0.5738 -0.5585
  175SOPE  C31619956   1.815   1.193   8.459  0.3750 -0.0420 -0.2977
  175SOPE  H16X19957   1.809   1.297   8.420 -0.3788 -0.6731 -1.9536
  175SOPE  H16Y19958   1.709   1.167   8.442 -0.5325  0.8807  3.1787
  175SOPE  C31719959   1.909   1.098   8.381 -0.4286  0.2206  0.4493
  175SOPE  H17X19960   2.015   1.129   8.392 -0.5789  1.8045 -1.7467
  175SOPE  H17Y19961   1.878   1.113   8.275 -0.2146  1.9485  0.5888
  175SOPE  C31819962   1.880   0.956   8.426  0.1985 -0.1820 -0.2770
  175SOPE  H18X19963   1.770   0.941   8.423  0.1781  0.1206 -1.0718
  175SOPE  H18Y19964   1.924   0.942   8.528  0.0042 -0.3798 -0.2205
  175SOPE  H18Z19965   1.937   0.889   8.358 -1.8546 -2.2633 -0.0944
  176SOPE     N19966   1.392   1.588  11.158  0.3359  0.8050  0.1941
  176SOPE   HN119967   1.373   1.491  11.191  0.2700  1.9473  3.8707
  176SOPE   HN219968   1.409   1.633  11.250 -0.8077 -0.1877  0.9145
  176SOPE   HN319969   1.308   1.619  11.106  1.0230 -3.5938 -4.3217
  176SOPE   C1219970   1.509   1.592  11.066 -0.1881  0.1356  0.0547
  176SOPE  H12A19971   1.578   1.513  11.104  1.3857 -0.4893 -3.6906
  176SOPE  H12B19972   1.560   1.690  11.070 -0.7503  0.5456 -1.7831
  176SOPE   C1119973   1.468   1.562  10.924 -0.1493 -0.2438 -0.6862
  176SOPE  H11A19974   1.443   1.454  10.912 -1.1882  0.1220 -2.0977
  176SOPE  H11B19975   1.555   1.593  10.863  1.0856  1.0630  1.6026
  176SOPE     P19976   1.355   1.773  10.805  0.1186  0.0039  0.1088
  176SOPE   O1319977   1.436   1.885  10.862 -0.0243 -0.0835 -0.3166
  176SOPE   O1419978   1.214   1.805  10.777  0.5755 -0.1124 -0.1091
  176SOPE   O1219979   1.353   1.644  10.886 -0.0858  0.0479 -0.4183
  176SOPE   O1119980   1.428   1.734  10.668  0.2392  0.5578  0.1896
  176SOPE    C119981   1.392   1.608  10.607 -0.1489 -0.2441  0.2586
  176SOPE    HA19982   1.337   1.537  10.672 -1.1612 -0.0969 -0.4141
  176SOPE    HB19983   1.487   1.556  10.582 -1.4268 -3.3127  1.3558
  176SOPE    C219984   1.305   1.628  10.476 -0.1610  0.2664 -0.4834
  176SOPE    HS19985   1.295   1.530  10.425 -0.4089  0.1222 -0.1595
  176SOPE   O2119986   1.365   1.722  10.389  0.2626  0.4273  0.3471
  176SOPE   C2119987   1.474   1.686  10.330 -0.5532  0.5910 -0.2215
  176SOPE   O2219988   1.521   1.573  10.328 -0.3296 -0.4909  0.1507
  176SOPE   C2219989   1.519   1.798  10.249  0.6735 -0.0037  0.4095
  176SOPE   H2R19990   1.598   1.851  10.307  1.3657 -0.2464 -0.3038
  176SOPE   H2S19991   1.429   1.860  10.229  1.5457  1.8386  1.8253
  176SOPE    C319992   1.159   1.671  10.501 -0.0738  0.5776 -0.7194
  176SOPE    HX19993   1.150   1.764  10.560 -0.5894 -0.3477  0.6989
  176SOPE    HY19994   1.112   1.587  10.557 -2.3125  1.0964 -1.6927
  176SOPE   O3119995   1.086   1.685  10.379  0.0817 -0.2903 -0.1856
  176SOPE   C3119996   1.085   1.812  10.327  0.0083  0.1977  0.3669
  176SOPE   O3219997   1.129   1.910  10.379 -0.4150  0.0268  0.6929
  176SOPE   C3219998   1.010   1.810  10.191  0.6554  0.2289  0.6600
  176SOPE   H2X19999   0.903   1.797  10.218  0.2249  1.2901 -0.4449
  176SOPE   H2Y20000   1.037   1.720  10.132 -2.3819 -0.6239  0.4368
  176SOPE   C2320001   1.576   1.772  10.105  0.3222 -0.1899 -0.5548
  176SOPE   H3R20002   1.635   1.678  10.111  0.6444 -0.0147 -0.8937
  176SOPE   H3S20003   1.655   1.845  10.078  1.5095 -1.6701 -1.2184
  176SOPE   C2420004   1.468   1.761   9.995 -0.1825 -0.1904  0.3839
  176SOPE   H4R20005   1.386   1.688  10.014 -1.4059  0.7730 -0.9591
  176SOPE   H4S20006   1.409   1.855   9.991  1.2868  0.7158 -1.4015
  176SOPE   C2520007   1.535   1.725   9.862  0.1168 -0.1715 -0.1432
  176SOPE   H5R20008   1.615   1.797   9.832 -0.3207  0.5944  0.4911
  176SOPE   H5S20009   1.591   1.631   9.879  0.0628  0.0929  1.6903
  176SOPE   C2620010   1.439   1.705   9.742  0.2861  0.6383 -0.0136
  176SOPE   H6R20011   1.495   1.671   9.652 -0.0194 -1.1030  0.4255
  176SOPE   H6S20012   1.382   1.615   9.771 -4.0665  2.3793 -2.2570
  176SOPE   C2720013   1.337   1.820   9.715 -0.4607  0.3872 -0.0194
  176SOPE   H7R20014   1.267   1.845   9.798 -2.6417 -0.4578 -1.5186
  176SOPE   H7S20015   1.392   1.914   9.691  0.9459 -0.5365 -0.5743
  176SOPE   C2820016   1.249   1.787   9.596 -0.1277 -0.1131  0.6247
  176SOPE   H8R20017   1.189   1.695   9.607 -0.1275 -0.4033 -1.3493
  176SOPE   H8S20018   1.158   1.849   9.604 -0.3241 -0.5361  1.9334
  176SOPE   C2920019   1.314   1.815   9.459  0.0654 -0.5293 -0.6195
  176SOPE   H9120020   1.362   1.913   9.444  0.4120 -0.8804 -1.9213
  176SOPE  C21020021   1.312   1.738   9.350  0.1850 -0.1888 -0.1942
  176SOPE  H10120022   1.349   1.786   9.259  0.9510  1.0305  0.7248
  176SOPE  C21120023   1.263   1.598   9.335 -0.2689  0.6023  0.2097
  176SOPE  H11R20024   1.276   1.557   9.437  0.6517  1.6150  0.5256
  176SOPE  H11S20025   1.321   1.543   9.257 -0.8525  0.7151 -0.3175
  176SOPE  C21220026   1.112   1.579   9.283 -0.1854  0.5309 -0.5397
  176SOPE  H12R20027   1.049   1.623   9.363  1.1540  0.9967  0.2956
  176SOPE  H12S20028   1.092   1.470   9.281  1.1643  0.2659 -1.4097
  176SOPE  C21320029   1.087   1.634   9.147 -0.0474 -0.2110 -0.1507
  176SOPE  H13R20030   1.167   1.613   9.073  0.3339  3.0529 -0.7980
  176SOPE  H13S20031   1.102   1.744   9.146  3.0481 -0.4605  2.5406
  176SOPE  C21420032   0.948   1.592   9.091  0.1847  0.3544 -0.7017
  176SOPE  H14R20033   0.875   1.614   9.172  0.0914  1.4839 -1.0834
  176SOPE  H14S20034   0.936   1.481   9.084  0.5385  0.2303  0.4179
  176SOPE  C21520035   0.900   1.666   8.967 -0.1782  0.3077  0.3385
  176SOPE  H15R20036   0.918   1.774   8.985  2.0979  0.1267 -0.5838
  176SOPE  H15S20037   0.794   1.642   8.943  0.2145  0.1008 -1.3206
  176SOPE  C21620038   0.995   1.637   8.846 -0.5221 -0.1856 -0.2434
  176SOPE  H16R20039   0.986   1.527   8.834 -2.6552 -0.0800 -0.1188
  176SOPE  H16S20040   1.098   1.668   8.873 -1.0138 -0.3355  1.9695
  176SOPE  C21720041   0.956   1.702   8.716 -0.2480 -0.2624  0.0828
  176SOPE  H17R20042   1.016   1.667   8.629  0.6037  1.4100 -0.0427
  176SOPE  H17S20043   0.976   1.810   8.735  0.3010 -0.8067  3.1862
  176SOPE  C21820044   0.808   1.696   8.679 -0.1946 -0.2214 -0.2281
  176SOPE  H18R20045   0.784   1.590   8.657 -3.2459  0.1192  0.9372
  176SOPE  H18S20046   0.787   1.758   8.590  1.4354  0.6307 -0.0451
  176SOPE  H18T20047   0.743   1.730   8.762  0.5316  2.1145 -0.5521
  176SOPE   C3320048   1.045   1.930  10.103  0.2914 -0.0311  0.8288
  176SOPE   H3X20049   1.151   1.919  10.074  0.0064 -1.4387  0.2607
  176SOPE   H3Y20050   1.039   2.025  10.161  1.9205 -0.3353  1.5387
  176SOPE   C3420051   0.960   1.945   9.979 -0.1647 -0.4005 -0.2140
  176SOPE   H4X20052   0.853   1.935  10.005  0.4377 -3.1368  1.6748
  176SOPE   H4Y20053   0.981   1.855   9.918 -0.5083 -1.5281  1.2974
  176SOPE   C3520054   1.016   2.067   9.899  0.0082 -0.6436  0.3894
  176SOPE   H5X20055   1.123   2.045   9.882  0.6201  0.7417  2.1550
  176SOPE   H5Y20056   1.006   2.160   9.959 -1.6413 -0.5845  0.0617
  176SOPE   C3620057   0.945   2.078   9.760  0.5420 -0.0543 -0.0740
  176SOPE   H6X20058   0.838   2.110   9.768  0.5021  0.3588 -1.8639
  176SOPE   H6Y20059   0.944   1.985   9.699  1.8110  1.3203 -2.3224
  176SOPE   C3720060   1.005   2.191   9.666  0.9519  0.3366  0.5365
  176SOPE   H7X20061   1.008   2.284   9.726  0.6750  0.2438  0.6972
  176SOPE   H7Y20062   0.945   2.191   9.572  0.8917  0.9204  0.5701
  176SOPE   C3820063   1.149   2.158   9.614  0.5921  0.2118 -0.2854
  176SOPE   H8X20064   1.156   2.056   9.568 -1.4388 -0.8153  1.5183
  176SOPE   H8Y20065   1.212   2.167   9.705  0.1964  0.6883 -0.0557
  176SOPE   C3920066   1.206   2.263   9.529 -0.1746 -0.0307  0.3616
  176SOPE   H9X20067   1.313   2.235   9.516 -0.1771  0.1439 -0.0302
  176SOPE   H9Y20068   1.203   2.358   9.586  0.9599 -1.1429  2.4202
  176SOPE  C31020069   1.140   2.280   9.391 -0.5202  0.2975 -0.4501
  176SOPE  H10X20070   1.186   2.373   9.353 -0.6557 -0.2798 -2.0918
  176SOPE  H10Y20071   1.029   2.287   9.400 -0.4805 -0.4302  0.9618
  176SOPE  C31120072   1.180   2.161   9.292 -0.9758 -1.5853  0.3508
  176SOPE  H11X20073   1.171   2.069   9.354  0.3925 -0.7183  1.9369
  176SOPE  H11Y20074   1.289   2.177   9.276 -1.2701  0.3398 -0.0070
  176SOPE  C31220075   1.105   2.149   9.163 -0.1448  0.0233  0.0132
  176SOPE  H12X20076   1.109   2.250   9.115  2.2271 -0.6430 -1.3658
  176SOPE  H12Y20077   1.000   2.122   9.189 -0.2654  0.2174 -0.2577
  176SOPE  C31320078   1.165   2.051   9.060 -0.1249  0.2932 -0.2227
  176SOPE  H13X20079   1.118   1.953   9.083  1.7350 -0.6443 -0.2189
  176SOPE  H13Y20080   1.273   2.038   9.080 -0.3603 -0.5346  0.6027
  176SOPE  C31420081   1.140   2.076   8.917 -0.0224  0.1289  0.2185
  176SOPE  H14X20082   1.186   2.000   8.850 -1.6660 -0.5317 -0.2021
  176SOPE  H14Y20083   1.184   2.176   8.893 -0.2775  0.2659  0.3244
  176SOPE  C31520084   0.998   2.103   8.877 -0.0136  0.0959  0.7771
  176SOPE  H15X20085   0.936   2.165   8.945 -1.8056  2.1990 -2.5028
  176SOPE  H15Y20086   0.954   2.001   8.878 -1.9686  0.8818  1.2314
  176SOPE  C31620087   0.994   2.165   8.738  0.0513 -0.4662  0.5497
  176SOPE  H16X20088   1.033   2.088   8.668 -0.4247 -1.0957  0.9680
  176SOPE  H16Y20089   1.065   2.250   8.731 -1.2429  0.4943 -3.5087
  176SOPE  C31720090   0.860   2.213   8.685  0.1443  0.4671  0.9004
  176SOPE  H17X20091   0.885   2.271   8.593  2.7689 -1.0572  0.5327
  176SOPE  H17Y20092   0.833   2.289   8.761  0.3915  1.4488  0.0236
  176SOPE  C31820093   0.764   2.099   8.677 -0.5327  0.0337  0.1741
  176SOPE  H18X20094   0.748   2.054   8.777  2.2234  2.8515  2.0635
  176SOPE  H18Y20095   0.804   2.026   8.603 -0.2740  1.9719 -1.6890
  176SOPE  H18Z20096   0.674   2.143   8.628 -0.3272 -0.5430 -0.7574
  177SOPE     N20097   0.419   5.579  10.916  0.3295 -0.1850 -0.2302
  177SOPE   HN120098   0.440   5.617  10.821  1.9220 -0.7542 -0.1356
  177SOPE   HN220099   0.442   5.640  10.997 -0.4438  1.2032 -1.0081
  177SOPE   HN320100   0.472   5.490  10.913 -1.2586 -1.1553 -1.2584
  177SOPE   C1220101   0.277   5.525  10.926  0.0206 -0.8059 -0.0998
  177SOPE  H12A20102   0.242   5.485  10.828 -1.8767 -0.9662  0.6103
  177SOPE  H12B20103   0.208   5.604  10.962 -0.3408 -0.5367 -1.3103
  177SOPE   C1120104   0.289   5.397  11.015 -0.1582 -0.0361  0.1000
  177SOPE  H11A20105   0.193   5.346  10.993  0.6530 -1.5267 -0.1107
  177SOPE  H11B20106   0.293   5.431  11.121 -0.8971  0.0823  0.0924
  177SOPE     P20107   0.427   5.169  11.034 -0.1332 -0.1392 -0.0207
  177SOPE   O1320108   0.314   5.132  11.120 -0.1815  0.2227  0.3199
  177SOPE   O1420109   0.562   5.158  11.101 -0.4847  0.2887  0.0776
  177SOPE   O1220110   0.402   5.318  10.976  0.3831  0.3741  0.0844
  177SOPE   O1120111   0.423   5.087  10.900 -0.6732 -0.1399  0.0353
  177SOPE    C120112   0.302   5.051  10.842  0.4202 -0.4127  0.0535
  177SOPE    HA20113   0.235   5.140  10.838  1.0990  0.1006 -0.1326
  177SOPE    HB20114   0.249   4.966  10.889  0.4514 -0.7191 -0.4558
  177SOPE    C220115   0.320   5.002  10.692  0.4709 -0.1960 -0.0331
  177SOPE    HS20116   0.361   4.899  10.699  1.3986  0.2446  1.2551
  177SOPE   O2120117   0.414   5.092  10.630  0.3324  0.5450 -0.3600
  177SOPE   C2120118   0.496   5.047  10.542 -1.1940 -0.4279  0.4586
  177SOPE   O2220119   0.506   4.931  10.509 -0.3146 -0.0515 -0.4195
  177SOPE   C2220120   0.583   5.155  10.484 -0.4336 -0.6935 -0.5384
  177SOPE   H2R20121   0.675   5.110  10.442  1.0733  1.4471  0.3130
  177SOPE   H2S20122   0.611   5.222  10.568 -0.4522 -1.1774 -0.1391
  177SOPE    C320123   0.182   5.008  10.615 -1.0352 -0.2430 -0.3280
  177SOPE    HX20124   0.132   5.106  10.627 -0.3987  0.2898 -1.8298
  177SOPE    HY20125   0.104   4.939  10.654 -2.0681  1.8626  1.5590
  177SOPE   O3120126   0.194   4.987  10.478 -0.5082  0.3788 -0.1694
  177SOPE   C3120127   0.202   4.858  10.436 -0.0390 -0.0874 -0.6253
  177SOPE   O3220128   0.216   4.762  10.505 -0.2187 -0.6042  0.0778
  177SOPE   C3220129   0.197   4.848  10.281 -0.2747  0.9178 -0.2101
  177SOPE   H2X20130   0.290   4.893  10.240 -0.2278  0.1169 -1.0145
  177SOPE   H2Y20131   0.107   4.908  10.256 -0.1822  2.0333  1.9380
  177SOPE   C2320132   0.504   5.230  10.374  1.1141  0.4568 -0.0918
  177SOPE   H3R20133   0.563   5.321  10.351  0.8452  0.4352 -0.8948
  177SOPE   H3S20134   0.408   5.267  10.417  0.1064 -2.2574  0.1813
  177SOPE   C2420135   0.481   5.163  10.237  0.6086 -0.3170  0.3526
  177SOPE   H4R20136   0.570   5.177  10.172  0.0828 -1.0574 -0.5416
  177SOPE   H4S20137   0.463   5.054  10.243 -1.4564 -0.2796 -2.8947
  177SOPE   C2520138   0.364   5.225  10.153  0.0627 -0.1630 -0.7919
  177SOPE   H5R20139   0.267   5.225  10.207 -1.1943  3.5300 -2.7169
  177SOPE   H5S20140   0.396   5.329  10.132 -0.6104  0.3925  0.7556
  177SOPE   C2620141   0.338   5.138  10.036 -0.3847  0.3049  0.2686
  177SOPE   H6R20142   0.428   5.086   9.998 -2.0312 -0.9465 -2.1757
  177SOPE   H6S20143   0.269   5.054  10.063  0.7168 -1.4502 -2.0361
  177SOPE   C2720144   0.284   5.211   9.914 -0.3096 -0.4420  0.1786
  177SOPE   H7R20145   0.177   5.229   9.934 -0.6471 -0.6459 -1.2895
  177SOPE   H7S20146   0.345   5.303   9.899  0.4757 -1.2935 -2.6499
  177SOPE   C2820147   0.289   5.128   9.784 -0.3554  0.1561 -0.0719
  177SOPE   H8R20148   0.268   5.021   9.808 -1.5043  0.7781  1.8708
  177SOPE   H8S20149   0.206   5.168   9.721  0.2475  2.3811  0.4619
  177SOPE   C2920150   0.432   5.116   9.729 -0.1984 -0.3967  0.2910
  177SOPE   H9120151   0.503   5.055   9.787 -0.8261  0.1994  1.7309
  177SOPE  C21020152   0.471   5.163   9.607 -0.2797 -0.1146  0.6189
  177SOPE  H10120153   0.575   5.138   9.580 -0.2992  1.6732 -1.3671
  177SOPE  C21120154   0.393   5.246   9.509 -0.8481 -0.7933  0.2252
  177SOPE  H11R20155   0.437   5.348   9.511 -2.5632 -0.0113  0.3504
  177SOPE  H11S20156   0.286   5.250   9.538 -1.2088  1.3816 -1.1842
  177SOPE  C21220157   0.392   5.197   9.360  0.4535 -0.0839 -1.5753
  177SOPE  H12R20158   0.293   5.237   9.328  0.0974  1.3519  1.0404
  177SOPE  H12S20159   0.390   5.086   9.353  1.4753 -0.1225 -1.3865
  177SOPE  C21320160   0.489   5.253   9.259 -0.4830  0.5459 -0.5132
  177SOPE  H13R20161   0.589   5.206   9.268 -0.8555  0.0114  1.0403
  177SOPE  H13S20162   0.503   5.361   9.278  2.9709  0.0443  0.4992
  177SOPE  C21420163   0.462   5.217   9.113 -0.0605  0.1070 -0.0591
  177SOPE  H14R20164   0.395   5.129   9.123  0.3762 -0.2298 -0.0358
  177SOPE  H14S20165   0.556   5.187   9.061 -0.1876 -0.8184  0.2187
  177SOPE  C21520166   0.408   5.327   9.027  0.5621 -0.2204  0.8051
  177SOPE  H15R20167   0.482   5.404   8.997 -0.1018 -0.3992 -1.4767
  177SOPE  H15S20168   0.328   5.370   9.091 -1.3091 -1.0779 -0.8413
  177SOPE  C21620169   0.358   5.291   8.879  0.1175  0.3056 -0.2688
  177SOPE  H16R20170   0.271   5.358   8.863 -0.5358 -0.2240  0.9463
  177SOPE  H16S20171   0.330   5.184   8.869 -1.4470  0.6397  0.2919
  177SOPE  C21720172   0.459   5.339   8.773  0.1651  0.0958 -0.0345
  177SOPE  H17R20173   0.562   5.305   8.796 -0.0866  0.2102  1.3989
  177SOPE  H17S20174   0.464   5.449   8.779  0.9810 -0.0200  3.3863
  177SOPE  C21820175   0.419   5.290   8.633  0.0660  0.6185 -0.1722
  177SOPE  H18R20176   0.386   5.184   8.638  0.7843  0.4013  0.0322
  177SOPE  H18S20177   0.508   5.285   8.567  0.3611  2.3159  0.0698
  177SOPE  H18T20178   0.351   5.367   8.591  0.5306  1.3519  0.4030
  177SOPE   C3320179   0.167   4.702  10.233  0.1788 -0.0165 -0.2419
  177SOPE   H3X20180   0.087   4.653  10.293 -0.0609 -1.9115 -2.0114
  177SOPE   H3Y20181   0.256   4.637  10.245  0.5886  0.6436  0.4854
  177SOPE   C3420182   0.122   4.699  10.086  0.8328  0.1457  0.1959
  177SOPE   H4X20183   0.043   4.775  10.064 -0.2452 -0.3571  2.1152
  177SOPE   H4Y20184   0.085   4.594  10.085 -0.0070  0.3459  2.7962
  177SOPE   C3520185   0.228   4.718   9.975 -0.8097  0.7015 -0.0908
  177SOPE   H5X20186   0.293   4.628   9.976 -0.8518  0.6431 -1.2081
  177SOPE   H5Y20187   0.283   4.815   9.984  0.5117 -0.2144  3.6354
  177SOPE   C3620188   0.166   4.715   9.835  0.1768  0.0272  0.5395
  177SOPE   H6X20189   0.116   4.811   9.809 -0.1487 -0.6070 -1.3842
  177SOPE   H6Y20190   0.089   4.635   9.832  1.0881 -0.8522 -0.7116
  177SOPE   C3720191   0.264   4.665   9.740  0.0684 -0.0235 -0.0300
  177SOPE   H7X20192   0.213   4.646   9.643  2.7072  0.1960 -1.5729
  177SOPE   H7Y20193   0.300   4.568   9.781 -0.7169  0.0020  0.7413
  177SOPE   C3820194   0.384   4.759   9.711  0.5170  0.8005 -0.1118
  177SOPE   H8X20195   0.465   4.752   9.787  1.2898 -0.2201 -0.9958
  177SOPE   H8Y20196   0.346   4.863   9.713 -1.9532 -0.0085  2.4337
  177SOPE   C3920197   0.457   4.724   9.579  0.1713  0.0401  0.1463
  177SOPE   H9X20198   0.445   4.615   9.561 -0.1641  0.0933  0.0412
  177SOPE   H9Y20199   0.568   4.734   9.587  0.3498 -0.8559 -0.9252
  177SOPE  C31020200   0.406   4.799   9.459 -0.3309 -0.4382 -0.6657
  177SOPE  H10X20201   0.442   4.904   9.467 -1.2325 -0.1439 -0.2672
  177SOPE  H10Y20202   0.296   4.814   9.472 -0.5889  1.3449 -3.7430
  177SOPE  C31120203   0.427   4.732   9.321  0.3092 -0.3592  0.2679
  177SOPE  H11X20204   0.377   4.633   9.326  0.5281 -0.5818 -1.4244
  177SOPE  H11Y20205   0.537   4.723   9.305  0.2716 -1.0452  0.3433
  177SOPE  C31220206   0.353   4.807   9.205 -0.6662  0.1959 -0.4540
  177SOPE  H12X20207   0.370   4.916   9.214 -0.9120  0.2653 -0.8246
  177SOPE  H12Y20208   0.244   4.793   9.217 -1.0282  1.2312 -2.1996
  177SOPE  C31320209   0.403   4.768   9.063 -0.3572 -0.4327  0.3516
  177SOPE  H13X20210   0.361   4.667   9.042 -1.2307  0.1758 -0.9968
  177SOPE  H13Y20211   0.513   4.760   9.055 -0.2340  2.1223 -2.8339
  177SOPE  C31420212   0.347   4.857   8.956  0.5958 -0.2910  0.8411
  177SOPE  H14X20213   0.383   4.959   8.980  2.5474 -0.9259  0.7375
  177SOPE  H14Y20214   0.236   4.855   8.969  0.8128 -0.2485  3.0105
  177SOPE  C31520215   0.377   4.802   8.812 -0.3082 -0.0885 -0.0678
  177SOPE  H15X20216   0.327   4.869   8.739  0.2298 -0.5871 -0.9066
  177SOPE  H15Y20217   0.318   4.708   8.806 -1.0373  0.2839  0.9426
  177SOPE  C31620218   0.525   4.792   8.788 -0.1093 -1.2361  0.7910
  177SOPE  H16X20219   0.558   4.695   8.830  0.5878 -1.1089  0.5680
  177SOPE  H16Y20220   0.566   4.882   8.839 -1.6629  0.8335 -1.3977
  177SOPE  C31720221   0.559   4.786   8.632 -0.1979 -0.5873 -0.2855
  177SOPE  H17X20222   0.496   4.865   8.586 -2.1344 -1.8940 -0.0369
  177SOPE  H17Y20223   0.510   4.693   8.595 -0.1952 -1.0229  0.7482
  177SOPE  C31820224   0.705   4.790   8.590 -0.3060  0.1659 -0.4644
  177SOPE  H18X20225   0.752   4.881   8.632  0.7540 -1.1247  1.2989
  177SOPE  H18Y20226   0.717   4.802   8.480  4.4853 -0.9272 -0.2977
  177SOPE  H18Z20227   0.765   4.707   8.633 -0.3509  0.7436  0.7470
  178SOPE     N20228   4.056   4.331  11.110 -0.3314 -0.3133  0.1489
  178SOPE   HN120229   4.100   4.395  11.178  0.9030 -1.6605  0.6765
  178SOPE   HN220230   4.127   4.342  11.035 -2.0697  2.0007 -1.2991
  178SOPE   HN320231   3.970   4.364  11.061 -0.1108 -1.0340 -0.7740
  178SOPE   C1220232   4.061   4.201  11.179  0.2554  0.4967  0.3161
  178SOPE  H12A20233   4.015   4.211  11.280 -1.4294  0.3329 -0.4055
  178SOPE  H12B20234   4.168   4.182  11.198 -0.3819 -2.9914  1.1379
  178SOPE   C1120235   4.007   4.083  11.086 -0.4187  0.0848  0.4791
  178SOPE  H11A20236   3.898   4.101  11.074 -0.5023 -1.0479 -0.5903
  178SOPE  H11B20237   4.028   3.983  11.129  2.6648 -0.1091 -1.1830
  178SOPE     P20238   4.008   3.982  10.840  0.0526 -0.3537 -0.0048
  178SOPE   O1320239   3.861   3.959  10.843  0.2269  0.1356  0.5677
  178SOPE   O1420240   4.097   3.859  10.853 -0.6061  0.4325 -0.1161
  178SOPE   O1220241   4.051   4.089  10.953  0.5621  0.5747  0.5907
  178SOPE   O1120242   4.038   4.050  10.699 -0.2549  0.4181 -0.3777
  178SOPE    C120243   4.098   4.180  10.698  0.2309 -0.0932  0.3735
  178SOPE    HA20244   4.206   4.170  10.721  0.3033 -1.3117 -0.3902
  178SOPE    HB20245   4.046   4.248  10.769  0.5910 -0.7490  1.2740
  178SOPE    C220246   4.094   4.243  10.559 -0.1303 -0.2890  0.4040
  178SOPE    HS20247   4.155   4.335  10.556 -1.7075  0.8122  0.9468
  178SOPE   O2120248   3.963   4.261  10.509 -0.1292 -0.3995 -0.1555
  178SOPE   C2120249   3.898   4.355  10.565 -0.0355 -0.2292 -0.1180
  178SOPE   O2220250   3.946   4.443  10.639  0.2640 -0.4153  0.1098
  178SOPE   C2220251   3.747   4.329  10.557 -0.3654 -0.4231  0.7561
  178SOPE   H2R20252   3.704   4.357  10.655 -1.5065  0.5512  0.0149
  178SOPE   H2S20253   3.722   4.221  10.556  0.3206 -0.5902 -0.5769
  178SOPE    C320254   4.166   4.155  10.455  0.4278  0.1032  0.6459
  178SOPE    HX20255   4.135   4.050  10.471 -2.0367  0.4988 -0.9643
  178SOPE    HY20256   4.276   4.148  10.474  1.4950 -2.5004 -4.6665
  178SOPE   O3120257   4.140   4.201  10.316 -0.1244  0.6837 -0.3051
  178SOPE   C3120258   4.047   4.124  10.245  0.8210 -0.4245  0.1210
  178SOPE   O3220259   3.986   4.029  10.293  0.3854 -0.4112 -0.3512
  178SOPE   C3220260   4.048   4.173  10.097  0.2325 -0.3156 -0.0990
  178SOPE   H2X20261   4.114   4.112  10.031 -0.2930 -0.8822 -0.1048
  178SOPE   H2Y20262   4.083   4.278  10.093 -0.1410 -0.0911  1.7537
  178SOPE   C2320263   3.685   4.402  10.434  0.8421 -1.2578 -0.0250
  178SOPE   H3R20264   3.578   4.375  10.419 -0.1708  0.9527  2.3734
  178SOPE   H3S20265   3.744   4.367  10.347  0.4651  1.3526 -1.4375
  178SOPE   C2420266   3.688   4.557  10.436 -0.4013  0.2996 -0.5093
  178SOPE   H4R20267   3.675   4.589  10.541  2.3864  0.7116 -0.1904
  178SOPE   H4S20268   3.794   4.579  10.410  0.4000 -0.4448  1.8793
  178SOPE   C2520269   3.593   4.634  10.338  0.6413  1.1009 -0.0874
  178SOPE   H5R20270   3.485   4.611  10.355  0.5574 -0.6682 -2.4479
  178SOPE   H5S20271   3.607   4.743  10.356  1.4148  0.7950  1.3615
  178SOPE   C2620272   3.626   4.598  10.188  0.4051 -0.1770  0.6267
  178SOPE   H6R20273   3.613   4.489  10.173 -0.7793  0.2702 -2.4672
  178SOPE   H6S20274   3.551   4.657  10.132  1.2123  0.4614  0.1883
  178SOPE   C2720275   3.765   4.656  10.155 -0.4394  0.4776  0.1096
  178SOPE   H7R20276   3.780   4.754  10.206  1.2563 -0.2086  1.0109
  178SOPE   H7S20277   3.848   4.595  10.196 -1.6725 -0.8674  0.6810
  178SOPE   C2820278   3.794   4.661  10.002  0.4669  0.3921  0.2930
  178SOPE   H8R20279   3.791   4.555   9.968  2.0906  1.3837 -3.5482
  178SOPE   H8S20280   3.710   4.720   9.959  0.3871 -0.2407 -0.4472
  178SOPE   C2920281   3.928   4.725   9.963  0.2216  0.6588 -0.7324
  178SOPE   H9120282   3.951   4.825  10.003  1.4830  0.5057 -1.0381
  178SOPE  C21020283   4.019   4.686   9.873  0.1898 -0.6192  0.0212
  178SOPE  H10120284   4.107   4.747   9.847 -0.7566  0.2587 -1.2645
  178SOPE  C21120285   4.004   4.559   9.788 -0.1963  0.9911 -0.4263
  178SOPE  H11R20286   3.921   4.496   9.825  1.9176 -2.0678 -0.5277
  178SOPE  H11S20287   4.097   4.499   9.799 -1.4710 -1.0707 -0.4923
  178SOPE  C21220288   3.990   4.559   9.629  0.4593 -0.6914 -0.2005
  178SOPE  H12R20289   3.924   4.477   9.595 -0.2751  0.2649 -1.1803
  178SOPE  H12S20290   4.090   4.535   9.588  0.4553 -1.7604  0.3917
  178SOPE  C21320291   3.930   4.689   9.579  0.0892 -0.2044  0.9042
  178SOPE  H13R20292   4.013   4.761   9.560  1.2334 -1.6676  0.1611
  178SOPE  H13S20293   3.872   4.729   9.665 -2.7784 -1.9844 -0.0773
  178SOPE  C21420294   3.824   4.691   9.466 -0.1308  0.1544 -0.1992
  178SOPE  H14R20295   3.792   4.796   9.453  0.8955  0.6984  1.3504
  178SOPE  H14S20296   3.733   4.641   9.506  1.1975 -0.7776  1.8544
  178SOPE  C21520297   3.864   4.630   9.324  0.5606 -0.4786 -0.5998
  178SOPE  H15R20298   3.869   4.520   9.339 -0.7474 -0.1401  3.5556
  178SOPE  H15S20299   3.961   4.656   9.277  0.5116 -3.1346 -2.4709
  178SOPE  C21620300   3.748   4.650   9.230 -0.0488 -0.4280  0.0014
  178SOPE  H16R20301   3.761   4.754   9.193  0.9975  0.2168  2.0099
  178SOPE  H16S20302   3.647   4.647   9.277 -0.9876  0.8534 -1.8083
  178SOPE  C21720303   3.756   4.555   9.110  0.7792  0.6996 -0.6301
  178SOPE  H17R20304   3.668   4.582   9.048  0.0866 -0.9385 -0.4042
  178SOPE  H17S20305   3.759   4.448   9.140 -0.4037  0.9018  0.3283
  178SOPE  C21820306   3.876   4.567   9.023 -0.1317  0.5385  0.3096
  178SOPE  H18R20307   3.967   4.555   9.085 -0.1008  2.2077  0.6453
  178SOPE  H18S20308   3.880   4.674   8.991 -0.8679  0.0117 -1.6991
  178SOPE  H18T20309   3.872   4.510   8.927 -1.6426 -0.2426  0.8160
  178SOPE   C3320310   3.905   4.159  10.045 -0.0187 -0.0878  0.2067
  178SOPE   H3X20311   3.839   4.221  10.110 -0.9063 -2.6095  1.8894
  178SOPE   H3Y20312   3.876   4.052  10.053  3.8377 -1.2526  0.6579
  178SOPE   C3420313   3.890   4.204   9.899  0.0067  0.2781 -0.1426
  178SOPE   H4X20314   3.960   4.284   9.866  0.4324 -0.2176 -0.4513
  178SOPE   H4Y20315   3.788   4.242   9.878  0.7959  2.1563 -0.8507
  178SOPE   C3520316   3.920   4.101   9.791 -0.0823 -0.5657 -0.8273
  178SOPE   H5X20317   3.882   4.002   9.823 -1.5333  0.9731  2.8081
  178SOPE   H5Y20318   4.030   4.102   9.778 -0.2239 -0.5392 -2.2247
  178SOPE   C3620319   3.872   4.137   9.651  0.1254 -0.2631 -0.7983
  178SOPE   H6X20320   3.871   4.247   9.635  1.0260  0.1604  1.5202
  178SOPE   H6Y20321   3.764   4.115   9.662  0.7271 -2.1987  3.3949
  178SOPE   C3720322   3.935   4.058   9.541 -0.0424  0.5463 -0.1941
  178SOPE   H7X20323   3.902   3.953   9.556 -0.6257  0.3825 -2.2491
  178SOPE   H7Y20324   4.046   4.053   9.536 -0.0448  0.9095 -0.8158
  178SOPE   C3820325   3.876   4.090   9.400  0.0878  0.2337 -0.1394
  178SOPE   H8X20326   3.765   4.100   9.395  0.1648  1.2224 -0.0299
  178SOPE   H8Y20327   3.909   4.008   9.332  1.2417 -0.0122  0.6811
  178SOPE   C3920328   3.925   4.224   9.346 -0.6777 -0.7022  0.1449
  178SOPE   H9X20329   3.891   4.310   9.407  0.5983 -0.7863  1.0184
  178SOPE   H9Y20330   3.863   4.238   9.256 -2.0561 -0.5486  1.0941
  178SOPE  C31020331   4.081   4.241   9.333  0.1734  0.2126  0.5607
  178SOPE  H10X20332   4.129   4.165   9.268 -1.0268  0.4292 -0.6011
  178SOPE  H10Y20333   4.127   4.230   9.434 -0.0535 -0.6473  0.5817
  178SOPE  C31120334   4.114   4.363   9.257  0.1605  0.7442  0.1431
  178SOPE  H11X20335   4.088   4.456   9.313 -1.2752  0.8111 -0.5873
  178SOPE  H11Y20336   4.053   4.367   9.164  1.7025 -1.4087 -1.0498
  178SOPE  C31220337   4.264   4.366   9.226  0.0437 -0.8056  0.2287
  178SOPE  H12X20338   4.282   4.474   9.208 -0.9160 -0.4662  1.1603
  178SOPE  H12Y20339   4.284   4.309   9.133 -0.7706 -0.6251 -0.0707
  178SOPE  C31320340   4.367   4.330   9.342 -0.2939  0.7132  0.2781
  178SOPE  H13X20341   4.457   4.312   9.279 -1.2401 -2.5323 -0.3260
  178SOPE  H13Y20342   4.347   4.236   9.398  2.8917  0.3605  1.0245
  178SOPE  C31420343   4.378   4.455   9.432  0.6996 -0.1674 -0.4689
  178SOPE  H14X20344   4.273   4.482   9.455  0.5531 -0.9511 -0.1973
  178SOPE  H14Y20345   4.415   4.528   9.357 -2.8148 -0.2619 -2.4630
  178SOPE  C31520346   4.459   4.443   9.563  0.7754 -0.1185  0.0341
  178SOPE  H15X20347   4.491   4.546   9.589  2.9467 -0.4148 -1.2151
  178SOPE  H15Y20348   4.554   4.387   9.547  0.6715 -0.0113 -1.0037
  178SOPE  C31620349   4.372   4.379   9.668 -0.3176  0.4074 -0.0861
  178SOPE  H16X20350   4.338   4.276   9.644 -0.7785  0.6646 -0.5426
  178SOPE  H16Y20351   4.279   4.437   9.684 -0.4339 -0.0848  1.1926
  178SOPE  C31720352   4.453   4.356   9.792  0.0323  0.1289  0.2445
  178SOPE  H17X20353   4.489   4.457   9.822  0.2335  0.2697 -0.4577
  178SOPE  H17Y20354   4.539   4.288   9.777  0.0323  0.0261  0.7038
  178SOPE  C31820355   4.362   4.310   9.906 -0.2442  0.9176  0.3452
  178SOPE  H18X20356   4.304   4.217   9.890 -0.4579  1.2502 -0.9724
  178SOPE  H18Y20357   4.298   4.400   9.919 -0.7731  0.5125  0.5935
  178SOPE  H18Z20358   4.430   4.314   9.994  0.6600 -2.4562 -0.0679
  179SOPE     N20359   3.926   4.131   6.445 -0.1408  0.1643  0.1285
  179SOPE   HN120360   3.866   4.101   6.366  1.0592 -1.7874 -0.1101
  179SOPE   HN220361   3.954   4.045   6.495 -1.6841 -0.5861 -0.2719
  179SOPE   HN320362   3.873   4.196   6.507  1.3000  3.3050 -1.6636
  179SOPE   C1220363   4.053   4.210   6.407 -0.8505  0.3433  0.3775
  179SOPE  H12A20364   4.098   4.249   6.500  0.1263 -0.1642  0.1330
  179SOPE  H12B20365   4.023   4.296   6.345 -0.8201  1.4352  1.8298
  179SOPE   C1120366   4.147   4.118   6.321  0.4768 -0.5505  0.4527
  179SOPE  H11A20367   4.200   4.188   6.253  0.4139 -0.4320  0.5254
  179SOPE  H11B20368   4.087   4.047   6.259 -1.0268 -0.4328  1.6991
  179SOPE     P20369   4.190   3.893   6.457  0.1067 -0.3111  0.1353
  179SOPE   O1320370   4.285   3.863   6.568 -0.3134  0.0119  0.8291
  179SOPE   O1420371   4.170   3.797   6.344 -0.2951 -0.0817  0.6462
  179SOPE   O1220372   4.227   4.040   6.410 -0.4953 -0.4803  0.1014
  179SOPE   O1120373   4.046   3.912   6.521 -0.1748  0.5455 -0.2268
  179SOPE    C120374   4.038   3.928   6.665  0.2454  0.5427  0.4574
  179SOPE    HA20375   4.057   4.036   6.684 -0.8669  1.1682 -1.6195
  179SOPE    HB20376   4.112   3.873   6.726 -0.2080 -1.2061 -0.5111
  179SOPE    C220377   3.897   3.897   6.718  0.5630  0.2771 -0.6823
  179SOPE    HS20378   3.873   3.788   6.712  1.1736  0.1311 -0.5565
  179SOPE   O2120379   3.799   3.981   6.656 -0.4341 -0.3063  0.4735
  179SOPE   C2120380   3.670   3.960   6.690 -0.0198  0.5465 -0.9549
  179SOPE   O2220381   3.636   3.870   6.765  0.0682  0.4447  0.2780
  179SOPE   C2220382   3.579   4.063   6.632 -0.4363 -0.4844  0.5603
  179SOPE   H2R20383   3.524   4.014   6.549  0.4668 -2.2394  0.9430
  179SOPE   H2S20384   3.637   4.150   6.593  0.7755 -0.3948  2.4257
  179SOPE    C320385   3.912   3.918   6.872  0.9471 -0.3438 -0.1383
  179SOPE    HX20386   3.991   3.848   6.905  1.3120  0.0426 -0.1900
  179SOPE    HY20387   3.823   3.889   6.933 -0.0367 -0.1593 -1.4469
  179SOPE   O3120388   3.975   4.044   6.908 -0.1185  0.2463  0.1147
  179SOPE   C3120389   3.897   4.137   6.960 -0.9983  0.2553  0.7663
  179SOPE   O3220390   3.779   4.128   6.970 -0.3377  0.1053 -0.4153
  179SOPE   C3220391   3.981   4.262   6.974 -0.6414  0.2127 -0.0439
  179SOPE   H2X20392   3.941   4.321   7.059 -1.7926 -1.4663  0.6316
  179SOPE   H2Y20393   3.975   4.328   6.885  1.7911  1.7717  0.8496
  179SOPE   C2320394   3.483   4.119   6.741  0.2137  0.6084  0.5123
  179SOPE   H3R20395   3.439   4.215   6.708 -1.2722 -0.2673 -0.1711
  179SOPE   H3S20396   3.534   4.144   6.836 -0.1499  1.5103  0.4770
  179SOPE   C2420397   3.367   4.021   6.763  0.0253  0.0549  0.1427
  179SOPE   H4R20398   3.301   4.006   6.675  2.0365 -3.2069 -0.9941
  179SOPE   H4S20399   3.407   3.919   6.783  1.8906  1.2162  3.0605
  179SOPE   C2520400   3.272   4.054   6.886  0.4338  0.2562 -0.1229
  179SOPE   H5R20401   3.212   3.967   6.920  1.7062 -0.2111  0.9847
  179SOPE   H5S20402   3.331   4.077   6.977 -1.7220  1.8918  0.9500
  179SOPE   C2620403   3.193   4.177   6.851  0.1027 -0.4695 -0.6839
  179SOPE   H6R20404   3.266   4.261   6.845  0.4388 -0.6635  0.4521
  179SOPE   H6S20405   3.134   4.171   6.757 -0.6658 -1.4022 -0.1626
  179SOPE   C2720406   3.098   4.227   6.961 -0.0112  0.6376  0.1440
  179SOPE   H7R20407   3.152   4.254   7.054 -2.5053  2.3761  1.1913
  179SOPE   H7S20408   3.054   4.319   6.918  2.5764  1.7219 -0.3682
  179SOPE   C2820409   2.988   4.121   6.986 -0.3301  0.4131  0.3253
  179SOPE   H8R20410   2.944   4.091   6.888 -1.4594  0.6899  0.7325
  179SOPE   H8S20411   3.034   4.026   7.019 -0.6209 -0.3033 -1.2515
  179SOPE   C2920412   2.889   4.166   7.086 -0.2420 -0.0424  0.0118
  179SOPE   H9120413   2.802   4.216   7.043 -0.6860  0.2636  1.2233
  179SOPE  C21020414   2.885   4.138   7.218  0.4484 -0.1746  0.1975
  179SOPE  H10120415   2.804   4.179   7.279  0.6045  0.2885  0.0948
  179SOPE  C21120416   2.985   4.057   7.292  0.0283  0.9572 -0.2136
  179SOPE  H11R20417   3.063   4.016   7.225 -0.2539 -0.2347  0.1623
  179SOPE  H11S20418   2.929   3.968   7.329  0.0084  1.4045  0.8577
  179SOPE  C21220419   3.049   4.125   7.411  0.4456 -0.3524 -0.2476
  179SOPE  H12R20420   2.962   4.155   7.473 -0.1726 -0.2823 -1.1270
  179SOPE  H12S20421   3.109   4.215   7.385  1.0679 -0.5821  0.3563
  179SOPE  C21320422   3.135   4.030   7.496  0.0070  0.3694  0.1228
  179SOPE  H13R20423   3.219   4.005   7.428  0.3601  2.6527 -0.3616
  179SOPE  H13S20424   3.088   3.931   7.514  1.4547 -0.3142  0.3277
  179SOPE  C21420425   3.180   4.101   7.631  0.1906 -0.8990 -0.8028
  179SOPE  H14R20426   3.093   4.154   7.676 -0.3041 -0.2855 -2.4158
  179SOPE  H14S20427   3.257   4.169   7.589 -0.6591  2.0677  1.9986
  179SOPE  C21520428   3.234   4.005   7.734  0.2307 -0.2530  0.5271
  179SOPE  H15R20429   3.331   3.971   7.692  0.9134  1.2976  0.7465
  179SOPE  H15S20430   3.162   3.922   7.744 -0.9080  0.3826 -1.6225
  179SOPE  C21620431   3.263   4.067   7.872  0.3925 -0.4517 -0.3955
  179SOPE  H16R20432   3.332   4.154   7.860  0.1951 -0.1514  0.5452
  179SOPE  H16S20433   3.305   3.992   7.942  0.0158 -1.1168 -0.8749
  179SOPE  C21720434   3.138   4.110   7.954 -0.1431 -0.2320  0.0543
  179SOPE  H17R20435   3.074   4.024   7.984  0.4641 -0.6779  0.0809
  179SOPE  H17S20436   3.079   4.171   7.882 -0.4066 -0.6118 -0.0544
  179SOPE  C21820437   3.184   4.195   8.074  0.2555  0.1510  0.2373
  179SOPE  H18R20438   3.089   4.228   8.121  0.0441 -0.5767  0.3297
  179SOPE  H18S20439   3.254   4.277   8.046  0.7312 -0.4101 -0.2456
  179SOPE  H18T20440   3.238   4.123   8.138 -1.4417 -2.5293 -1.1523
  179SOPE   C3320441   4.134   4.238   6.989  0.3773 -0.2568 -1.0313
  179SOPE   H3X20442   4.185   4.337   6.996 -0.5289  0.0947  1.6876
  179SOPE   H3Y20443   4.189   4.186   6.908 -0.8359  1.3122 -2.9711
  179SOPE   C3420444   4.151   4.170   7.132  0.6743 -0.3152 -0.4790
  179SOPE   H4X20445   4.260   4.152   7.141  0.6373  0.1600  1.2101
  179SOPE   H4Y20446   4.103   4.070   7.137 -2.1975  1.0245  0.6104
  179SOPE   C3520447   4.109   4.247   7.259 -0.1883 -0.3548 -0.5503
  179SOPE   H5X20448   4.000   4.270   7.257 -0.2992 -0.6925  0.5443
  179SOPE   H5Y20449   4.165   4.341   7.242  3.8852 -2.2570  0.9811
  179SOPE   C3620450   4.141   4.173   7.388 -0.1363  0.4954 -0.8877
  179SOPE   H6X20451   4.251   4.158   7.376 -0.2070 -1.0319  0.1018
  179SOPE   H6Y20452   4.101   4.070   7.377  0.8805 -0.2893  1.8667
  179SOPE   C3720453   4.107   4.231   7.529  0.4321 -0.5297 -0.0238
  179SOPE   H7X20454   3.997   4.241   7.542  0.5912 -0.0075  0.9506
  179SOPE   H7Y20455   4.144   4.334   7.546 -0.8047  0.1557 -1.2642
  179SOPE   C3820456   4.156   4.129   7.639 -0.6890 -1.2351  0.7747
  179SOPE   H8X20457   4.264   4.115   7.617 -0.7789 -2.6917  1.1913
  179SOPE   H8Y20458   4.107   4.030   7.634 -1.4640 -0.9461  2.0697
  179SOPE   C3920459   4.163   4.202   7.779 -0.1846  0.3427  0.0654
  179SOPE   H9X20460   4.249   4.272   7.772 -1.6056  2.0837 -0.6667
  179SOPE   H9Y20461   4.188   4.127   7.857 -0.2771  0.2071 -0.0354
  179SOPE  C31020462   4.036   4.274   7.836 -0.4739  0.8497  0.3810
  179SOPE  H10X20463   3.944   4.214   7.822 -0.0109 -0.4154  2.2748
  179SOPE  H10Y20464   4.025   4.373   7.788 -0.1182  0.6391 -0.1460
  179SOPE  C31120465   4.044   4.297   7.985  0.6020 -0.2476  0.3812
  179SOPE  H11X20466   3.963   4.370   8.006  1.4175  0.1682  2.2042
  179SOPE  H11Y20467   4.140   4.350   8.001  1.5391 -1.6819 -0.1864
  179SOPE  C31220468   4.019   4.178   8.080  0.2025  0.7511  0.0960
  179SOPE  H12X20469   4.110   4.114   8.080 -0.0070  0.4526  0.1488
  179SOPE  H12Y20470   3.927   4.123   8.054  0.3764  0.6005 -0.2057
  179SOPE  C31320471   4.009   4.219   8.229 -0.0126 -0.4339  0.1250
  179SOPE  H13X20472   4.001   4.127   8.291 -0.4703  0.8419  2.0677
  179SOPE  H13Y20473   3.918   4.281   8.243  1.2838  1.1931  1.8884
  179SOPE  C31420474   4.131   4.296   8.290 -0.1120 -0.9653 -0.2107
  179SOPE  H14X20475   4.125   4.393   8.236  4.9241 -1.7184 -2.7227
  179SOPE  H14Y20476   4.228   4.253   8.254 -0.9730 -1.9283 -1.4887
  179SOPE  C31520477   4.117   4.322   8.441 -0.3950  0.3687 -0.0481
  179SOPE  H15X20478   4.037   4.397   8.459 -0.2255  0.5640 -0.0994
  179SOPE  H15Y20479   4.212   4.371   8.472  1.1069 -2.0252 -0.6253
  179SOPE  C31620480   4.106   4.200   8.528  0.1058  0.1810  0.0882
  179SOPE  H16X20481   4.201   4.142   8.529  0.0784  0.1161  1.5074
  179SOPE  H16Y20482   4.016   4.140   8.504 -0.5053  0.6444  1.1320
  179SOPE  C31720483   4.076   4.247   8.676 -0.2894 -0.5445  0.6715
  179SOPE  H17X20484   4.156   4.317   8.710 -0.6818  2.7617 -4.1173
  179SOPE  H17Y20485   4.088   4.153   8.733  0.4401 -0.7826  0.1441
  179SOPE  C31820486   3.931   4.285   8.698  0.3285 -0.3355  0.1634
  179SOPE  H18X20487   3.906   4.388   8.663 -1.2607 -0.8750 -0.3589
  179SOPE  H18Y20488   3.901   4.269   8.804 -0.7772 -0.6396 -0.1883
  179SOPE  H18Z20489   3.867   4.219   8.636 -1.9208 -0.8968  2.8474
  180SOPE     N20490   2.877   4.140   6.586  0.8698  0.5761  0.2870
  180SOPE   HN120491   2.963   4.198   6.582  0.8029  0.6153 -1.0234
  180SOPE   HN220492   2.801   4.188   6.639 -0.6417 -0.0208 -1.2409
  180SOPE   HN320493   2.899   4.046   6.624  2.5813  0.4995 -0.7850
  180SOPE   C1220494   2.817   4.132   6.448 -0.2757  0.7110 -0.1733
  180SOPE  H12A20495   2.872   4.055   6.390 -0.1093  0.3905  0.3990
  180SOPE  H12B20496   2.849   4.224   6.394  4.6869  1.4837  3.3482
  180SOPE   C1120497   2.669   4.110   6.459  0.5795  0.2957 -0.4224
  180SOPE  H11A20498   2.645   4.015   6.512 -2.5710 -0.1167 -2.3611
  180SOPE  H11B20499   2.628   4.090   6.358  2.0498 -0.3714 -0.9094
  180SOPE     P20500   2.455   4.251   6.508  0.5807 -0.0825 -0.2176
  180SOPE   O1320501   2.403   4.237   6.370 -0.1128  0.5527  0.1170
  180SOPE   O1420502   2.441   4.374   6.589  0.9348 -0.4201  0.0920
  180SOPE   O1220503   2.610   4.224   6.516  0.3693 -0.3064  0.0350
  180SOPE   O1120504   2.402   4.127   6.587 -0.0644 -0.5154 -0.3972
  180SOPE    C120505   2.293   4.134   6.682  0.5565  0.6468 -0.3059
  180SOPE    HA20506   2.220   4.052   6.666  0.4930  0.5515  0.4183
  180SOPE    HB20507   2.241   4.229   6.659  0.7548  0.7865 -0.1831
  180SOPE    C220508   2.342   4.115   6.826 -0.3306 -0.4068  0.5833
  180SOPE    HS20509   2.417   4.192   6.854  0.2754 -0.9299  0.4200
  180SOPE   O2120510   2.389   3.976   6.845  0.1549 -0.0000  0.1056
  180SOPE   C2120511   2.516   3.963   6.832 -0.6031  0.6839  0.6791
  180SOPE   O2220512   2.598   4.042   6.783  0.2445 -0.0488  0.0135
  180SOPE   C2220513   2.563   3.820   6.887 -1.0335  0.3336 -0.0367
  180SOPE   H2R20514   2.603   3.761   6.802  0.7738  0.1260  0.9049
  180SOPE   H2S20515   2.475   3.769   6.932 -1.0662  1.0940  0.7915
  180SOPE    C320516   2.224   4.151   6.924 -0.1862 -0.0159  0.0445
  180SOPE    HX20517   2.135   4.088   6.902 -0.2575  0.3975 -0.9181
  180SOPE    HY20518   2.189   4.256   6.909  0.2691 -0.0047 -1.0003
  180SOPE   O3120519   2.260   4.124   7.059  0.2447  0.0710 -0.1550
  180SOPE   C3120520   2.347   4.208   7.112  0.0177 -0.1791 -0.5429
  180SOPE   O3220521   2.400   4.292   7.049 -0.6676  0.2157 -0.1547
  180SOPE   C3220522   2.367   4.203   7.265 -0.6258  0.0697 -0.7799
  180SOPE   H2X20523   2.386   4.097   7.295 -1.2026 -0.3931 -1.9734
  180SOPE   H2Y20524   2.266   4.228   7.304 -0.5190  0.4366 -0.7406
  180SOPE   C2320525   2.682   3.826   6.983 -0.5533  1.1118 -0.0389
  180SOPE   H3R20526   2.761   3.890   6.939  1.0552 -0.4007  0.5002
  180SOPE   H3S20527   2.725   3.726   7.007 -2.7680 -0.1121 -0.8554
  180SOPE   C2420528   2.636   3.883   7.116  0.1894  0.0463  0.8442
  180SOPE   H4R20529   2.730   3.899   7.172 -1.3816  2.0797  3.0981
  180SOPE   H4S20530   2.587   3.982   7.114 -0.5886 -0.3346  0.5737
  180SOPE   C2520531   2.545   3.786   7.195 -0.5109 -0.1364  0.9376
  180SOPE   H5R20532   2.447   3.783   7.141 -0.1042 -0.3264  0.1977
  180SOPE   H5S20533   2.576   3.680   7.184  0.5287  0.1444  1.1182
  180SOPE   C2620534   2.539   3.835   7.341  0.5712  0.0406  0.4569
  180SOPE   H6R20535   2.642   3.823   7.380  0.3590 -0.2928  0.9219
  180SOPE   H6S20536   2.518   3.943   7.327 -0.1623 -0.0896  0.4851
  180SOPE   C2720537   2.442   3.765   7.434  0.1340  1.0272  0.3626
  180SOPE   H7R20538   2.339   3.777   7.395  0.2627  0.9473 -0.0029
  180SOPE   H7S20539   2.469   3.658   7.426  2.1314  1.6006 -1.6294
  180SOPE   C2820540   2.440   3.827   7.574  0.4062  0.6548 -0.4253
  180SOPE   H8R20541   2.543   3.857   7.603 -0.3067  4.4112 -1.2499
  180SOPE   H8S20542   2.386   3.921   7.552  2.8632  1.7657 -2.1745
  180SOPE   C2920543   2.381   3.732   7.678  0.3291 -0.3211 -0.2565
  180SOPE   H9120544   2.408   3.625   7.677 -0.1431 -0.4422 -0.1659
  180SOPE  C21020545   2.302   3.769   7.789 -0.1252  0.3039  0.4016
  180SOPE  H10120546   2.261   3.691   7.854 -0.5659 -1.0359 -1.4481
  180SOPE  C21120547   2.266   3.904   7.839  0.1880 -0.4150  0.2566
  180SOPE  H11R20548   2.161   3.923   7.809  0.4016 -1.7972 -1.5309
  180SOPE  H11S20549   2.324   3.984   7.790  1.5396 -1.6530 -0.2327
  180SOPE  C21220550   2.288   3.918   7.993 -0.1154 -0.5630  0.4582
  180SOPE  H12R20551   2.301   4.025   8.019 -0.5489 -0.1443 -0.9751
  180SOPE  H12S20552   2.385   3.876   8.027  0.5492 -0.2908 -1.0262
  180SOPE  C21320553   2.173   3.851   8.069 -0.2182  0.0836 -0.3782
  180SOPE  H13R20554   2.154   3.748   8.033 -0.1362 -1.3352  3.1758
  180SOPE  H13S20555   2.082   3.913   8.065 -1.4460 -1.4297  1.7748
  180SOPE  C21420556   2.211   3.833   8.223  0.2683  0.0993  0.0453
  180SOPE  H14R20557   2.233   3.930   8.273 -2.7057 -0.6128  3.0968
  180SOPE  H14S20558   2.298   3.766   8.235 -1.7707 -2.4005  2.0694
  180SOPE  C21520559   2.101   3.777   8.315 -0.2131  0.1377 -0.0211
  180SOPE  H15R20560   2.138   3.787   8.419  1.4028  2.7352 -0.7787
  180SOPE  H15S20561   2.085   3.670   8.290 -0.1222  0.1412 -0.0935
  180SOPE  C21620562   1.967   3.861   8.300  0.0661  0.2710 -0.9136
  180SOPE  H16R20563   1.935   3.863   8.194  0.7112  1.6275 -1.1108
  180SOPE  H16S20564   1.981   3.970   8.321  2.5236 -0.5514  2.6394
  180SOPE  C21720565   1.857   3.799   8.398  0.0463 -0.1832 -0.0789
  180SOPE  H17R20566   1.864   3.691   8.373 -1.5093 -0.6341  1.2847
  180SOPE  H17S20567   1.761   3.848   8.371  0.2420  0.1578 -0.1647
  180SOPE  C21820568   1.888   3.819   8.546 -0.2879 -0.0765  0.1092
  180SOPE  H18R20569   1.987   3.774   8.568  0.4517  0.4444 -1.9201
  180SOPE  H18S20570   1.805   3.766   8.597 -1.0099 -2.3210 -3.0580
  180SOPE  H18T20571   1.895   3.930   8.552  2.5459 -0.1934  0.3444
  180SOPE   C3320572   2.492   4.280   7.323  0.6623  0.1780 -0.4363
  180SOPE   H3X20573   2.472   4.387   7.302 -0.9794  0.3207  1.5858
  180SOPE   H3Y20574   2.585   4.251   7.270  1.2931  0.2957  0.5884
  180SOPE   C3420575   2.506   4.255   7.464 -0.1571 -0.1167 -0.5295
  180SOPE   H4X20576   2.532   4.149   7.485 -1.6310  0.0129  2.5738
  180SOPE   H4Y20577   2.413   4.278   7.522  0.7655 -1.0233  1.4055
  180SOPE   C3520578   2.614   4.343   7.527 -0.4468  0.2324 -0.1197
  180SOPE   H5X20579   2.586   4.447   7.501  2.6893  1.3278  0.4503
  180SOPE   H5Y20580   2.712   4.310   7.484 -0.1030  2.4245 -1.1450
  180SOPE   C3620581   2.607   4.334   7.683 -0.7065 -0.9889 -0.4671
  180SOPE   H6X20582   2.500   4.328   7.714 -0.4954 -1.6816  0.1565
  180SOPE   H6Y20583   2.655   4.420   7.735 -1.3978  0.1490 -1.6420
  180SOPE   C3720584   2.678   4.209   7.730  0.6566 -0.5446  0.2453
  180SOPE   H7X20585   2.788   4.226   7.731  0.8428 -1.3557  3.2262
  180SOPE   H7Y20586   2.640   4.139   7.653 -0.9875  1.8414 -1.2460
  180SOPE   C3820587   2.623   4.174   7.870  0.2776 -0.7066  0.6486
  180SOPE   H8X20588   2.514   4.154   7.864  0.1877 -0.0128 -0.2080
  180SOPE   H8Y20589   2.642   4.248   7.951 -2.0842  1.2323 -0.4671
  180SOPE   C3920590   2.674   4.035   7.931 -0.5990 -0.6540  0.5271
  180SOPE   H9X20591   2.739   4.000   7.848 -3.7659  0.7439 -2.8280
  180SOPE   H9Y20592   2.584   3.971   7.938 -0.6840 -0.7166 -0.8786
  180SOPE  C31020593   2.755   4.048   8.060  0.7665  0.4525  0.2720
  180SOPE  H10X20594   2.691   4.082   8.144 -1.9434 -0.5513 -1.2215
  180SOPE  H10Y20595   2.837   4.122   8.048  1.7340 -0.5601  0.4797
  180SOPE  C31120596   2.808   3.916   8.117  0.1711  0.4146  0.4142
  180SOPE  H11X20597   2.866   3.933   8.211  0.6031 -0.6268  0.3536
  180SOPE  H11Y20598   2.870   3.870   8.037  0.8176 -0.3633  1.3286
  180SOPE  C31220599   2.708   3.802   8.150 -0.4070 -0.3995 -0.0743
  180SOPE  H12X20600   2.765   3.707   8.141  1.9515  0.6172  2.7875
  180SOPE  H12Y20601   2.632   3.810   8.069 -0.7567 -1.5211  0.1268
  180SOPE  C31320602   2.637   3.804   8.293  0.2036 -0.5557  0.4899
  180SOPE  H13X20603   2.717   3.796   8.370  1.7323 -2.8121 -1.1821
  180SOPE  H13Y20604   2.578   3.710   8.294 -1.0740  0.2135  0.0679
  180SOPE  C31420605   2.562   3.935   8.336 -0.1643 -0.3441  0.0636
  180SOPE  H14X20606   2.488   3.966   8.260  1.6485  0.0286 -1.6411
  180SOPE  H14Y20607   2.634   4.018   8.355 -2.1650  1.0985  1.7929
  180SOPE  C31520608   2.495   3.925   8.473  0.9173  0.2831  0.3858
  180SOPE  H15X20609   2.420   3.843   8.464  1.6274 -0.2012 -1.4060
  180SOPE  H15Y20610   2.438   4.018   8.494  0.9530  0.2859  0.4717
  180SOPE  C31620611   2.591   3.911   8.592  0.1890  0.4258 -0.8036
  180SOPE  H16X20612   2.668   3.991   8.595  0.4901  0.1672 -1.4513
  180SOPE  H16Y20613   2.634   3.811   8.572  0.2798 -0.2501  2.2900
  180SOPE  C31720614   2.513   3.911   8.725 -0.4177  0.4705  0.0925
  180SOPE  H17X20615   2.440   3.828   8.734  0.5993 -0.4986 -0.4431
  180SOPE  H17Y20616   2.459   4.007   8.739 -1.4010 -0.3866  3.0222
  180SOPE  C31820617   2.604   3.887   8.844  0.1391 -0.0780 -0.4694
  180SOPE  H18X20618   2.663   3.980   8.862 -0.1533  0.1290 -0.5800
  180SOPE  H18Y20619   2.680   3.809   8.824  1.5907  1.4953 -1.4086
  180SOPE  H18Z20620   2.551   3.887   8.941 -0.4062 -0.3890 -0.7624
  181SOPE     N20621   2.761   1.720   6.459  0.9639 -0.2720  0.5882
  181SOPE   HN120622   2.705   1.649   6.406  1.3191 -1.3274  1.5780
  181SOPE   HN220623   2.835   1.746   6.390 -0.9316  0.4794 -1.2542
  181SOPE   HN320624   2.801   1.670   6.541  0.7886  0.3103  1.0274
  181SOPE   C1220625   2.681   1.846   6.464 -0.5887  0.3630  0.2223
  181SOPE  H12A20626   2.622   1.848   6.558 -0.7580 -0.7308  0.1577
  181SOPE  H12B20627   2.609   1.851   6.378 -0.0805  2.4093 -0.1271
  181SOPE   C1120628   2.776   1.972   6.457 -0.0216  1.1066 -0.2012
  181SOPE  H11A20629   2.851   1.974   6.538  0.0805  0.4450 -0.2739
  181SOPE  H11B20630   2.716   2.065   6.463 -1.5062  0.2664 -1.3017
  181SOPE     P20631   2.957   2.056   6.283 -0.3477  0.1220 -0.1272
  181SOPE   O1320632   2.955   2.064   6.138 -0.5737  0.4337 -0.0487
  181SOPE   O1420633   3.087   2.031   6.351 -0.0212  0.0524  0.7115
  181SOPE   O1220634   2.852   1.957   6.334 -0.4773 -0.0059  0.3605
  181SOPE   O1120635   2.895   2.195   6.325 -0.1643 -0.0765 -0.3324
  181SOPE    C120636   2.971   2.291   6.402  0.6379 -0.2327  0.2423
  181SOPE    HA20637   2.934   2.394   6.384 -1.4676 -0.6125  1.9862
  181SOPE    HB20638   3.074   2.290   6.361  0.2442 -0.7630 -0.7723
  181SOPE    C220639   2.968   2.271   6.556  0.1750  0.0649 -0.1692
  181SOPE    HS20640   2.986   2.162   6.569  1.5685  0.2837 -0.1130
  181SOPE   O2120641   2.838   2.311   6.611 -0.3858  0.4768  0.0612
  181SOPE   C2120642   2.815   2.244   6.723 -0.3564  0.2244  0.0384
  181SOPE   O2220643   2.875   2.147   6.763  0.0440  0.1822 -0.3830
  181SOPE   C2220644   2.696   2.302   6.788  0.3257  0.1177 -0.2678
  181SOPE   H2R20645   2.620   2.334   6.714  1.1590  2.3639 -0.2369
  181SOPE   H2S20646   2.737   2.393   6.836 -0.4510 -0.2947  1.2556
  181SOPE    C320647   3.096   2.348   6.614 -0.5798 -0.0922 -0.3825
  181SOPE    HX20648   3.085   2.453   6.579 -0.2835  0.0410 -0.0783
  181SOPE    HY20649   3.194   2.323   6.567 -0.0854  0.4670  0.3241
  181SOPE   O3120650   3.102   2.345   6.757  0.4591  0.3586  0.0335
  181SOPE   C3120651   3.182   2.251   6.807 -0.9265  0.2792 -0.5180
  181SOPE   O3220652   3.246   2.169   6.744 -0.5070 -0.0134 -0.2376
  181SOPE   C3220653   3.195   2.267   6.959 -0.4940 -0.1427  0.1818
  181SOPE   H2X20654   3.253   2.360   6.976  2.8660 -1.9569 -0.5670
  181SOPE   H2Y20655   3.269   2.187   6.978  1.7515  1.9961  0.9226
  181SOPE   C2320656   2.625   2.209   6.894 -0.1937  0.0750  0.3295
  181SOPE   H3R20657   2.610   2.114   6.838  2.7695  1.0509 -2.4210
  181SOPE   H3S20658   2.529   2.257   6.926 -0.5176 -0.5799  0.3504
  181SOPE   C2420659   2.694   2.202   7.030 -0.6492 -0.1895  0.4019
  181SOPE   H4R20660   2.799   2.166   7.021 -1.2914 -2.2077  0.3516
  181SOPE   H4S20661   2.706   2.310   7.050  0.7720 -0.1754 -0.3514
  181SOPE   C2520662   2.614   2.136   7.147  0.6596 -0.2604  0.3738
  181SOPE   H5R20663   2.514   2.185   7.137  1.8776  2.0270 -1.6925
  181SOPE   H5S20664   2.591   2.029   7.130  0.6760 -0.2339  0.1822
  181SOPE   C2620665   2.667   2.165   7.285  0.2047  0.5363  0.1589
  181SOPE   H6R20666   2.759   2.104   7.294  0.1810  0.7180  2.0963
  181SOPE   H6S20667   2.696   2.271   7.297  0.0437  0.5544  0.3994
  181SOPE   C2720668   2.572   2.121   7.397 -0.0417  0.0238 -0.2220
  181SOPE   H7R20669   2.473   2.137   7.351  0.1762  1.0619 -0.3380
  181SOPE   H7S20670   2.581   2.012   7.417 -0.4352 -0.0304 -0.3330
  181SOPE   C2820671   2.582   2.195   7.526  0.2000  0.3878 -0.0462
  181SOPE   H8R20672   2.578   2.305   7.508 -2.8624  0.1618 -1.3022
  181SOPE   H8S20673   2.484   2.194   7.579 -0.5395  0.7815 -1.3622
  181SOPE   C2920674   2.702   2.172   7.611  0.3421 -0.4892  0.5893
  181SOPE   H9120675   2.798   2.195   7.562 -0.9955 -1.0613 -2.5457
  181SOPE  C21020676   2.703   2.140   7.741  0.5576  0.0208  0.2370
  181SOPE  H10120677   2.800   2.125   7.790  0.8603  1.6780  0.2232
  181SOPE  C21120678   2.584   2.127   7.836  0.4392  0.2371 -0.6015
  181SOPE  H11R20679   2.588   2.029   7.888  1.6228  0.7409  0.2973
  181SOPE  H11S20680   2.487   2.124   7.781 -0.1260  2.9134  0.0860
  181SOPE  C21220681   2.585   2.235   7.944 -0.3305  0.5728 -0.0843
  181SOPE  H12R20682   2.560   2.328   7.889  0.1656  1.5169  1.2204
  181SOPE  H12S20683   2.689   2.255   7.980 -0.9547  0.8318  1.6841
  181SOPE  C21320684   2.495   2.213   8.070  0.3832 -0.4025 -0.1066
  181SOPE  H13R20685   2.508   2.119   8.127 -0.7876 -0.9975 -0.7860
  181SOPE  H13S20686   2.387   2.204   8.045  0.1724 -1.8834  1.1805
  181SOPE  C21420687   2.519   2.327   8.172 -0.9503 -0.3026 -0.5667
  181SOPE  H14R20688   2.553   2.415   8.114  1.0901 -1.6415 -1.5119
  181SOPE  H14S20689   2.602   2.293   8.238 -0.3055 -0.8721 -1.6455
  181SOPE  C21520690   2.394   2.371   8.258 -0.0876  0.3125  0.2345
  181SOPE  H15R20691   2.365   2.277   8.310  2.8619 -0.9119 -0.1136
  181SOPE  H15S20692   2.312   2.389   8.185 -1.0679  0.9500  1.4575
  181SOPE  C21620693   2.410   2.485   8.352  0.0869  0.3288  0.5590
  181SOPE  H16R20694   2.306   2.523   8.366 -0.1419  0.1662 -0.5985
  181SOPE  H16S20695   2.487   2.557   8.318  0.6175 -1.1564 -1.6132
  181SOPE  C21720696   2.447   2.441   8.493 -0.1969 -0.2325 -0.6293
  181SOPE  H17R20697   2.552   2.404   8.501  0.0794  0.6355 -0.0885
  181SOPE  H17S20698   2.379   2.362   8.530  0.4743 -0.7354 -0.4338
  181SOPE  C21820699   2.441   2.566   8.586 -0.4107  0.8626 -0.7148
  181SOPE  H18R20700   2.461   2.544   8.693 -0.8559  0.5218 -0.6977
  181SOPE  H18S20701   2.336   2.600   8.593 -0.6698 -0.0032 -0.1933
  181SOPE  H18T20702   2.508   2.647   8.552 -0.7977  1.3404 -0.3518
  181SOPE   C3320703   3.061   2.266   7.033  0.0947 -0.5290 -0.7119
  181SOPE   H3X20704   3.033   2.161   7.010 -1.5552  0.2508 -2.5816
  181SOPE   H3Y20705   2.990   2.336   6.985 -0.3842  0.1101  0.8652
  181SOPE   C3420706   3.069   2.299   7.178  0.4253  0.4940 -0.8436
  181SOPE   H4X20707   2.965   2.289   7.219 -0.5331 -1.3498 -3.4810
  181SOPE   H4Y20708   3.110   2.400   7.200  3.0873 -0.7159  0.1533
  181SOPE   C3520709   3.162   2.208   7.255 -0.7638  0.5235 -0.0890
  181SOPE   H5X20710   3.257   2.188   7.200  0.6750  0.1761  2.3625
  181SOPE   H5Y20711   3.118   2.105   7.259 -0.3668  0.3115 -1.0687
  181SOPE   C3620712   3.194   2.256   7.397 -0.9115  0.1944  0.6440
  181SOPE   H6X20713   3.260   2.346   7.398  0.9401 -1.1014  0.4421
  181SOPE   H6Y20714   3.246   2.167   7.438  0.3230  0.0700 -1.0672
  181SOPE   C3720715   3.071   2.292   7.474  0.2573 -0.0221 -0.0461
  181SOPE   H7X20716   2.988   2.218   7.466 -0.5119  0.7215  0.8247
  181SOPE   H7Y20717   3.038   2.386   7.426  3.9995  1.8744  0.7792
  181SOPE   C3820718   3.084   2.325   7.622  0.1380 -0.3677 -0.0273
  181SOPE   H8X20719   3.004   2.399   7.644  0.4167 -0.6279  2.1462
  181SOPE   H8Y20720   3.183   2.376   7.624  1.4373 -2.6247 -1.9260
  181SOPE   C3920721   3.082   2.208   7.711  0.2591  0.0611  0.1349
  181SOPE   H9X20722   3.170   2.143   7.691 -0.2185 -0.3224 -0.7638
  181SOPE   H9Y20723   2.992   2.148   7.686 -0.7389  1.2308  0.7486
  181SOPE  C31020724   3.091   2.242   7.865  0.0497 -0.2616 -0.3410
  181SOPE  H10X20725   2.987   2.261   7.901 -0.0990 -1.3540 -0.1749
  181SOPE  H10Y20726   3.165   2.323   7.884 -1.6927  0.8717  2.2235
  181SOPE  C31120727   3.135   2.119   7.944  0.0236  0.5779  0.1721
  181SOPE  H11X20728   3.197   2.056   7.876  1.7808 -1.2900  3.3022
  181SOPE  H11Y20729   3.037   2.070   7.964  0.5643  0.2175  2.1483
  181SOPE  C31220730   3.219   2.129   8.076  0.5771 -0.2526  0.4320
  181SOPE  H12X20731   3.323   2.138   8.038  0.2434  4.1483 -0.0222
  181SOPE  H12Y20732   3.200   2.031   8.125  1.2853 -1.0713 -0.8594
  181SOPE  C31320733   3.196   2.257   8.161 -0.5701  0.4968  1.0235
  181SOPE  H13X20734   3.086   2.248   8.173 -0.7730  0.1233 -0.7636
  181SOPE  H13Y20735   3.229   2.341   8.096  0.1462  0.4011  1.2576
  181SOPE  C31420736   3.260   2.246   8.306  0.4411  0.6299 -0.6869
  181SOPE  H14X20737   3.369   2.247   8.286  0.3934  0.7865 -0.9361
  181SOPE  H14Y20738   3.240   2.146   8.352  3.4247  0.4220  0.3888
  181SOPE  C31520739   3.220   2.355   8.398 -0.7685 -0.0699 -0.6232
  181SOPE  H15X20740   3.115   2.380   8.371 -0.8069 -0.9184 -1.2996
  181SOPE  H15Y20741   3.288   2.438   8.369  0.4310 -0.9147 -0.3201
  181SOPE  C31620742   3.236   2.330   8.554 -0.2618 -0.5070 -0.6411
  181SOPE  H16X20743   3.172   2.244   8.582  0.2265 -0.0619  2.1111
  181SOPE  H16Y20744   3.185   2.410   8.611  0.2587 -0.5236 -0.1503
  181SOPE  C31720745   3.378   2.322   8.601 -0.2973  0.3882 -0.5557
  181SOPE  H17X20746   3.442   2.408   8.571  2.9561 -1.6393  0.0224
  181SOPE  H17Y20747   3.427   2.235   8.553 -1.7041  0.7077 -2.6967
  181SOPE  C31820748   3.391   2.311   8.757  0.6143  0.0160  0.3426
  181SOPE  H18X20749   3.325   2.234   8.802 -1.6511  0.7430 -1.5220
  181SOPE  H18Y20750   3.353   2.408   8.798 -0.0773 -0.2410  0.3317
  181SOPE  H18Z20751   3.499   2.299   8.779  0.7670  1.4626  0.4839
  182SOPE     N20752   3.542   3.402   6.072  0.1734 -0.5323  0.3024
  182SOPE   HN120753   3.509   3.463   6.149 -0.4075  0.3490 -0.6189
  182SOPE   HN220754   3.645   3.406   6.080  0.3043 -1.8786 -0.3920
  182SOPE   HN320755   3.516   3.451   5.984  3.5557  0.1175 -0.4825
  182SOPE   C1220756   3.474   3.270   6.088  0.0968  0.6509  0.0272
  182SOPE  H12A20757   3.517   3.215   6.174 -1.4843  0.9915  1.0582
  182SOPE  H12B20758   3.482   3.203   5.999 -0.3034  1.1543 -0.3953
  182SOPE   C1120759   3.321   3.281   6.107 -0.2553  0.1080 -0.4290
  182SOPE  H11A20760   3.291   3.176   6.129  2.0785 -0.5338 -0.1298
  182SOPE  H11B20761   3.266   3.320   6.018 -0.7165  0.6493  0.0775
  182SOPE     P20762   3.262   3.508   6.244  0.4645  0.2038 -0.4514
  182SOPE   O1320763   3.173   3.555   6.138  0.1500 -0.0707 -0.1742
  182SOPE   O1420764   3.386   3.587   6.248 -0.0916  0.6462  0.2160
  182SOPE   O1220765   3.295   3.359   6.228 -0.1207  0.8042  0.4196
  182SOPE   O1120766   3.180   3.520   6.383 -0.3371 -0.1325  0.1085
  182SOPE    C120767   3.086   3.425   6.433 -0.2483  0.0098 -0.2661
  182SOPE    HA20768   3.065   3.341   6.363  2.1678 -0.6510 -0.3118
  182SOPE    HB20769   2.998   3.488   6.456  0.3186  0.3832  0.9339
  182SOPE    C220770   3.144   3.361   6.564  0.0267  0.1208 -0.1912
  182SOPE    HS20771   3.062   3.319   6.626 -0.8501  0.6834 -0.9584
  182SOPE   O2120772   3.215   3.463   6.642 -0.0716 -0.5114  0.4306
  182SOPE   C2120773   3.141   3.551   6.713  0.4187 -1.1575 -0.9210
  182SOPE   O2220774   3.021   3.543   6.721  0.5807 -0.2340  0.5044
  182SOPE   C2220775   3.233   3.646   6.794 -0.2260  0.9259 -0.0565
  182SOPE   H2R20776   3.193   3.749   6.794 -2.2008  0.2172 -1.1680
  182SOPE   H2S20777   3.327   3.649   6.735 -0.4588 -2.7818 -0.8776
  182SOPE    C320778   3.240   3.244   6.529  0.7694 -0.0412 -0.0589
  182SOPE    HX20779   3.325   3.285   6.470  0.2558  1.6815  0.3364
  182SOPE    HY20780   3.195   3.171   6.459 -0.5858  1.0230 -0.3367
  182SOPE   O3120781   3.298   3.182   6.647 -0.3985 -0.0177  0.3490
  182SOPE   C3120782   3.221   3.091   6.703 -0.2551 -0.7085  0.0834
  182SOPE   O3220783   3.129   3.028   6.658  0.1560 -0.0404  0.0019
  182SOPE   C3220784   3.268   3.068   6.844 -0.0028 -0.7436  0.4105
  182SOPE   H2X20785   3.374   3.034   6.850  0.0199 -0.7488 -0.0172
  182SOPE   H2Y20786   3.194   2.998   6.886 -2.0269  1.1953  0.2461
  182SOPE   C2320787   3.267   3.591   6.938  0.4339 -0.5196  0.6081
  182SOPE   H3R20788   3.369   3.547   6.937  0.2616 -0.9211  0.3426
  182SOPE   H3S20789   3.208   3.498   6.955  0.6535 -0.7354  0.2123
  182SOPE   C2420790   3.249   3.705   7.036  0.2378  0.3370 -0.5523
  182SOPE   H4R20791   3.304   3.682   7.130 -1.7006 -1.8196  0.1289
  182SOPE   H4S20792   3.299   3.792   6.988  2.6321 -1.8299 -2.2293
  182SOPE   C2520793   3.106   3.752   7.072 -0.6220 -0.2246 -0.1429
  182SOPE   H5R20794   3.118   3.851   7.121 -1.4508 -0.7863  1.2620
  182SOPE   H5S20795   3.047   3.758   6.978  0.1654 -3.6266 -1.0049
  182SOPE   C2620796   3.031   3.666   7.168  0.5867  0.4746 -0.7249
  182SOPE   H6R20797   2.931   3.714   7.178 -0.5078 -1.5646 -1.2878
  182SOPE   H6S20798   3.010   3.566   7.124  4.2677  0.0256 -1.8323
  182SOPE   C2720799   3.086   3.663   7.313 -0.1616 -0.0536 -0.5598
  182SOPE   H7R20800   3.183   3.610   7.301  0.1317  0.7793 -2.2179
  182SOPE   H7S20801   3.111   3.762   7.354  1.4529 -0.9121  0.6324
  182SOPE   C2820802   2.988   3.579   7.397 -0.8352 -0.1566 -0.1757
  182SOPE   H8R20803   2.966   3.480   7.352  1.7179 -0.6432 -0.5309
  182SOPE   H8S20804   3.046   3.560   7.490 -0.8657  1.1715  0.1252
  182SOPE   C2920805   2.872   3.667   7.436  0.3800 -0.6508  0.9248
  182SOPE   H9120806   2.797   3.665   7.356  2.2593 -0.8359 -0.9036
  182SOPE  C21020807   2.848   3.720   7.558  0.1252 -0.3779 -0.0389
  182SOPE  H10120808   2.760   3.784   7.570  0.7691  0.5521 -0.1473
  182SOPE  C21120809   2.933   3.703   7.681  0.0070  0.0934  0.0432
  182SOPE  H11R20810   2.919   3.797   7.737  2.1973  1.0083 -0.8084
  182SOPE  H11S20811   3.041   3.716   7.659 -0.2807  1.6050 -0.5669
  182SOPE  C21220812   2.906   3.577   7.771  0.2038  0.0597 -0.6835
  182SOPE  H12R20813   2.936   3.490   7.708  1.7403  0.5651 -0.6878
  182SOPE  H12S20814   2.795   3.571   7.772  0.2822 -1.7190  0.1808
  182SOPE  C21320815   2.977   3.576   7.908 -0.5429 -0.6442 -0.3174
  182SOPE  H13R20816   2.910   3.508   7.964 -0.3138 -0.4782  0.1651
  182SOPE  H13S20817   2.973   3.674   7.960 -0.0341 -2.0574  2.5210
  182SOPE  C21420818   3.117   3.523   7.908  0.1248 -0.1289  0.2303
  182SOPE  H14R20819   3.185   3.584   7.844  0.6436  1.0318  1.8235
  182SOPE  H14S20820   3.119   3.419   7.871 -2.6079 -0.0538 -0.2793
  182SOPE  C21520821   3.176   3.532   8.047 -0.8739  1.0182 -0.2446
  182SOPE  H15R20822   3.259   3.460   8.064  1.4631  3.0066 -2.3496
  182SOPE  H15S20823   3.091   3.508   8.115 -0.4610 -0.8251 -0.3306
  182SOPE  C21620824   3.217   3.675   8.086  0.4768  0.0972 -0.2623
  182SOPE  H16R20825   3.128   3.738   8.061 -0.6191 -1.4728 -0.4808
  182SOPE  H16S20826   3.298   3.713   8.020 -1.7043  0.7005 -2.8096
  182SOPE  C21720827   3.247   3.692   8.235 -0.3710  0.2400 -0.8520
  182SOPE  H17R20828   3.349   3.654   8.258 -0.0999  0.3360 -1.8630
  182SOPE  H17S20829   3.173   3.641   8.300  0.3513 -1.0536 -1.0068
  182SOPE  C21820830   3.239   3.837   8.276 -0.4361  0.2976 -0.3423
  182SOPE  H18R20831   3.134   3.872   8.284 -0.3299  0.9215 -1.4106
  182SOPE  H18S20832   3.296   3.895   8.199  0.1600 -0.4324 -0.4687
  182SOPE  H18T20833   3.298   3.860   8.367  0.0172  1.9349 -1.0023
  182SOPE   C3320834   3.284   3.192   6.928 -0.6296  0.0349  0.1249
  182SOPE   H3X20835   3.187   3.226   6.970 -0.4354  0.0709  0.5522
  182SOPE   H3Y20836   3.338   3.278   6.883 -0.8382  1.2910  2.1562
  182SOPE   C3420837   3.368   3.158   7.058  0.5262  0.0562  0.3925
  182SOPE   H4X20838   3.473   3.137   7.027  0.7074  1.1151  0.2172
  182SOPE   H4Y20839   3.320   3.068   7.100 -1.0251  1.1552  1.0826
  182SOPE   C3520840   3.366   3.275   7.155 -1.1468  0.3556 -0.0518
  182SOPE   H5X20841   3.263   3.315   7.171 -0.9035  1.7570 -1.7793
  182SOPE   H5Y20842   3.406   3.353   7.088  0.7047 -0.5759 -0.0928
  182SOPE   C3620843   3.441   3.249   7.283 -0.2199  0.3404  0.1823
  182SOPE   H6X20844   3.545   3.216   7.263 -0.5799 -1.2424  0.7431
  182SOPE   H6Y20845   3.395   3.169   7.345  2.4182  0.1436  2.0718
  182SOPE   C3720846   3.440   3.372   7.380 -0.2214  0.3013 -0.1853
  182SOPE   H7X20847   3.338   3.363   7.421  1.0012 -2.0928  2.6347
  182SOPE   H7Y20848   3.441   3.471   7.330  1.7707 -0.2712 -1.4139
  182SOPE   C3820849   3.539   3.355   7.491 -0.2280 -0.0043 -0.2496
  182SOPE   H8X20850   3.630   3.417   7.477 -1.9016  2.6916  0.1295
  182SOPE   H8Y20851   3.557   3.245   7.494  2.1131  0.3034 -0.7373
  182SOPE   C3920852   3.475   3.398   7.618 -1.1870 -0.4827 -0.7342
  182SOPE   H9X20853   3.377   3.345   7.629 -0.6098 -1.4250  0.0260
  182SOPE   H9Y20854   3.450   3.505   7.600  0.7534  0.2821  0.7442
  182SOPE  C31020855   3.561   3.392   7.744 -0.2222  0.2927  0.4506
  182SOPE  H10X20856   3.655   3.438   7.708 -0.8912  0.7973 -0.7423
  182SOPE  H10Y20857   3.581   3.285   7.764  1.5262  0.6213  0.5901
  182SOPE  C31120858   3.508   3.463   7.861  0.3945 -0.0745  0.0704
  182SOPE  H11X20859   3.416   3.412   7.898  1.2335 -1.5558  0.1625
  182SOPE  H11Y20860   3.484   3.571   7.847  0.2582 -0.2617 -1.2064
  182SOPE  C31220861   3.619   3.451   7.969  0.1911 -0.2780 -0.3626
  182SOPE  H12X20862   3.692   3.532   7.946 -0.4059  0.8061  1.3204
  182SOPE  H12Y20863   3.656   3.347   7.975 -1.1167 -0.6900  0.9138
  182SOPE  C31320864   3.559   3.486   8.110 -0.2168  0.4201  0.3058
  182SOPE  H13X20865   3.486   3.405   8.134 -1.6052  0.9661 -1.7315
  182SOPE  H13Y20866   3.501   3.581   8.108 -0.7631  0.1144  1.2512
  182SOPE  C31420867   3.655   3.483   8.227  0.1899 -0.3162 -0.5543
  182SOPE  H14X20868   3.742   3.544   8.193 -0.9655  1.6985 -0.0732
  182SOPE  H14Y20869   3.700   3.382   8.239 -1.1682 -1.1841 -2.3880
  182SOPE  C31520870   3.580   3.531   8.350 -0.4582  0.6551  0.3906
  182SOPE  H15X20871   3.486   3.473   8.354 -2.3365  3.4960  0.0585
  182SOPE  H15Y20872   3.550   3.638   8.346  0.2302  0.8253 -3.0449
  182SOPE  C31620873   3.654   3.510   8.483 -0.0181  0.1726 -0.0911
  182SOPE  H16X20874   3.679   3.401   8.481 -0.6700 -0.0741  2.1263
  182SOPE  H16Y20875   3.589   3.540   8.568  0.3993  3.1074 -0.7294
  182SOPE  C31720876   3.785   3.582   8.502 -0.1330  0.4105 -0.1880
  182SOPE  H17X20877   3.852   3.570   8.414 -1.0168  0.9233 -0.9567
  182SOPE  H17Y20878   3.828   3.536   8.593 -1.3061 -1.4166 -0.5040
  182SOPE  C31820879   3.760   3.737   8.519 -0.4546  0.0059  0.3233
  182SOPE  H18X20880   3.703   3.767   8.429  0.0098  0.3758  0.1480
  182SOPE  H18Y20881   3.859   3.786   8.532  0.3924 -1.8458  1.3528
  182SOPE  H18Z20882   3.701   3.750   8.613  0.1223  0.7875  0.5908
  183SOPE     N20883   3.676   2.591   6.074 -0.3458  0.4748  0.1932
  183SOPE   HN120884   3.663   2.536   6.161  2.5615 -0.0874  0.3713
  183SOPE   HN220885   3.586   2.578   6.024  0.1906 -1.1935 -0.3950
  183SOPE   HN320886   3.749   2.538   6.023 -0.3403 -0.8402  1.5019
  183SOPE   C1220887   3.709   2.729   6.103 -0.2014 -0.6112  0.4454
  183SOPE  H12A20888   3.618   2.792   6.112 -0.2296 -0.2209 -1.9781
  183SOPE  H12B20889   3.772   2.764   6.018  0.5964  0.2002  1.3444
  183SOPE   C1120890   3.785   2.760   6.231 -0.4566 -0.4629  0.4160
  183SOPE  H11A20891   3.707   2.746   6.309 -2.4212 -2.1475 -1.7067
  183SOPE  H11B20892   3.813   2.865   6.208 -2.1643 -0.2969 -1.1219
  183SOPE     P20893   4.020   2.726   6.328 -0.3904  0.4591  0.2064
  183SOPE   O1320894   4.058   2.853   6.270 -0.0685  0.1281 -0.1080
  183SOPE   O1420895   4.126   2.626   6.337  0.0674 -0.5719  0.6449
  183SOPE   O1220896   3.895   2.662   6.258  0.1861  0.3972 -0.1481
  183SOPE   O1120897   3.971   2.750   6.479  0.1840  0.1798  0.7887
  183SOPE    C120898   3.899   2.665   6.566 -0.4803 -0.3345  0.5085
  183SOPE    HA20899   3.959   2.661   6.660  1.6591  3.4668 -0.5152
  183SOPE    HB20900   3.891   2.566   6.515 -0.3305  1.7026 -3.8679
  183SOPE    C220901   3.764   2.730   6.614  0.5103  0.0883 -0.0546
  183SOPE    HS20902   3.714   2.771   6.523 -1.0768 -0.1788  0.6657
  183SOPE   O2120903   3.791   2.838   6.703  0.0602 -0.7654  1.1140
  183SOPE   C2120904   3.706   2.939   6.708  1.0853 -0.9855  0.6453
  183SOPE   O2220905   3.617   2.967   6.629 -0.6806 -0.2930  0.1502
  183SOPE   C2220906   3.733   3.019   6.833  0.1416 -0.0965  0.0482
  183SOPE   H2R20907   3.661   3.103   6.840 -2.0767 -1.9241  0.4445
  183SOPE   H2S20908   3.839   3.048   6.842  0.3762 -0.6565 -0.8281
  183SOPE    C320909   3.668   2.629   6.681 -0.3769 -0.3473  0.4313
  183SOPE    HX20910   3.727   2.581   6.763  0.6917 -0.1637 -0.1998
  183SOPE    HY20911   3.640   2.549   6.609 -2.1503  1.1352 -0.6184
  183SOPE   O3120912   3.545   2.696   6.731 -0.1155 -0.3491 -0.0599
  183SOPE   C3120913   3.443   2.626   6.741  0.4055 -0.3183  0.5647
  183SOPE   O3220914   3.444   2.505   6.751 -0.0291 -0.1745 -0.6443
  183SOPE   C3220915   3.320   2.716   6.742 -0.2857 -0.3782 -0.1315
  183SOPE   H2X20916   3.272   2.730   6.642  2.0441 -0.2367 -1.3085
  183SOPE   H2Y20917   3.358   2.820   6.759 -0.6607  0.6797 -4.5243
  183SOPE   C2320918   3.696   2.924   6.956  0.2509  0.2219 -0.3544
  183SOPE   H3R20919   3.755   2.830   6.944 -0.4096 -0.4546  1.4451
  183SOPE   H3S20920   3.592   2.887   6.952  0.4065 -0.3014  0.2201
  183SOPE   C2420921   3.731   2.978   7.091 -0.3469  0.3185 -0.4255
  183SOPE   H4R20922   3.841   2.997   7.092  0.0380 -1.6866  0.3574
  183SOPE   H4S20923   3.683   3.075   7.114 -0.9494  0.0947 -0.7079
  183SOPE   C2520924   3.705   2.881   7.211 -0.3193 -0.0036  0.7147
  183SOPE   H5R20925   3.637   2.799   7.179 -0.3424 -0.4901  1.9358
  183SOPE   H5S20926   3.810   2.844   7.220 -0.0976  0.8861  2.0214
  183SOPE   C2620927   3.664   2.943   7.348 -0.2699  0.2258  1.1128
  183SOPE   H6R20928   3.741   2.909   7.420  0.4766  0.7806  0.5945
  183SOPE   H6S20929   3.661   3.054   7.344 -0.3282  0.1966 -0.0517
  183SOPE   C2720930   3.523   2.903   7.379  0.0759  0.9269  0.0192
  183SOPE   H7R20931   3.452   2.964   7.319 -2.3175 -1.7854 -0.1120
  183SOPE   H7S20932   3.510   2.795   7.355 -0.5874  0.6448  1.5237
  183SOPE   C2820933   3.487   2.929   7.517  0.1351  0.0360 -0.2429
  183SOPE   H8R20934   3.518   3.028   7.556  2.9962 -0.4009 -1.1455
  183SOPE   H8S20935   3.377   2.930   7.534  0.2940  0.2768  0.8861
  183SOPE   C2920936   3.539   2.823   7.612  0.6582  0.1034  0.2321
  183SOPE   H9120937   3.473   2.735   7.610  0.9807 -0.2303  2.4413
  183SOPE  C21020938   3.631   2.836   7.702  0.2744  0.2607  0.4752
  183SOPE  H10120939   3.651   2.745   7.759 -0.1334  0.2189  0.5566
  183SOPE  C21120940   3.712   2.964   7.724  0.5721 -0.2798 -0.0418
  183SOPE  H11R20941   3.734   3.022   7.631  0.2277 -0.3979 -0.2000
  183SOPE  H11S20942   3.806   2.923   7.767 -0.0886 -0.8266  0.9196
  183SOPE  C21220943   3.647   3.044   7.838 -0.1190  0.8558  0.3686
  183SOPE  H12R20944   3.541   3.059   7.810 -0.3620 -1.7027 -0.2938
  183SOPE  H12S20945   3.710   3.135   7.849 -0.2542  1.0301 -0.2891
  183SOPE  C21320946   3.659   2.972   7.974  0.0000 -0.4108  0.4833
  183SOPE  H13R20947   3.764   2.955   8.008 -0.5318 -1.5191  1.6641
  183SOPE  H13S20948   3.606   2.875   7.964 -0.6024 -0.0834  0.4653
  183SOPE  C21420949   3.588   3.055   8.089 -0.0106  0.4939 -0.0438
  183SOPE  H14R20950   3.487   3.090   8.057 -1.5097 -2.3307  1.2021
  183SOPE  H14S20951   3.652   3.145   8.095  0.4472  0.1276  0.6971
  183SOPE  C21520952   3.592   2.980   8.217  0.6330  0.1533 -0.2973
  183SOPE  H15R20953   3.683   2.916   8.225 -1.1791 -2.5220  0.2235
  183SOPE  H15S20954   3.503   2.914   8.230 -0.7137  2.1550  1.0968
  183SOPE  C21620955   3.575   3.066   8.339 -0.2140 -1.3103 -0.1583
  183SOPE  H16R20956   3.661   3.135   8.350 -1.5680  0.2025  1.5694
  183SOPE  H16S20957   3.571   3.005   8.432  2.6654  0.4221  1.2290
  183SOPE  C21720958   3.454   3.154   8.329 -0.0880 -1.2931 -0.3586
  183SOPE  H17R20959   3.366   3.092   8.299 -0.2425 -1.4552  0.4132
  183SOPE  H17S20960   3.477   3.235   8.256  1.1338 -1.8720 -0.6373
  183SOPE  C21820961   3.406   3.221   8.454  0.0700  0.0364  0.4758
  183SOPE  H18R20962   3.475   3.251   8.536 -0.2331  0.0503  0.7291
  183SOPE  H18S20963   3.350   3.143   8.510  2.2546  0.3377  3.3305
  183SOPE  H18T20964   3.347   3.310   8.424  2.3098  0.6385 -2.5725
  183SOPE   C3320965   3.210   2.679   6.848  0.0780  0.4174  0.4754
  183SOPE   H3X20966   3.174   2.573   6.853  0.2912  0.3863  3.4833
  183SOPE   H3Y20967   3.128   2.749   6.824  0.1870  0.8029  1.1858
  183SOPE   C3420968   3.264   2.713   6.990 -0.4056 -0.0449  0.1881
  183SOPE   H4X20969   3.310   2.813   7.007  2.8784 -1.6176  1.3773
  183SOPE   H4Y20970   3.343   2.639   7.014  0.7015 -0.0437 -2.9610
  183SOPE   C3520971   3.149   2.698   7.098  0.2179 -0.7449  0.0465
  183SOPE   H5X20972   3.091   2.606   7.081  0.0924 -0.3495 -1.8051
  183SOPE   H5Y20973   3.076   2.781   7.084 -1.4159 -1.7408  2.0977
  183SOPE   C3620974   3.206   2.704   7.239  0.0037  0.8407 -0.4691
  183SOPE   H6X20975   3.265   2.795   7.263  0.7271  0.2667 -0.0476
  183SOPE   H6Y20976   3.279   2.623   7.259 -1.0831  0.3378  1.7362
  183SOPE   C3720977   3.099   2.694   7.352  0.0991  0.3606 -0.0807
  183SOPE   H7X20978   3.033   2.606   7.340  1.7647 -0.8807 -0.5105
  183SOPE   H7Y20979   3.037   2.786   7.359  0.9970  1.0986 -1.2431
  183SOPE   C3820980   3.163   2.689   7.485 -0.0656  0.3197  0.4383
  183SOPE   H8X20981   3.246   2.762   7.498  1.0057 -0.3381 -2.1263
  183SOPE   H8Y20982   3.216   2.591   7.487 -0.9903 -0.1994 -0.1498
  183SOPE   C3920983   3.078   2.701   7.608  0.0449 -0.2045 -0.0966
  183SOPE   H9X20984   2.991   2.634   7.623 -0.7899  1.1734  1.4882
  183SOPE   H9Y20985   3.019   2.795   7.599 -2.0180 -1.4286  0.2454
  183SOPE  C31020986   3.167   2.697   7.737  0.1387 -0.2580 -0.4090
  183SOPE  H10X20987   3.252   2.768   7.731 -1.2399  1.5063  0.2430
  183SOPE  H10Y20988   3.229   2.604   7.739 -0.5337 -0.7098 -0.3171
  183SOPE  C31120989   3.104   2.703   7.875  0.3806 -0.4022  0.3586
  183SOPE  H11X20990   3.035   2.616   7.883  1.7572 -1.5302  0.2219
  183SOPE  H11Y20991   3.052   2.801   7.889  0.1942 -0.7695  2.5845
  183SOPE  C31220992   3.202   2.692   7.995 -0.0897  0.8509  0.2664
  183SOPE  H12X20993   3.277   2.775   7.994  0.9456 -0.0599  0.4598
  183SOPE  H12Y20994   3.268   2.603   7.986  1.7813  2.1653  0.3764
  183SOPE  C31320995   3.129   2.715   8.125  0.0416 -0.3277 -0.2943
  183SOPE  H13X20996   3.051   2.639   8.145 -1.6398  1.1784 -0.8431
  183SOPE  H13Y20997   3.081   2.814   8.108  0.6880 -0.0157 -0.3518
  183SOPE  C31420998   3.229   2.724   8.245  0.4063  0.1733 -0.6107
  183SOPE  H14X20999   3.324   2.769   8.208  0.9717  0.0559  0.6480
  183SOPE  H14Y21000   3.240   2.620   8.285 -0.2863  0.2841 -0.1088
  183SOPE  C31521001   3.174   2.803   8.370  0.3952  0.1961  0.2825
  183SOPE  H15X21002   3.075   2.769   8.408 -0.0738  0.0549 -0.9989
  183SOPE  H15Y21003   3.162   2.903   8.323 -2.8558 -0.2789 -0.1343
  183SOPE  C31621004   3.275   2.814   8.487  0.3818 -0.7213 -0.6035
  183SOPE  H16X21005   3.238   2.895   8.554  0.4561 -2.4972  1.7025
  183SOPE  H16Y21006   3.370   2.849   8.442 -0.2280  2.9234  0.5794
  183SOPE  C31721007   3.288   2.685   8.571 -0.4763  0.0509 -1.4416
  183SOPE  H17X21008   3.386   2.688   8.622 -0.6899  0.6099 -1.0467
  183SOPE  H17Y21009   3.290   2.599   8.501 -0.4570 -0.2771 -1.0322
  183SOPE  C31821010   3.179   2.671   8.681  0.2831  0.2442  0.3656
  183SOPE  H18X21011   3.082   2.658   8.628 -0.8588  0.3579  2.2927
  183SOPE  H18Y21012   3.159   2.761   8.743 -2.0585  0.2909 -0.3580
  183SOPE  H18Z21013   3.206   2.583   8.743 -3.2019  0.7804  3.0276
  184SOPE     N21014   4.093   2.425   6.154 -0.6268 -0.0106  0.0071
  184SOPE   HN121015   3.996   2.431   6.115 -0.5199 -0.0656 -0.2722
  184SOPE   HN221016   4.101   2.518   6.200 -0.2885  0.1439 -0.3599
  184SOPE   HN321017   4.173   2.426   6.087 -0.4384 -1.5647  0.1830
  184SOPE   C1221018   4.093   2.311   6.246 -0.7056  0.0238 -0.1886
  184SOPE  H12A21019   4.194   2.313   6.293 -1.2517 -1.4475  1.1330
  184SOPE  H12B21020   4.080   2.217   6.187  1.4350  0.1319 -0.9208
  184SOPE   C1121021   3.983   2.334   6.350 -0.4525  0.3830 -0.9712
  184SOPE  H11A21022   4.015   2.417   6.417 -3.2554  0.2591  0.6861
  184SOPE  H11B21023   3.967   2.238   6.404  0.0982  1.4006  1.1177
  184SOPE     P21024   3.717   2.323   6.320 -0.2385  0.1466 -0.3205
  184SOPE   O1321025   3.696   2.187   6.262  0.2045  0.5206  0.0935
  184SOPE   O1421026   3.616   2.420   6.270  0.4379 -0.6725 -0.3136
  184SOPE   O1221027   3.863   2.376   6.282 -0.2459 -0.0931  0.0961
  184SOPE   O1121028   3.704   2.317   6.477 -0.0894 -0.0538  0.3770
  184SOPE    C121029   3.599   2.239   6.539 -0.1789 -0.4896  0.0914
  184SOPE    HA21030   3.552   2.161   6.476 -1.2540  0.8977 -0.8876
  184SOPE    HB21031   3.515   2.309   6.561  1.1373  0.8146  1.1672
  184SOPE    C221032   3.631   2.166   6.676 -0.1360 -0.3682  0.5921
  184SOPE    HS21033   3.535   2.112   6.689 -1.6340  1.7413 -0.9516
  184SOPE   O2121034   3.664   2.276   6.769  0.5159 -0.4505 -0.3742
  184SOPE   C2121035   3.618   2.255   6.896 -0.9134 -0.7727  0.1306
  184SOPE   O2221036   3.552   2.162   6.932 -1.2691 -0.5284  0.7254
  184SOPE   C2221037   3.645   2.377   6.989 -0.0598 -0.2154 -0.2251
  184SOPE   H2R21038   3.606   2.467   6.937 -0.0413  0.6575  1.2263
  184SOPE   H2S21039   3.755   2.379   7.004 -0.2058 -0.6674  0.9659
  184SOPE    C321040   3.744   2.058   6.662 -0.1205  0.1211 -0.5502
  184SOPE    HX21041   3.839   2.110   6.636 -0.2506  1.5631  1.5511
  184SOPE    HY21042   3.715   1.991   6.578 -0.2756 -0.3783 -0.1027
  184SOPE   O3121043   3.750   1.974   6.783 -0.3159  0.0930  0.7424
  184SOPE   C3121044   3.824   2.019   6.881 -0.1977 -0.4325 -0.2642
  184SOPE   O3221045   3.887   2.127   6.883  0.1612 -0.1312  0.2175
  184SOPE   C3221046   3.826   1.920   6.996 -0.1097  0.2158 -0.6902
  184SOPE   H2X21047   3.851   1.823   6.947  3.6906  1.1737 -0.9541
  184SOPE   H2Y21048   3.724   1.923   7.040  0.1494  0.4644 -0.0962
  184SOPE   C2321049   3.574   2.370   7.118 -0.0531  0.0251 -0.1051
  184SOPE   H3R21050   3.465   2.355   7.100 -0.0821  1.3162 -1.1848
  184SOPE   H3S21051   3.587   2.465   7.175 -0.6853  0.0020  0.0882
  184SOPE   C2421052   3.633   2.270   7.214 -0.1469  0.8497  0.2170
  184SOPE   H4R21053   3.604   2.169   7.177 -0.1061  0.0357  2.2709
  184SOPE   H4S21054   3.744   2.272   7.207 -0.1941 -0.3203 -4.9938
  184SOPE   C2521055   3.579   2.279   7.359  0.4804 -0.3218  0.1496
  184SOPE   H5R21056   3.469   2.289   7.357  0.6480  2.2321 -1.8950
  184SOPE   H5S21057   3.612   2.187   7.412  0.0942 -1.1365 -0.9938
  184SOPE   C2621058   3.627   2.398   7.435 -0.1560 -1.1786 -0.1717
  184SOPE   H6R21059   3.726   2.369   7.477  0.8222 -0.0491 -1.5994
  184SOPE   H6S21060   3.642   2.491   7.375 -0.5887  0.5496  2.2546
  184SOPE   C2721061   3.538   2.430   7.554 -0.2320 -0.9926 -0.5903
  184SOPE   H7R21062   3.578   2.514   7.615 -2.4061 -0.9163  0.8488
  184SOPE   H7S21063   3.435   2.457   7.523  0.4096  0.8047 -1.3425
  184SOPE   C2821064   3.520   2.311   7.650 -0.3002  0.5056 -0.5186
  184SOPE   H8R21065   3.462   2.345   7.739 -0.5933  1.0547 -0.9118
  184SOPE   H8S21066   3.457   2.233   7.601 -1.7945 -0.0860  2.1299
  184SOPE   C2921067   3.649   2.257   7.696 -0.2961 -0.4949  0.8762
  184SOPE   H9121068   3.688   2.169   7.643 -2.3136  0.2194 -2.0452
  184SOPE  C21021069   3.719   2.317   7.795  0.2857 -0.4164  0.2064
  184SOPE  H10121070   3.818   2.279   7.824  0.6446  0.4106  0.0644
  184SOPE  C21121071   3.674   2.441   7.866 -0.7485 -0.0014 -0.0691
  184SOPE  H11R21072   3.576   2.480   7.828 -0.4127  1.1646  0.2088
  184SOPE  H11S21073   3.739   2.530   7.853 -0.7042 -0.2300 -1.5979
  184SOPE  C21221074   3.661   2.416   8.020  0.4950  0.2533  0.0278
  184SOPE  H12R21075   3.745   2.372   8.078 -1.5116 -1.0836  2.0496
  184SOPE  H12S21076   3.579   2.342   8.034  0.8704 -0.4291 -1.2499
  184SOPE  C21321077   3.626   2.545   8.090  0.5223 -0.4399  0.2222
  184SOPE  H13R21078   3.528   2.590   8.062 -0.5142 -1.3747  2.1285
  184SOPE  H13S21079   3.700   2.626   8.074  0.7847 -0.2080  2.2812
  184SOPE  C21421080   3.621   2.522   8.239 -0.3396  0.6269 -0.0123
  184SOPE  H14R21081   3.715   2.468   8.266 -0.1464  0.4138 -1.0812
  184SOPE  H14S21082   3.542   2.454   8.278  2.0899 -1.5804  1.4793
  184SOPE  C21521083   3.618   2.651   8.327  0.3078 -0.1571 -0.4820
  184SOPE  H15R21084   3.518   2.698   8.309 -0.6246 -1.2064  1.5789
  184SOPE  H15S21085   3.700   2.720   8.297 -0.9463  1.9303  0.6344
  184SOPE  C21621086   3.638   2.616   8.480  0.1503  0.2014  0.0438
  184SOPE  H16R21087   3.705   2.529   8.495  0.9682  0.9167  0.6432
  184SOPE  H16S21088   3.539   2.584   8.520  0.0817  0.0736 -0.2260
  184SOPE  C21721089   3.698   2.736   8.551 -0.5413 -0.0696 -0.2594
  184SOPE  H17R21090   3.613   2.793   8.593 -0.5747 -0.3283  0.0318
  184SOPE  H17S21091   3.758   2.801   8.484  1.9496 -0.2319  1.6442
  184SOPE  C21821092   3.795   2.690   8.663  0.3415  0.2953  0.3376
  184SOPE  H18R21093   3.735   2.631   8.736  0.7754  0.9034  1.1951
  184SOPE  H18S21094   3.836   2.781   8.710 -1.4085  1.4463 -0.2559
  184SOPE  H18T21095   3.886   2.631   8.638  1.5438  1.8357  0.9235
  184SOPE   C3321096   3.924   1.957   7.112  0.3340  0.0658  0.2276
  184SOPE   H3X21097   3.893   2.054   7.158 -3.0402  0.5006 -2.5651
  184SOPE   H3Y21098   4.024   1.970   7.065 -0.5277  1.4791 -1.3281
  184SOPE   C3421099   3.927   1.857   7.223  0.2673  0.4451  0.2706
  184SOPE   H4X21100   3.966   1.761   7.183 -1.2333  0.6898 -1.9687
  184SOPE   H4Y21101   3.826   1.823   7.256  0.0446  1.1952  0.3921
  184SOPE   C3521102   4.014   1.902   7.335  0.0469 -0.2374 -0.1046
  184SOPE   H5X21103   3.961   1.995   7.368  0.1082  0.0535 -0.8009
  184SOPE   H5Y21104   4.116   1.936   7.307  0.5383 -1.4523  0.1880
  184SOPE   C3621105   4.020   1.785   7.432 -0.0211 -0.7554  0.0949
  184SOPE   H6X21106   4.076   1.706   7.377 -0.6600 -2.9909  2.4538
  184SOPE   H6Y21107   3.916   1.748   7.446 -0.3044  0.8460  3.0737
  184SOPE   C3721108   4.084   1.815   7.566 -0.0036  0.9366  0.4423
  184SOPE   H7X21109   4.185   1.859   7.551  0.0628  0.6881  0.1475
  184SOPE   H7Y21110   4.107   1.718   7.614  3.2337  0.8821 -0.9554
  184SOPE   C3821111   4.013   1.930   7.638  0.4841  0.5329 -0.2692
  184SOPE   H8X21112   3.912   1.885   7.651  1.4152 -1.3610  0.7736
  184SOPE   H8Y21113   4.003   2.025   7.581 -1.3985 -0.7232 -2.2129
  184SOPE   C3921114   4.064   1.960   7.778  0.0903 -0.0477  0.4134
  184SOPE   H9X21115   4.147   2.033   7.775  0.7989 -0.8139  0.7310
  184SOPE   H9Y21116   4.107   1.869   7.825  0.3107  0.2620  0.8138
  184SOPE  C31021117   3.964   2.020   7.873  0.2266 -0.7267 -1.0074
  184SOPE  H10X21118   3.877   1.954   7.897 -0.5491  0.0566 -1.5874
  184SOPE  H10Y21119   3.918   2.109   7.825 -1.9080 -0.7737  0.7657
  184SOPE  C31121120   4.032   2.060   8.005 -0.1025  0.4158 -0.7265
  184SOPE  H11X21121   4.134   2.017   8.007 -0.7783 -1.2758 -0.2410
  184SOPE  H11Y21122   3.977   2.005   8.085  0.3856 -0.0881 -0.7285
  184SOPE  C31221123   4.024   2.208   8.038  0.8038  0.3952 -0.3383
  184SOPE  H12X21124   3.920   2.244   8.024  0.2191 -1.2813 -0.4140
  184SOPE  H12Y21125   4.092   2.262   7.968 -0.3562  1.1512 -0.9084
  184SOPE  C31321126   4.052   2.238   8.191  0.0137  0.8891 -0.0302
  184SOPE  H13X21127   4.135   2.176   8.232  0.0578 -0.7870 -2.4365
  184SOPE  H13Y21128   3.952   2.222   8.238  0.8325 -1.7517  1.0288
  184SOPE  C31421129   4.094   2.382   8.216 -0.1291 -0.0598 -0.7028
  184SOPE  H14X21130   4.014   2.456   8.195  0.1657  0.7575  0.9109
  184SOPE  H14Y21131   4.180   2.417   8.154  2.8846  0.8312  3.5569
  184SOPE  C31521132   4.134   2.426   8.359  0.6393  0.1883 -1.7860
  184SOPE  H15X21133   4.050   2.402   8.428  1.3136  0.8204 -0.7198
  184SOPE  H15Y21134   4.157   2.533   8.379 -1.0919 -0.1023  2.8343
  184SOPE  C31621135   4.260   2.352   8.399 -0.1857 -0.0250 -1.3304
  184SOPE  H16X21136   4.342   2.364   8.325  1.8588  0.4230  0.8976
  184SOPE  H16Y21137   4.233   2.247   8.424 -0.5061  0.7976  2.2136
  184SOPE  C31721138   4.310   2.400   8.543 -0.6988  0.3580  0.2441
  184SOPE  H17X21139   4.338   2.507   8.529 -1.9078  0.5670 -0.6724
  184SOPE  H17Y21140   4.399   2.340   8.571  0.1531  1.3265 -0.3154
  184SOPE  C31821141   4.203   2.383   8.658 -0.3523  0.5691  0.3806
  184SOPE  H18X21142   4.172   2.277   8.662  0.4489  0.1376 -2.4891
  184SOPE  H18Y21143   4.117   2.450   8.635  1.3642  2.3818 -1.2359
  184SOPE  H18Z21144   4.241   2.402   8.761 -0.4646  0.1847  0.4917
  185SAPI   C1221145   0.845   5.820  10.847 -0.2778  0.7812  0.2410
  185SAPI    H221146   0.809   5.798  10.744 -2.7568  1.0956  0.9747
  185SAPI    O221147   0.987   5.809  10.859 -0.0669  0.6908  0.2849
  185SAPI   HO221148   1.008   5.720  10.892  3.3784  1.5551  0.8457
  185SAPI   C1321149   0.805   5.954  10.888 -0.0521 -0.4960  0.3297
  185SAPI    H321150   0.694   5.953  10.884 -0.0236 -0.9288 -0.9044
  185SAPI    O321151   0.852   6.055  10.797  0.3089  0.3565  0.2312
  185SAPI   HO321152   0.938   6.025  10.764 -0.2681  1.1499 -2.2646
  185SAPI   C1421153   0.844   5.989  11.031  0.1696  0.0785  0.0909
  185SAPI    H421154   0.953   6.000  11.048  0.0078 -0.8244  1.9645
  185SAPI    O421155   0.794   6.120  11.065 -0.3856 -0.2181  0.2304
  185SAPI   HO421156   0.860   6.173  11.110 -0.9916  0.0779  0.7794
  185SAPI   C1521157   0.784   5.889  11.132 -0.2835  0.0583  0.0769
  185SAPI    H521158   0.673   5.892  11.119 -0.1748 -0.1833 -0.9801
  185SAPI    O521159   0.818   5.914  11.270  0.0546  0.2590 -0.3378
  185SAPI   HO521160   0.750   5.872  11.323 -1.7836  3.4823  0.1168
  185SAPI   C1621161   0.836   5.751  11.091 -0.4928  0.0703 -0.1809
  185SAPI    H621162   0.947   5.750  11.102 -0.5541 -0.3485  0.4424
  185SAPI    O621163   0.793   5.646  11.177  0.5878 -0.1516 -0.1994
  185SAPI   HO621164   0.847   5.570  11.154  0.7419 -0.5078  1.2497
  185SAPI   C1121165   0.789   5.721  10.952  0.4450 -0.9148 -0.0775
  185SAPI    H121166   0.679   5.722  10.959  0.4424 -0.1278 -0.0781
  185SAPI     P21167   0.783   5.495  10.792 -0.2622 -0.0284  0.3967
  185SAPI   O1321168   0.639   5.488  10.790  0.4635  0.5163 -0.5597
  185SAPI   O1421169   0.853   5.367  10.817 -0.2271 -0.6448  0.3052
  185SAPI   O1221170   0.841   5.593  10.904 -0.2281  0.6635 -0.1742
  185SAPI   O1121171   0.831   5.565  10.661 -0.6237 -0.2301 -0.3380
  185SAPI    C121172   0.970   5.566  10.621 -0.0476 -0.2037  0.1154
  185SAPI    HA21173   1.007   5.668  10.649  1.0530 -1.4556  3.7239
  185SAPI    HB21174   1.029   5.489  10.674 -0.0180 -0.6813 -0.5996
  185SAPI    C221175   0.982   5.543  10.469  0.2906  0.2535  0.5220
  185SAPI    HS21176   1.086   5.537  10.432  0.3757  0.8579  0.6580
  185SAPI   O2121177   0.907   5.650  10.401 -0.1248  0.4047  0.0029
  185SAPI   C2121178   0.979   5.758  10.376  0.0105  0.2211 -0.6209
  185SAPI   O2221179   1.097   5.775  10.408  0.0861 -0.6460 -0.6531
  185SAPI   C2221180   0.890   5.846  10.292 -0.2792  0.1277  0.4567
  185SAPI   H2R21181   0.788   5.809  10.269 -0.3252 -0.4870  1.5845
  185SAPI   H2S21182   0.872   5.937  10.353  0.1159  0.3359  0.2670
  185SAPI    C321183   0.923   5.404  10.432  0.4414 -0.1042  0.8044
  185SAPI    HX21184   0.812   5.408  10.440  0.2147  0.0023 -1.6724
  185SAPI    HY21185   0.961   5.328  10.503 -2.3163  0.0805  2.6324
  185SAPI   O3121186   0.973   5.390  10.294 -0.3989  0.0528 -0.5315
  185SAPI   C3121187   0.890   5.367  10.201  1.1631  0.2092  0.1112
  185SAPI   O3221188   0.768   5.347  10.211 -0.3626 -0.6087 -0.4903
  185SAPI   C3221189   0.962   5.367  10.064  0.0749  0.0276  0.1129
  185SAPI   H2X21190   1.050   5.300  10.063  1.1621  1.3971  0.3723
  185SAPI   H2Y21191   0.997   5.472  10.056 -0.7291  0.2774 -0.1775
  185SAPI   C2321192   0.956   5.894  10.160  0.4167  0.5004  0.4906
  185SAPI   H3R21193   1.065   5.900  10.177  0.2904 -1.9409  2.9384
  185SAPI   H3S21194   0.912   5.992  10.131 -2.1704 -0.6683  0.1740
  185SAPI   C2421195   0.922   5.786  10.051  0.0853 -0.8546  0.2484
  185SAPI   H4R21196   0.893   5.690  10.099 -3.2475  0.8839  2.0692
  185SAPI   H4S21197   1.017   5.777   9.993 -0.6981  1.0895 -1.4714
  185SAPI   C2521198   0.800   5.832   9.969 -0.2455 -0.4205 -0.1767
  185SAPI   H5R21199   0.699   5.833  10.012 -0.1750  1.9585  0.0723
  185SAPI   C2621200   0.811   5.887   9.846 -0.9630  0.5929  0.1375
  185SAPI   H6R21201   0.719   5.917   9.794 -0.6615 -1.3028 -1.6299
  185SAPI   C2721202   0.934   5.914   9.761 -0.2468  0.4716  0.4657
  185SAPI   H7R21203   1.018   5.902   9.832 -1.6742 -1.4466  1.9552
  185SAPI   H7S21204   0.920   6.019   9.729 -1.0986  0.1731 -0.1800
  185SAPI   C2821205   0.938   5.818   9.646 -0.1322 -0.4148  0.7569
  185SAPI   H8R21206   0.974   5.718   9.675  2.8100  1.3307  3.8123
  185SAPI   C2921207   0.921   5.848   9.511  0.3422  0.5638 -0.5626
  185SAPI   H9R21208   0.947   5.773   9.434 -0.5507 -0.4686  0.1100
  185SAPI  C21021209   0.892   5.986   9.451  0.1751  0.1265 -0.5745
  185SAPI  H10R21210   0.984   6.014   9.395 -1.0924  1.5443 -2.0645
  185SAPI  H10S21211   0.883   6.059   9.534  0.3110  0.1549 -0.5848
  185SAPI  C21121212   0.766   5.999   9.375  0.0795  0.5131 -0.3110
  185SAPI  H11R21213   0.679   6.046   9.424 -0.7627  0.6112 -1.8454
  185SAPI  C21221214   0.759   5.971   9.241  0.3817 -0.0381  0.0839
  185SAPI  H12R21215   0.662   5.994   9.194  0.0051 -0.0573  0.8391
  185SAPI  C21321216   0.866   5.916   9.156 -0.5256  0.0780  0.5975
  185SAPI  H13R21217   0.905   5.831   9.216  1.0205  1.7836  2.1685
  185SAPI  H13S21218   0.947   5.992   9.160 -1.3857  0.9914  1.2352
  185SAPI  C21421219   0.831   5.886   9.010 -1.5828 -0.8298  0.0715
  185SAPI  H14R21220   0.772   5.795   8.992  0.0566 -2.0702  0.6930
  185SAPI  C21521221   0.841   5.968   8.906  0.2697  0.1018  0.2286
  185SAPI  H15R21222   0.808   5.937   8.807  1.2194  2.7159 -1.0033
  185SAPI  C21621223   0.890   6.108   8.908  0.2360 -0.5102  0.4443
  185SAPI  H16R21224   0.929   6.140   9.007 -0.5366 -1.3559  1.0327
  185SAPI  H16S21225   0.811   6.185   8.892  1.7895  0.5629 -2.9774
  185SAPI  C21721226   0.988   6.131   8.792  0.6578  0.2756  0.0067
  185SAPI  H17R21227   1.018   6.238   8.791  0.9045  0.2071 -1.8182
  185SAPI  H17S21228   0.936   6.106   8.698  0.0707  2.4768 -0.3043
  185SAPI  C21821229   1.121   6.055   8.803 -0.0884  0.1221 -0.2180
  185SAPI  H18R21230   1.106   5.948   8.779  0.0214 -0.1311  0.8242
  185SAPI  H18S21231   1.158   6.054   8.907 -2.7194  0.1340  0.7908
  185SAPI  C21921232   1.241   6.120   8.714 -0.5389  0.0690 -0.9856
  185SAPI  H19R21233   1.338   6.069   8.730 -0.1780  1.0459  0.0689
  185SAPI  H19S21234   1.251   6.222   8.757 -0.8829 -0.4290  0.3263
  185SAPI  C22021235   1.207   6.123   8.560 -0.2401 -0.6374  0.2802
  185SAPI  H20R21236   1.210   6.021   8.516 -0.1544 -0.6160  0.2373
  185SAPI  H20S21237   1.272   6.194   8.505 -1.1688 -0.2972 -0.3926
  185SAPI  H20T21238   1.106   6.165   8.543  0.1196 -0.3798 -1.3367
  185SAPI   C3321239   0.868   5.347   9.945  0.3395 -0.2793 -0.8934
  185SAPI   H3X21240   0.778   5.412   9.953 -0.3479 -1.2440 -0.7541
  185SAPI   H3Y21241   0.838   5.241   9.951  2.7732 -0.9490  0.9639
  185SAPI   C3421242   0.916   5.394   9.805 -1.1982  0.5611 -0.1267
  185SAPI   H4X21243   1.007   5.337   9.776 -2.4693 -0.6843 -1.8684
  185SAPI   H4Y21244   0.951   5.497   9.828 -0.5226 -0.0125  1.5028
  185SAPI   C3521245   0.811   5.395   9.688  0.1549  0.0058  0.1833
  185SAPI   H5X21246   0.729   5.465   9.715  0.1949  0.3488 -0.5710
  185SAPI   H5Y21247   0.768   5.293   9.675  0.3337  0.0622 -0.9163
  185SAPI   C3621248   0.879   5.439   9.559 -0.0740 -1.0621  0.0817
  185SAPI   H6X21249   0.978   5.394   9.538  0.3311 -0.6732  1.0968
  185SAPI   H6Y21250   0.903   5.547   9.576  3.7245 -1.0897 -3.4307
  185SAPI   C3721251   0.793   5.425   9.433  0.2660  0.4371 -0.3463
  185SAPI   H7X21252   0.691   5.466   9.445 -0.4461 -1.7790  2.0593
  185SAPI   H7Y21253   0.780   5.317   9.413  0.2059  0.1215  1.2957
  185SAPI   C3821254   0.855   5.492   9.304  0.1548 -0.1492  0.0630
  185SAPI   H8X21255   0.870   5.600   9.328 -0.3039  0.5261 -2.4799
  185SAPI   H8Y21256   0.789   5.475   9.217  1.0679 -0.2810 -0.6280
  185SAPI   C3921257   0.989   5.420   9.265 -0.1686 -0.0459 -1.3849
  185SAPI   H9X21258   0.969   5.318   9.225  1.6703 -1.8866  1.9403
  185SAPI   H9Y21259   1.052   5.404   9.355  2.0412  0.6341 -2.7175
  185SAPI  C31021260   1.069   5.495   9.155  0.4364 -0.2272 -0.1436
  185SAPI  H10X21261   1.163   5.440   9.135  1.3858  0.7884  1.3034
  185SAPI  H10Y21262   1.112   5.589   9.198  0.1909  0.0711 -0.5437
  185SAPI  C31121263   0.995   5.518   9.026  0.1939  0.2598 -0.5269
  185SAPI  H11X21264   0.913   5.591   9.044  1.6869  2.2694 -1.4583
  185SAPI  H11Y21265   0.960   5.418   8.993 -1.1400  0.0289  1.3929
  185SAPI  C31221266   1.078   5.590   8.914 -0.3470 -0.0223 -0.5485
  185SAPI  H12X21267   1.160   5.522   8.881 -2.6190 -2.5284 -1.4438
  185SAPI  H12Y21268   1.117   5.688   8.948 -2.3013  0.4084  0.5678
  185SAPI  C31321269   0.990   5.631   8.792  0.2471 -0.4227 -0.1495
  185SAPI  H13X21270   0.947   5.732   8.811  0.8846 -0.1836  0.0432
  185SAPI  H13Y21271   0.904   5.561   8.790 -1.1832  1.2557 -0.6166
  185SAPI  C31421272   1.066   5.637   8.657  0.1869  0.7464 -0.0216
  185SAPI  H14X21273   1.088   5.538   8.611 -1.0799  0.2830  0.3077
  185SAPI  H14Y21274   1.163   5.684   8.681  0.2276  0.5518  0.1995
  185SAPI  C31521275   0.995   5.726   8.551  0.4127  0.0002  0.0865
  185SAPI  H15X21276   1.010   5.832   8.579  1.0430 -0.2698  0.7987
  185SAPI  H15Y21277   0.887   5.698   8.561  0.0256  0.0907 -2.8638
  185SAPI  C31621278   1.044   5.698   8.413 -0.7965 -0.7312  0.1725
  185SAPI  H16X21279   1.045   5.589   8.393 -0.9424 -0.6670 -0.1906
  185SAPI  H16Y21280   1.146   5.739   8.396 -0.8870 -1.4512 -2.5454
  185SAPI  C31721281   0.959   5.775   8.315  0.0461 -0.0406  0.4455
  185SAPI  H17X21282   0.956   5.885   8.331  1.5057  0.1528 -0.4808
  185SAPI  H17Y21283   0.857   5.735   8.336  0.1506 -0.6945 -0.2893
  185SAPI  C31821284   1.008   5.757   8.165  1.0040 -0.1773 -0.5379
  185SAPI  H18X21285   0.998   5.649   8.142 -0.5103 -0.5052  1.3496
  185SAPI  H18Y21286   1.112   5.794   8.179  0.6425 -0.1230  2.8788
  185SAPI  H18Z21287   0.948   5.816   8.093  0.2722 -0.2333  0.0153
  186SAPI   C1221288   1.525   4.029  10.771 -0.5777 -0.4956 -0.5688
  186SAPI    H221289   1.496   3.971  10.861 -0.1030  1.9619  1.2902
  186SAPI    O221290   1.514   3.956  10.651 -0.6053 -0.1255 -0.3617
  186SAPI   HO221291   1.564   3.875  10.663 -1.2671 -0.9679 -2.6456
  186SAPI   C1321292   1.424   4.150  10.778 -1.3267 -0.2012  0.0448
  186SAPI    H321293   1.436   4.213  10.869 -1.7909  0.7905 -0.5611
  186SAPI    O321294   1.286   4.106  10.779  0.0208  0.2810 -0.1070
  186SAPI   HO321295   1.263   4.099  10.871  1.1104 -0.3497  0.1399
  186SAPI   C1421296   1.461   4.240  10.662 -0.6931  0.2431  1.3888
  186SAPI    H421297   1.445   4.191  10.563 -0.7496  1.6425  0.6846
  186SAPI    O421298   1.385   4.357  10.673 -0.2675  0.3420  0.1851
  186SAPI   HO421299   1.341   4.358  10.588 -2.5228 -3.4490  1.0686
  186SAPI   C1521300   1.611   4.281  10.667  0.3075  0.0306 -0.2858
  186SAPI    H521301   1.622   4.334  10.763  1.6927  0.6771 -0.7765
  186SAPI    O521302   1.631   4.361  10.549  0.5039 -0.2855 -0.5495
  186SAPI   HO521303   1.720   4.395  10.556  0.0528  0.6815  0.8270
  186SAPI   C1621304   1.706   4.168  10.670  0.1729  0.4496 -0.7320
  186SAPI    H621305   1.695   4.112  10.574 -2.1102  0.7333 -0.7082
  186SAPI    O621306   1.842   4.222  10.678  0.0708 -0.6547 -0.5496
  186SAPI   HO621307   1.908   4.155  10.660  1.3488  0.4516 -0.1632
  186SAPI   C1121308   1.671   4.078  10.790  0.8608  0.1738 -0.4062
  186SAPI    H121309   1.687   4.147  10.875  0.2097 -1.3871  1.0241
  186SAPI     P21310   1.907   3.956  10.858  0.1935 -0.5794 -0.2573
  186SAPI   O1321311   1.931   3.814  10.897 -0.0907  0.1272  0.3608
  186SAPI   O1421312   1.916   4.059  10.959 -0.2339  0.0716  0.7153
  186SAPI   O1221313   1.752   3.959  10.803 -0.6238  0.1237  0.2751
  186SAPI   O1121314   2.001   4.004  10.735 -0.2068  0.6827 -0.2699
  186SAPI    C121315   2.004   3.927  10.613  0.8739 -0.5517 -0.6248
  186SAPI    HA21316   2.075   3.844  10.634 -0.0953 -1.2566 -0.0220
  186SAPI    HB21317   1.905   3.884  10.585  2.2896 -2.1664 -3.5222
  186SAPI    C221318   2.060   4.007  10.489  0.1872  0.9589  0.0725
  186SAPI    HS21319   2.164   4.021  10.527 -0.3018  0.0890  1.8539
  186SAPI   O2121320   1.984   4.116  10.450  0.9634  0.0827 -0.3383
  186SAPI   C2121321   2.055   4.218  10.403  0.0761  1.2718 -0.7456
  186SAPI   O2221322   2.175   4.219  10.387 -0.1853 -0.0543  0.2180
  186SAPI   C2221323   1.963   4.326  10.385 -0.9218 -0.6521 -0.0759
  186SAPI   H2R21324   1.865   4.291  10.345  0.0131 -1.1828 -2.0272
  186SAPI   H2S21325   1.957   4.375  10.484  1.0806 -2.0626  0.7917
  186SAPI    C321326   2.071   3.902  10.369  0.0717 -0.2858  0.5886
  186SAPI    HX21327   1.969   3.861  10.359 -0.5659  1.4635 -0.5995
  186SAPI    HY21328   2.128   3.813  10.404 -1.1268 -1.3289 -0.0249
  186SAPI   O3121329   2.124   3.961  10.247  0.7342 -0.0947 -0.0071
  186SAPI   C3121330   2.263   3.961  10.224  0.9660  0.0434  0.0614
  186SAPI   O3221331   2.348   3.916  10.298  0.1447 -0.4359 -0.1332
  186SAPI   C3221332   2.293   4.019  10.086  0.7799  0.1707  0.6199
  186SAPI   H2X21333   2.287   4.129  10.099 -0.4029  0.1319  0.5306
  186SAPI   H2Y21334   2.216   3.983  10.015  1.8278 -1.2097  0.1332
  186SAPI   C2321335   2.036   4.427  10.294 -0.0426 -0.5391  0.2059
  186SAPI   H3R21336   2.072   4.398  10.193 -0.3479  2.4601 -0.8763
  186SAPI   H3S21337   2.126   4.462  10.349  0.9193  0.6510 -1.9806
  186SAPI   C2421338   1.950   4.555  10.280 -0.4340  0.7925  0.3627
  186SAPI   H4R21339   2.021   4.628  10.235  0.9963 -0.3760  0.6616
  186SAPI   H4S21340   1.926   4.600  10.379 -0.7025  0.6322  0.3712
  186SAPI   C2521341   1.835   4.518  10.196 -0.2404 -0.0466 -0.5763
  186SAPI   H5R21342   1.747   4.487  10.253 -0.5991  0.4074 -0.8790
  186SAPI   C2621343   1.809   4.535  10.065 -0.8406 -0.3178  0.1465
  186SAPI   H6R21344   1.712   4.496  10.031 -2.5030  1.6472  2.3240
  186SAPI   C2721345   1.911   4.594   9.965 -0.6428  0.5869 -0.1294
  186SAPI   H7R21346   2.008   4.559  10.006  0.9179  1.1071 -3.0924
  186SAPI   H7S21347   1.921   4.705   9.971 -0.2591  0.5871 -0.6992
  186SAPI   C2821348   1.877   4.549   9.827  0.0279 -0.4309  0.5127
  186SAPI   H8R21349   1.770   4.551   9.799  0.5130  0.1005 -1.3981
  186SAPI   C2921350   1.950   4.490   9.733 -0.4787 -0.3485  0.0722
  186SAPI   H9R21351   1.904   4.466   9.636 -0.7634 -0.8350  0.3270
  186SAPI  C21021352   2.098   4.453   9.746 -0.9879 -0.5133  0.9297
  186SAPI  H10R21353   2.155   4.536   9.792 -1.3133 -0.0783  0.5522
  186SAPI  H10S21354   2.146   4.438   9.647 -2.3654 -2.2172  0.4574
  186SAPI  C21121355   2.124   4.323   9.821  0.7049 -0.1190 -0.5740
  186SAPI  H11R21356   2.162   4.349   9.921  1.8143 -0.3917 -0.9077
  186SAPI  C21221357   2.088   4.194   9.790  0.2238  0.5435 -0.3739
  186SAPI  H12R21358   2.089   4.112   9.862 -0.1064  0.7831 -0.0952
  186SAPI  C21321359   2.020   4.160   9.655  0.0170 -0.4947 -0.3015
  186SAPI  H13R21360   2.027   4.249   9.589 -2.3851  1.3288  1.7108
  186SAPI  H13S21361   1.911   4.153   9.676 -0.0160 -0.3866 -0.4367
  186SAPI  C21421362   2.062   4.029   9.590 -0.1683  0.3031 -0.3805
  186SAPI  H14R21363   2.093   3.949   9.658  0.4172  0.1760 -0.7920
  186SAPI  C21521364   2.065   4.003   9.460  0.1704  0.3551  0.0418
  186SAPI  H15R21365   2.086   3.898   9.433 -1.3131  0.2744 -0.8975
  186SAPI  C21621366   2.024   4.087   9.338 -1.1259  0.1649  0.5872
  186SAPI  H16R21367   1.975   4.178   9.378  1.7320  2.2918 -0.4720
  186SAPI  H16S21368   1.942   4.047   9.274  0.1858 -2.1665  0.2663
  186SAPI  C21721369   2.145   4.134   9.265 -0.6484  0.3952  0.3908
  186SAPI  H17R21370   2.215   4.179   9.339  0.7598 -0.8929 -0.0947
  186SAPI  H17S21371   2.128   4.214   9.190  0.1911 -0.2989 -0.5661
  186SAPI  C21821372   2.208   4.022   9.175  0.1283  0.4102  0.3486
  186SAPI  H18R21373   2.242   3.936   9.237 -1.1387 -0.5084 -0.1968
  186SAPI  H18S21374   2.290   4.078   9.125 -1.3485  2.6008  0.2716
  186SAPI  C21921375   2.112   3.980   9.060 -0.0155 -0.4088 -0.1251
  186SAPI  H19R21376   2.093   4.065   8.991  0.1974 -0.9295 -0.8312
  186SAPI  H19S21377   2.015   3.936   9.090  0.5582 -2.5003 -1.1666
  186SAPI  C22021378   2.180   3.884   8.967 -0.2473  0.0140 -0.1473
  186SAPI  H20R21379   2.124   3.855   8.875  1.6060  1.8416 -1.9629
  186SAPI  H20S21380   2.194   3.783   9.012  0.3016  0.8170  1.5693
  186SAPI  H20T21381   2.280   3.914   8.929 -1.2478 -0.8471 -3.9072
  186SAPI   C3321382   2.419   3.970  10.016  0.6374 -0.0915  0.0654
  186SAPI   H3X21383   2.409   3.859  10.010 -0.2001  0.0531 -1.5602
  186SAPI   H3Y21384   2.504   4.000  10.081 -0.6943  0.9450  1.4197
  186SAPI   C3421385   2.440   4.028   9.879  0.6184  0.3426 -0.0617
  186SAPI   H4X21386   2.426   4.138   9.870  2.7288  0.6287 -0.4831
  186SAPI   H4Y21387   2.360   3.988   9.812 -0.3567  1.0438  0.6633
  186SAPI   C3521388   2.579   3.990   9.819 -0.7719  1.0454  0.0861
  186SAPI   H5X21389   2.582   3.880   9.832 -0.6917  1.2431  2.0288
  186SAPI   H5Y21390   2.665   4.026   9.880  0.8909 -1.6130 -0.4851
  186SAPI   C3621391   2.600   4.035   9.673 -0.1282 -0.6398 -0.6327
  186SAPI   H6X21392   2.710   4.031   9.661 -0.0372 -1.4906  0.3806
  186SAPI   H6Y21393   2.571   4.142   9.682 -1.6160 -1.1383  1.2681
  186SAPI   C3721394   2.512   3.965   9.569 -0.6969  0.2119 -0.0387
  186SAPI   H7X21395   2.413   4.016   9.573 -1.4927 -1.3031  0.7022
  186SAPI   H7Y21396   2.497   3.857   9.593  1.7451 -0.0603  0.5026
  186SAPI   C3821397   2.559   3.972   9.421  0.6182 -0.1506 -1.1606
  186SAPI   H8X21398   2.506   3.907   9.348  1.9449 -2.5180 -0.1136
  186SAPI   H8Y21399   2.664   3.935   9.420  0.9886  0.8542 -0.4504
  186SAPI   C3921400   2.547   4.111   9.356  0.1337  0.8522  0.2740
  186SAPI   H9X21401   2.611   4.177   9.419  0.2521 -0.8601  2.0593
  186SAPI   H9Y21402   2.440   4.141   9.355 -0.2864 -0.5241  1.0651
  186SAPI  C31021403   2.582   4.105   9.210  0.0970 -0.5786 -0.0712
  186SAPI  H10X21404   2.521   4.024   9.163 -3.4914  1.0526  1.4845
  186SAPI  H10Y21405   2.686   4.067   9.199 -0.0153 -1.6402  2.0947
  186SAPI  C31121406   2.570   4.233   9.130 -0.1289 -0.5861  0.7927
  186SAPI  H11X21407   2.639   4.305   9.178 -1.7197  0.6440  1.3292
  186SAPI  H11Y21408   2.471   4.281   9.146  1.1383  2.1968  0.7290
  186SAPI  C31221409   2.602   4.214   8.984 -0.3648  0.0599 -0.0962
  186SAPI  H12X21410   2.547   4.124   8.949  0.9790 -0.2826 -1.4765
  186SAPI  H12Y21411   2.712   4.200   8.977 -0.0992  1.6763  0.4350
  186SAPI  C31321412   2.565   4.327   8.893  0.3071 -0.0998  0.1121
  186SAPI  H13X21413   2.580   4.430   8.933 -1.5533 -0.0567  0.7840
  186SAPI  H13Y21414   2.456   4.326   8.872  0.6075 -0.0797 -1.6038
  186SAPI  C31421415   2.639   4.335   8.759  0.2415 -0.1909  0.3396
  186SAPI  H14X21416   2.614   4.247   8.696 -2.2214  0.8409 -0.2614
  186SAPI  H14Y21417   2.748   4.338   8.779  0.6167 -1.0612 -1.3912
  186SAPI  C31521418   2.597   4.453   8.676 -0.3665  0.1767 -0.2393
  186SAPI  H15X21419   2.621   4.545   8.733  0.2007 -0.1474  0.0526
  186SAPI  H15Y21420   2.486   4.458   8.670 -0.3453  1.2718  0.1224
  186SAPI  C31621421   2.664   4.461   8.543 -0.5134 -0.9423 -0.9041
  186SAPI  H16X21422   2.634   4.375   8.481  0.5607 -0.8441 -1.5848
  186SAPI  H16Y21423   2.773   4.460   8.565 -0.6022  1.7319  0.0457
  186SAPI  C31721424   2.632   4.584   8.463 -0.1777 -0.2580 -0.5424
  186SAPI  H17X21425   2.526   4.618   8.457  0.1187  0.7435 -0.2316
  186SAPI  H17Y21426   2.647   4.553   8.358 -0.5791  2.8224 -1.6028
  186SAPI  C31821427   2.719   4.698   8.502 -0.1210 -1.1570  0.4704
  186SAPI  H18X21428   2.712   4.734   8.606  2.6687  0.7622  0.0951
  186SAPI  H18Y21429   2.686   4.786   8.443 -1.2386  0.3840  3.2267
  186SAPI  H18Z21430   2.826   4.673   8.484  1.2655  1.9224  3.4067
  187SAPI   C1221431   2.967   6.126   6.595 -0.3346 -0.1419  0.0969
  187SAPI    H221432   2.996   6.215   6.535  1.0463  0.9104  2.2110
  187SAPI    O221433   3.038   6.138   6.718  0.0968 -0.1814  0.5052
  187SAPI   HO221434   3.131   6.115   6.707 -0.1552 -0.6746 -0.7555
  187SAPI   C1321435   2.817   6.109   6.625  0.3418 -0.3286 -0.5077
  187SAPI    H321436   2.766   6.095   6.528 -0.8891 -0.7403  0.1791
  187SAPI    O321437   2.760   6.227   6.691  0.0865 -0.3121  0.3477
  187SAPI   HO321438   2.829   6.242   6.756  1.9090 -1.8542 -1.0956
  187SAPI   C1421439   2.789   5.985   6.707  0.0489 -0.3139  0.2755
  187SAPI    H421440   2.832   5.991   6.809 -2.0108 -1.4101  1.2611
  187SAPI    O421441   2.649   5.968   6.737 -0.1619  0.3797  0.0738
  187SAPI   HO421442   2.616   6.001   6.821 -1.0933  1.0252 -0.5230
  187SAPI   C1521443   2.838   5.858   6.638  0.2757 -0.3636  0.0839
  187SAPI    H521444   2.789   5.856   6.538 -1.0714 -1.8850  0.7215
  187SAPI    O521445   2.825   5.735   6.720  0.1067 -0.1352  0.3260
  187SAPI   HO521446   2.733   5.712   6.735  0.4910 -0.3719  2.8848
  187SAPI   C1621447   2.983   5.871   6.606 -0.4270  0.0245  0.1629
  187SAPI    H621448   3.040   5.876   6.701 -0.8257  1.7325  0.3502
  187SAPI    O621449   3.035   5.759   6.537  0.1192 -0.5263 -0.2324
  187SAPI   HO621450   3.131   5.760   6.536  0.1247 -1.0538 -0.6048
  187SAPI   C1121451   3.012   5.999   6.520  0.4338  0.5934  0.5200
  187SAPI    H121452   2.947   6.005   6.430 -1.4967 -2.0472  1.5830
  187SAPI     P21453   3.210   5.972   6.343  0.0960  0.4138 -0.2460
  187SAPI   O1321454   3.320   6.054   6.293 -0.1371 -0.1767  0.4397
  187SAPI   O1421455   3.100   5.941   6.250 -0.4734  0.1856  0.9405
  187SAPI   O1221456   3.151   6.027   6.490  0.2012 -0.0843  0.0428
  187SAPI   O1121457   3.282   5.838   6.377  0.0373  0.3547 -0.2199
  187SAPI    C121458   3.406   5.822   6.445 -0.8734  0.2672 -0.7293
  187SAPI    HA21459   3.484   5.817   6.366 -0.2955 -2.9748 -0.0934
  187SAPI    HB21460   3.418   5.909   6.513 -2.5945 -0.2987  0.3805
  187SAPI    C221461   3.409   5.692   6.541 -0.2588  0.1377  0.1087
  187SAPI    HS21462   3.384   5.619   6.462  2.3085 -0.1216 -0.5435
  187SAPI   O2121463   3.306   5.709   6.635  0.1353  0.4558  0.4851
  187SAPI   C2121464   3.261   5.601   6.695 -0.7134 -0.0207  0.3216
  187SAPI   O2221465   3.292   5.485   6.669  0.3003 -0.0740 -0.6424
  187SAPI   C2221466   3.167   5.630   6.815 -0.2470 -0.2620 -0.3348
  187SAPI   H2R21467   3.066   5.639   6.768 -0.0976  1.2109 -0.4165
  187SAPI   H2S21468   3.165   5.541   6.881  1.4821 -1.5422 -1.8990
  187SAPI    C321469   3.547   5.655   6.614 -0.3603  0.8254 -0.0523
  187SAPI    HX21470   3.628   5.647   6.538  0.7284 -0.1360  1.1594
  187SAPI    HY21471   3.538   5.549   6.644  1.0743  0.0524 -2.1411
  187SAPI   O3121472   3.592   5.743   6.716 -0.5090  0.8413  0.0984
  187SAPI   C3121473   3.577   5.689   6.835  0.1217  0.3364 -0.1743
  187SAPI   O3221474   3.509   5.594   6.870 -0.4243  0.3175 -0.0245
  187SAPI   C3221475   3.680   5.753   6.928  0.1274 -0.0859 -0.4211
  187SAPI   H2X21476   3.649   5.859   6.942  1.4598  0.5060 -1.6884
  187SAPI   H2Y21477   3.774   5.761   6.870  1.3792 -0.5798  1.4605
  187SAPI   C2321478   3.207   5.759   6.888 -0.0719 -0.6480  0.1776
  187SAPI   H3R21479   3.195   5.846   6.821 -0.6870 -0.3035  0.7191
  187SAPI   H3S21480   3.316   5.766   6.909 -0.3258  0.7722  1.1724
  187SAPI   C2421481   3.137   5.784   7.020 -0.2874  0.2100 -0.4190
  187SAPI   H4R21482   3.150   5.692   7.081 -0.4391 -0.6151 -1.6128
  187SAPI   H4S21483   3.027   5.788   7.002 -0.5843 -1.0504  0.8997
  187SAPI   C2521484   3.186   5.912   7.086  0.5894  0.6661 -0.2825
  187SAPI   H5R21485   3.164   6.007   7.035  2.6420  2.3305  1.7681
  187SAPI   C2621486   3.249   5.924   7.208 -0.6678  0.1506  0.1111
  187SAPI   H6R21487   3.274   6.025   7.243 -1.2455  0.3381 -0.0132
  187SAPI   C2721488   3.290   5.804   7.289 -0.4785  0.8826 -0.0917
  187SAPI   H7R21489   3.292   5.714   7.223 -2.2057 -0.1579  1.1894
  187SAPI   H7S21490   3.215   5.779   7.366  0.1496 -0.3888  0.1480
  187SAPI   C2821491   3.428   5.824   7.356 -0.1304 -0.1012  0.4070
  187SAPI   H8R21492   3.510   5.818   7.284 -0.6276 -2.2162 -0.0604
  187SAPI   C2921493   3.462   5.841   7.485 -0.3207 -0.0518 -0.1936
  187SAPI   H9R21494   3.570   5.846   7.506 -0.5924 -0.9124  1.6084
  187SAPI  C21021495   3.370   5.833   7.596  0.0581 -0.2774  0.2240
  187SAPI  H10R21496   3.264   5.814   7.567 -0.7076  0.8452  2.1118
  187SAPI  H10S21497   3.372   5.934   7.642  0.7494 -0.3468  0.3441
  187SAPI  C21121498   3.395   5.724   7.697  0.4156 -0.8189 -0.3920
  187SAPI  H11R21499   3.340   5.632   7.671 -1.6168 -0.3709  1.9395
  187SAPI  C21221500   3.467   5.733   7.805 -0.2193 -0.6692 -1.0744
  187SAPI  H12R21501   3.470   5.650   7.877  1.0204  0.8006  0.6633
  187SAPI  C21321502   3.535   5.852   7.867 -0.2913  0.3477 -0.2800
  187SAPI  H13R21503   3.535   5.942   7.801  1.5215  1.7013  1.4266
  187SAPI  H13S21504   3.644   5.829   7.875 -0.3572  0.3294  0.6581
  187SAPI  C21421505   3.455   5.889   7.988 -0.4308  0.5614  0.2295
  187SAPI  H14R21506   3.367   5.951   7.967 -0.9463  0.1118  1.0049
  187SAPI  C21521507   3.490   5.870   8.116 -0.5373 -0.4747 -0.6179
  187SAPI  H15R21508   3.416   5.910   8.187 -1.0801 -0.8607 -0.9552
  187SAPI  C21621509   3.616   5.802   8.153  0.2283 -0.3162  0.1354
  187SAPI  H16R21510   3.689   5.883   8.173 -0.3010  0.0807  0.5085
  187SAPI  H16S21511   3.653   5.738   8.070 -0.6615  1.6700 -1.8990
  187SAPI  C21721512   3.588   5.706   8.269  1.3781  0.1315 -0.5683
  187SAPI  H17R21513   3.511   5.629   8.248  1.8678 -0.3624 -0.5805
  187SAPI  H17S21514   3.557   5.773   8.351  0.6800 -0.0771 -0.6604
  187SAPI  C21821515   3.722   5.650   8.331 -0.5606 -0.3084 -0.7631
  187SAPI  H18R21516   3.795   5.733   8.342  0.9626 -1.4681 -1.7044
  187SAPI  H18S21517   3.767   5.582   8.255  1.6104 -1.1907  1.1833
  187SAPI  C21921518   3.701   5.570   8.455  0.9357  0.0026 -0.7477
  187SAPI  H19R21519   3.637   5.622   8.529  0.5713  0.7855 -1.6030
  187SAPI  H19S21520   3.795   5.548   8.511  0.3228 -2.1813 -0.4921
  187SAPI  C22021521   3.626   5.435   8.434  0.0659 -0.2936 -0.6119
  187SAPI  H20R21522   3.689   5.369   8.369  0.3947  2.0596 -2.8289
  187SAPI  H20S21523   3.536   5.452   8.371 -0.3527 -0.9440 -0.1996
  187SAPI  H20T21524   3.593   5.379   8.523 -1.4265 -0.0390 -0.9832
  187SAPI   C3321525   3.691   5.689   7.067  0.8222 -0.7140  0.2759
  187SAPI   H3X21526   3.719   5.581   7.057 -4.0403 -2.0101 -2.3113
  187SAPI   H3Y21527   3.590   5.681   7.112  1.0200 -3.7216  0.4190
  187SAPI   C3421528   3.785   5.768   7.159 -0.5633 -0.1116 -0.2394
  187SAPI   H4X21529   3.757   5.874   7.172 -2.5217 -0.6707  0.3963
  187SAPI   H4Y21530   3.883   5.757   7.106 -1.3197 -0.1967 -1.6699
  187SAPI   C3521531   3.817   5.709   7.294 -0.6769 -0.4925 -0.2111
  187SAPI   H5X21532   3.870   5.614   7.272 -0.5650 -0.5177  0.1678
  187SAPI   H5Y21533   3.734   5.698   7.367 -0.5499  1.4682  0.2857
  187SAPI   C3621534   3.914   5.795   7.380 -0.5006 -0.4375 -0.2873
  187SAPI   H6X21535   3.868   5.896   7.372  1.5622  0.5041 -0.9022
  187SAPI   H6Y21536   4.020   5.786   7.348 -0.3007 -0.5242  0.3885
  187SAPI   C3721537   3.913   5.747   7.521  0.2683 -0.0410  0.2198
  187SAPI   H7X21538   3.948   5.643   7.534 -0.9225 -0.4981 -0.1060
  187SAPI   H7Y21539   3.805   5.736   7.547  0.3369  0.8883  0.9538
  187SAPI   C3821540   3.978   5.844   7.622 -0.0575 -0.2504  0.2712
  187SAPI   H8X21541   3.944   5.950   7.614  2.3517  0.5670  0.1862
  187SAPI   H8Y21542   4.088   5.847   7.605 -0.4358  1.5380 -2.7633
  187SAPI   C3921543   3.954   5.808   7.771  0.3866 -0.0017 -0.1783
  187SAPI   H9X21544   3.991   5.705   7.788  0.7123 -0.1756 -1.7461
  187SAPI   H9Y21545   3.843   5.816   7.781  0.2378  0.4735 -1.8157
  187SAPI  C31021546   4.029   5.913   7.864  0.7977  0.4328  0.4033
  187SAPI  H10X21547   3.984   6.012   7.840  2.5187  1.5746  1.6814
  187SAPI  H10Y21548   4.134   5.904   7.829 -0.0863  0.1471 -2.4165
  187SAPI  C31121549   4.015   5.885   8.009 -0.0618 -0.8630  0.3083
  187SAPI  H11X21550   3.908   5.862   8.029 -0.0936  0.1668  1.4579
  187SAPI  H11Y21551   4.035   5.975   8.071  2.0931 -0.6822 -0.5596
  187SAPI  C31221552   4.107   5.780   8.061  0.0937 -0.1812  0.0675
  187SAPI  H12X21553   4.207   5.828   8.066 -0.1068  0.2389  0.0596
  187SAPI  H12Y21554   4.127   5.700   7.986 -0.9158 -0.4792  0.1063
  187SAPI  C31321555   4.070   5.716   8.193  0.1209  0.0472  0.8248
  187SAPI  H13X21556   4.135   5.628   8.209  0.5177  0.4428  1.4473
  187SAPI  H13Y21557   3.965   5.681   8.181  0.1191 -0.0522  1.1447
  187SAPI  C31421558   4.097   5.804   8.314  0.3191  0.5010  0.4776
  187SAPI  H14X21559   4.010   5.870   8.334  0.4163  0.8049 -0.0926
  187SAPI  H14Y21560   4.192   5.862   8.309  1.5018 -1.3918 -0.1033
  187SAPI  C31521561   4.106   5.719   8.437  0.4213 -0.0329 -0.2200
  187SAPI  H15X21562   4.197   5.655   8.435  1.6294  1.6222 -0.1165
  187SAPI  H15Y21563   4.015   5.656   8.437  2.5235 -3.3228  0.4158
  187SAPI  C31621564   4.112   5.799   8.567  0.8439 -0.1768  0.5968
  187SAPI  H16X21565   4.035   5.876   8.549  0.8325 -0.2629  0.2690
  187SAPI  H16Y21566   4.206   5.855   8.587  0.6367 -0.8690  4.1066
  187SAPI  C31721567   4.094   5.717   8.697 -0.1885  0.9443  0.1240
  187SAPI  H17X21568   4.185   5.658   8.719  0.4451  2.2545  1.1941
  187SAPI  H17Y21569   4.012   5.648   8.666 -1.1646  2.2884 -0.3781
  187SAPI  C31821570   4.057   5.803   8.812  0.3574  0.1497  0.4205
  187SAPI  H18X21571   4.038   5.733   8.896 -0.1838  1.2254  1.2228
  187SAPI  H18Y21572   3.969   5.860   8.776  1.4635  0.0682 -2.6557
  187SAPI  H18Z21573   4.141   5.874   8.832  1.1356 -0.3957 -0.7933
  188SAPI   C1221574   0.741   2.381   6.382 -0.3978  0.0491 -0.5200
  188SAPI    H221575   0.782   2.371   6.485 -0.1859  0.8886 -0.5138
  188SAPI    O221576   0.697   2.519   6.385 -0.5215  0.5875  0.1949
  188SAPI   HO221577   0.674   2.525   6.478 -0.6180 -0.2203  0.2282
  188SAPI   C1321578   0.852   2.360   6.287  0.1900  0.3989  0.2244
  188SAPI    H321579   0.883   2.254   6.292 -1.1838  0.0552  2.9514
  188SAPI    O321580   0.968   2.432   6.332  0.5004  0.0785  0.3472
  188SAPI   HO321581   0.941   2.522   6.351  0.9324  0.3033 -0.0805
  188SAPI   C1421582   0.810   2.394   6.145 -0.5440  0.9984  0.1462
  188SAPI    H421583   0.779   2.501   6.146  0.0934  1.1902 -0.1294
  188SAPI    O421584   0.915   2.377   6.046  0.1128 -0.1173 -0.2785
  188SAPI   HO421585   0.952   2.289   6.049  1.9266  0.5968 -0.0303
  188SAPI   C1521586   0.688   2.310   6.114  0.0085 -0.2386  0.0291
  188SAPI    H521587   0.721   2.204   6.119  1.4765  0.2139  0.3514
  188SAPI    O521588   0.638   2.327   5.977 -0.7057  0.3112  0.1183
  188SAPI   HO521589   0.550   2.292   5.987  0.5624 -2.6174  2.7212
  188SAPI   C1621590   0.572   2.314   6.217  0.3227  0.2458 -0.1022
  188SAPI    H621591   0.512   2.407   6.206 -1.4111 -1.0927 -3.6265
  188SAPI    O621592   0.469   2.219   6.186  0.4188 -0.3266  0.5181
  188SAPI   HO621593   0.411   2.206   6.260  0.1127  1.1389  0.5724
  188SAPI   C1121594   0.626   2.280   6.351 -0.9579  0.1315 -0.7180
  188SAPI    H121595   0.669   2.178   6.352  0.6865  0.4881  5.4151
  188SAPI     P21596   0.452   2.158   6.512 -0.0479 -0.4186 -0.2739
  188SAPI   O1321597   0.537   2.038   6.523  0.0882  0.2798  0.3442
  188SAPI   O1421598   0.336   2.150   6.429 -0.2801  0.7232 -0.2338
  188SAPI   O1221599   0.537   2.287   6.462  0.0104 -0.3532  0.1036
  188SAPI   O1121600   0.398   2.192   6.659 -0.6026 -0.0267  0.1200
  188SAPI    C121601   0.360   2.330   6.676  0.2092 -0.1846  0.1314
  188SAPI    HA21602   0.449   2.383   6.717 -0.2922  0.0961  0.8629
  188SAPI    HB21603   0.329   2.379   6.581 -1.3193 -0.5623  0.4136
  188SAPI    C221604   0.235   2.351   6.769  0.1882 -0.1830  0.0167
  188SAPI    HS21605   0.144   2.329   6.710 -0.1282  1.7934 -0.3174
  188SAPI   O2121606   0.238   2.486   6.808 -0.3173  0.4509 -0.1412
  188SAPI   C2121607   0.200   2.583   6.723  0.5153  0.2024  0.1731
  188SAPI   O2221608   0.178   2.567   6.603  0.1533  0.1149 -0.3493
  188SAPI   C2221609   0.205   2.704   6.805  0.1380  0.2430  0.1547
  188SAPI   H2R21610   0.140   2.674   6.890 -0.4023 -0.5414 -0.5269
  188SAPI   H2S21611   0.312   2.723   6.828  0.0758 -0.5501  1.1385
  188SAPI    C321612   0.254   2.257   6.887 -0.0213 -0.5577  0.0208
  188SAPI    HX21613   0.352   2.277   6.935  1.1435  0.3443 -2.5562
  188SAPI    HY21614   0.271   2.155   6.847  2.2855 -0.3619  0.3480
  188SAPI   O3121615   0.146   2.275   6.985  0.6971 -0.3511 -0.0203
  188SAPI   C3121616   0.169   2.219   7.105  0.6757 -0.2176  0.0793
  188SAPI   O3221617   0.273   2.159   7.132 -0.0652 -0.1442  0.5340
  188SAPI   C3221618   0.058   2.261   7.200  0.3175  0.0093  0.2460
  188SAPI   H2X21619  -0.035   2.205   7.175  0.5916 -0.7886  0.9703
  188SAPI   H2Y21620   0.031   2.367   7.183  1.5950  0.3770  0.3800
  188SAPI   C2321621   0.155   2.828   6.724 -0.2309 -0.0458 -0.4377
  188SAPI   H3R21622   0.047   2.816   6.705 -0.6117 -0.8775  1.9276
  188SAPI   H3S21623   0.210   2.844   6.629 -0.7438 -1.2857 -0.9703
  188SAPI   C2421624   0.161   2.956   6.807  0.2199  0.8962 -0.1829
  188SAPI   H4R21625   0.111   3.037   6.750 -0.5148  2.0078  1.9191
  188SAPI   H4S21626   0.267   2.976   6.833  1.0808 -0.8045 -2.0704
  188SAPI   C2521627   0.080   2.958   6.930  0.4966 -0.0190 -0.2892
  188SAPI   H5R21628  -0.028   2.975   6.915 -0.3686 -4.1134  0.0475
  188SAPI   C2621629   0.111   2.943   7.060 -0.1524  0.3230  0.1046
  188SAPI   H6R21630   0.023   2.941   7.125 -1.9891  1.8418 -2.1584
  188SAPI   C2721631   0.250   2.916   7.104  0.1730  0.1807 -0.3262
  188SAPI   H7R21632   0.291   3.004   7.158  1.0144 -0.1441 -0.4235
  188SAPI   H7S21633   0.324   2.893   7.024 -0.0816 -0.6378 -0.3402
  188SAPI   C2821634   0.265   2.805   7.196  0.0172 -0.6176  0.3020
  188SAPI   H8R21635   0.252   2.710   7.142 -1.4997  0.3822 -1.1716
  188SAPI   C2921636   0.307   2.813   7.325  0.2227  0.6617  0.3150
  188SAPI   H9R21637   0.306   2.715   7.375  2.8347  0.9734  1.0981
  188SAPI  C21021638   0.340   2.930   7.411  0.2390  0.2953  0.2017
  188SAPI  H10R21639   0.393   3.012   7.357 -0.7079  0.8292  0.0625
  188SAPI  H10S21640   0.417   2.910   7.488  1.0134  0.5980 -0.4743
  188SAPI  C21121641   0.218   3.005   7.459  0.4493 -0.9462 -0.0761
  188SAPI  H11R21642   0.145   3.036   7.383 -0.1778 -0.4497  0.7175
  188SAPI  C21221643   0.201   3.063   7.578  0.2259 -0.1474  0.5533
  188SAPI  H12R21644   0.101   3.099   7.608 -0.3429 -1.0112 -0.2519
  188SAPI  C21321645   0.303   3.058   7.687  0.5952 -0.0785 -0.3684
  188SAPI  H13R21646   0.343   3.157   7.716  1.9162 -1.1616  1.8207
  188SAPI  H13S21647   0.396   3.002   7.661  0.1742 -1.1122  0.2636
  188SAPI  C21421648   0.250   2.990   7.811 -0.3152  0.3959  0.3067
  188SAPI  H14R21649   0.156   2.934   7.798 -0.1977  0.3645 -0.4268
  188SAPI  C21521650   0.305   3.003   7.936  0.9548 -0.1765 -0.0433
  188SAPI  H15R21651   0.251   2.943   8.011 -2.0479  2.1874 -0.1025
  188SAPI  C21621652   0.424   3.082   7.976 -0.7826  0.0422 -0.1770
  188SAPI  H16R21653   0.434   3.102   8.085  0.7496  1.5571 -0.5457
  188SAPI  H16S21654   0.416   3.183   7.933 -1.8685 -0.1843 -0.5386
  188SAPI  C21721655   0.552   3.003   7.929 -0.1594 -0.3005  0.3860
  188SAPI  H17R21656   0.551   2.993   7.818 -3.7342  1.6188  0.1180
  188SAPI  H17S21657   0.548   2.900   7.972  2.6786 -1.1344 -1.0834
  188SAPI  C21821658   0.684   3.075   7.971  0.4029 -0.8286 -0.2171
  188SAPI  H18R21659   0.771   3.007   7.957  1.7319  0.1320  2.6724
  188SAPI  H18S21660   0.664   3.085   8.079 -1.0426  1.5850 -0.6347
  188SAPI  C21921661   0.727   3.202   7.895 -0.5733 -0.6762  0.1142
  188SAPI  H19R21662   0.825   3.227   7.939 -1.2638 -1.8796  2.5079
  188SAPI  H19S21663   0.652   3.278   7.926 -1.5202 -1.7156  0.4651
  188SAPI  C22021664   0.739   3.192   7.742  0.5720  0.2658 -0.1349
  188SAPI  H20R21665   0.795   3.105   7.704 -1.4787 -0.5091 -1.5369
  188SAPI  H20S21666   0.780   3.286   7.700 -2.9355  1.3205 -1.6183
  188SAPI  H20T21667   0.640   3.181   7.692  0.8711  0.8841 -0.8730
  188SAPI   C3321668   0.099   2.238   7.342 -0.2035 -0.8244 -0.0863
  188SAPI   H3X21669   0.190   2.299   7.362 -0.7397  0.1047 -0.3978
  188SAPI   H3Y21670   0.094   2.129   7.362 -1.9583 -0.5721  1.0405
  188SAPI   C3421671   0.003   2.306   7.451  1.2267 -0.1975 -0.0777
  188SAPI   H4X21672  -0.100   2.293   7.412  1.3226  0.6331 -0.6543
  188SAPI   H4Y21673   0.021   2.416   7.458  0.6520  0.0767 -2.1677
  188SAPI   C3521674   0.020   2.246   7.591 -0.0995 -0.4265 -0.5885
  188SAPI   H5X21675   0.011   2.135   7.592 -0.8841 -0.4041  1.9855
  188SAPI   H5Y21676  -0.067   2.271   7.655 -1.0135 -2.9271 -0.7563
  188SAPI   C3621677   0.147   2.293   7.666  0.2879  0.1162  0.4009
  188SAPI   H6X21678   0.131   2.403   7.672 -0.0473  0.1565 -0.9201
  188SAPI   H6Y21679   0.246   2.267   7.624  1.7702  0.9901  3.0888
  188SAPI   C3721680   0.161   2.247   7.807 -0.6414  0.7525 -0.4792
  188SAPI   H7X21681   0.145   2.139   7.828 -1.8746  0.4555 -2.6589
  188SAPI   H7Y21682   0.082   2.295   7.869  0.1610  0.4846  0.7886
  188SAPI   C3821683   0.293   2.310   7.864  0.8398 -0.2380  0.2659
  188SAPI   H8X21684   0.282   2.417   7.835 -0.0684 -0.7014 -1.2334
  188SAPI   H8Y21685   0.370   2.272   7.794 -0.7529 -2.1722 -0.5461
  188SAPI   C3921686   0.324   2.285   8.014 -0.4398 -0.7724 -0.3153
  188SAPI   H9X21687   0.424   2.238   8.028 -0.4620 -0.0787  2.8005
  188SAPI   H9Y21688   0.256   2.207   8.054 -0.6980 -1.0395 -1.2550
  188SAPI  C31021689   0.330   2.408   8.112  0.1392  0.1768  0.1477
  188SAPI  H10X21690   0.389   2.480   8.051 -0.0865  0.6630  0.5016
  188SAPI  H10Y21691   0.380   2.377   8.206 -1.1391  2.1082  1.5307
  188SAPI  C31121692   0.194   2.468   8.148  0.2246 -0.5368 -0.3031
  188SAPI  H11X21693   0.151   2.482   8.046  1.0327 -1.0588 -0.7312
  188SAPI  H11Y21694   0.212   2.562   8.204 -2.5543 -0.7507  1.1327
  188SAPI  C31221695   0.104   2.376   8.241 -0.4314 -0.1047 -0.0375
  188SAPI  H12X21696   0.173   2.344   8.323  0.7384 -0.0036 -0.9536
  188SAPI  H12Y21697   0.066   2.285   8.189 -0.2384 -1.5086  2.1428
  188SAPI  C31321698  -0.013   2.457   8.291 -0.0727  0.0012  0.5364
  188SAPI  H13X21699  -0.078   2.484   8.206  0.6786  0.7795  0.1959
  188SAPI  H13Y21700   0.017   2.553   8.338  2.3165 -0.4132 -0.0373
  188SAPI  C31421701  -0.097   2.379   8.387 -0.3138 -0.2107  0.0173
  188SAPI  H14X21702  -0.031   2.315   8.449  0.9600 -1.3568 -2.3654
  188SAPI  H14Y21703  -0.161   2.309   8.329  1.2854 -0.2967 -1.7705
  188SAPI  C31521704  -0.185   2.486   8.450  0.3668  0.1456 -0.5815
  188SAPI  H15X21705  -0.267   2.521   8.383 -0.6452 -1.7548 -0.4111
  188SAPI  H15Y21706  -0.126   2.576   8.477  0.2601  0.8910 -2.6041
  188SAPI  C31621707  -0.245   2.444   8.587  0.2191  0.0432 -0.5804
  188SAPI  H16X21708  -0.250   2.539   8.644  1.5415  0.5196 -1.2414
  188SAPI  H16Y21709  -0.169   2.377   8.633 -0.2722  0.6077  1.1191
  188SAPI  C31721710  -0.384   2.379   8.567  0.3472  0.1686 -0.1775
  188SAPI  H17X21711  -0.371   2.294   8.496 -0.4489  0.7298 -1.0124
  188SAPI  H17Y21712  -0.448   2.463   8.532  1.7505  1.5835  0.5076
  188SAPI  C31821713  -0.459   2.320   8.690 -0.1795  0.5304  0.4359
  188SAPI  H18X21714  -0.479   2.393   8.771  1.4250  0.2288  1.1342
  188SAPI  H18Y21715  -0.386   2.259   8.747 -1.9566 -2.1358  0.0322
  188SAPI  H18Z21716  -0.551   2.260   8.675 -1.0902  2.1000 -0.6301
  189POPC     N21717   6.621   1.290  11.296  0.8975  0.3043  0.4813
  189POPC   C1221718   6.625   1.411  11.207 -0.6947  0.5853 -0.3735
  189POPC  H12A21719   6.730   1.429  11.188  0.2495 -2.1381  1.6005
  189POPC  H12B21720   6.602   1.500  11.263  4.1978  2.3431 -0.6776
  189POPC   C1321721   6.725   1.307  11.399  0.5675 -0.5991 -0.0555
  189POPC  H13A21722   6.697   1.385  11.469  3.5160 -0.3231  0.9912
  189POPC  H13B21723   6.735   1.216  11.455 -2.8754 -0.3828  1.1211
  189POPC  H13C21724   6.819   1.324  11.349 -0.5108  1.0800 -1.6482
  189POPC   C1421725   6.499   1.288  11.371  0.2630  0.1524 -0.5041
  189POPC  H14A21726   6.491   1.193  11.422 -1.8796  1.2488  1.3993
  189POPC  H14B21727   6.489   1.369  11.441 -0.2865 -0.1414 -0.2324
  189POPC  H14C21728   6.415   1.295  11.303  0.7826 -2.9387 -1.6465
  189POPC   C1521729   6.643   1.167  11.213 -0.2197 -0.2685 -0.1864
  189POPC  H15A21730   6.559   1.159  11.146 -2.4624  1.9334  2.1323
  189POPC  H15B21731   6.633   1.081  11.277 -3.7650  1.5209  2.0024
  189POPC  H15C21732   6.735   1.178  11.157  1.2073 -1.1995  1.8530
  189POPC   C1121733   6.560   1.414  11.069 -0.3703 -0.4683  0.2213
  189POPC  H11A21734   6.614   1.334  11.015 -1.0696 -1.1129  0.4543
  189POPC  H11B21735   6.587   1.509  11.017  0.3717 -1.1244 -0.6231
  189POPC     P21736   6.329   1.519  11.081  0.1948  0.1347 -0.1720
  189POPC   O1321737   6.388   1.603  11.187 -0.0551  0.9014 -0.0883
  189POPC   O1421738   6.192   1.474  11.095  0.4791  0.8323 -0.1059
  189POPC   O1221739   6.419   1.390  11.061  0.0355 -0.3353  0.4674
  189POPC   O1121740   6.352   1.605  10.949  0.6389  0.3760 -0.2233
  189POPC    C121741   6.349   1.547  10.821 -0.8357  0.0682 -0.3076
  189POPC    HA21742   6.310   1.443  10.812 -1.4889  0.4167 -1.6487
  189POPC    HB21743   6.456   1.535  10.794 -0.6541 -0.0686  0.4465
  189POPC    C221744   6.288   1.626  10.708  0.3476 -1.4248  0.0173
  189POPC    HS21745   6.320   1.731  10.724 -0.3978 -1.5372  2.6649
  189POPC   O2121746   6.143   1.601  10.708 -0.2054 -0.0026 -0.0373
  189POPC   C2121747   6.075   1.715  10.735 -0.5175  0.5472 -0.0080
  189POPC   O2221748   6.119   1.825  10.772 -0.2493  0.1961 -0.1255
  189POPC   C2221749   5.935   1.688  10.697 -0.1150 -0.8131  0.2416
  189POPC   H2R21750   5.889   1.665  10.795  0.3234  0.2456  0.7078
  189POPC   H2S21751   5.915   1.594  10.640  1.1088 -1.0491  0.1856
  189POPC    C321752   6.355   1.580  10.580 -0.2991 -0.0125 -0.3439
  189POPC    HX21753   6.350   1.470  10.584 -3.0424  0.0701  0.2987
  189POPC    HY21754   6.463   1.604  10.580 -0.4683  0.9243  1.6521
  189POPC   O3121755   6.285   1.635  10.467  0.0070 -0.1432 -0.2571
  189POPC   C3121756   6.202   1.548  10.401 -0.2272  0.2561  0.1415
  189POPC   O3221757   6.176   1.434  10.429 -0.3143 -1.0152  0.2746
  189POPC   C3221758   6.132   1.621  10.298 -1.0824 -0.1228  0.3210
  189POPC   H2X21759   6.093   1.723  10.320 -1.0259 -0.1749  0.6738
  189POPC   H2Y21760   6.047   1.553  10.277 -1.4411  0.9382 -1.9276
  189POPC   C2321761   5.857   1.796  10.621  0.6700 -0.7094  0.0047
  189POPC   H3R21762   5.906   1.829  10.527 -2.4291 -0.5291 -1.6866
  189POPC   H3S21763   5.821   1.878  10.687 -0.7259 -1.2187 -0.0829
  189POPC   C2421764   5.715   1.743  10.574 -0.1705 -0.6516 -0.1127
  189POPC   H4R21765   5.650   1.832  10.558 -0.8789 -0.9689  0.8925
  189POPC   H4S21766   5.670   1.686  10.658 -2.0433 -0.1199 -0.7054
  189POPC   C2521767   5.713   1.666  10.444 -0.5257 -0.8587  0.1125
  189POPC   H5R21768   5.614   1.618  10.428 -0.8177 -0.0033 -0.7525
  189POPC   H5S21769   5.785   1.581  10.449 -0.4806 -0.8685 -0.5344
  189POPC   C2621770   5.749   1.752  10.318 -0.2822 -0.0609  0.2118
  189POPC   H6R21771   5.848   1.801  10.332 -0.2319  0.3627 -1.4233
  189POPC   H6S21772   5.670   1.830  10.307  1.1480  1.0706 -3.7053
  189POPC   C2721773   5.759   1.672  10.193  0.4763  1.0723 -0.0470
  189POPC   H7R21774   5.666   1.612  10.179 -0.9510  3.2020 -0.2359
  189POPC   H7S21775   5.840   1.598  10.208 -0.0988  0.8357  2.3326
  189POPC   C2821776   5.808   1.744  10.066 -0.0374 -0.6456 -0.3976
  189POPC   H8R21777   5.848   1.666   9.998 -0.8743 -0.5801 -0.9852
  189POPC   H8S21778   5.890   1.813  10.094 -1.0616 -0.0746  1.3772
  189POPC   C2921779   5.713   1.822   9.986  0.1668 -0.7058 -0.5734
  189POPC   H9121780   5.680   1.907  10.047  1.0917  1.7473 -3.2462
  189POPC  C21021781   5.674   1.810   9.852 -0.7085 -0.2465 -0.4998
  189POPC  H10121782   5.595   1.874   9.810  1.3485  2.2795 -0.7309
  189POPC  C21121783   5.716   1.697   9.755 -0.2831  0.1455  0.1485
  189POPC  H11R21784   5.629   1.642   9.712 -0.1414 -1.0953  1.3739
  189POPC  H11S21785   5.785   1.627   9.807  0.6864  1.7169  1.0275
  189POPC  C21221786   5.791   1.757   9.632 -0.2440  0.5293  0.1156
  189POPC  H12R21787   5.845   1.677   9.577 -0.2702  0.8135 -0.3183
  189POPC  H12S21788   5.862   1.836   9.665 -1.0629  1.8898 -1.2857
  189POPC  C21321789   5.697   1.817   9.527 -0.4369  0.0910  0.3569
  189POPC  H13R21790   5.634   1.889   9.583 -0.9055  1.5341 -1.8667
  189POPC  H13S21791   5.640   1.725   9.502  1.6885 -1.3487  0.6092
  189POPC  C21421792   5.766   1.884   9.406  0.4266  0.4516  0.0303
  189POPC  H14R21793   5.861   1.828   9.391  2.3830  2.5546  3.2101
  189POPC  H14S21794   5.800   1.988   9.428  1.6080 -0.3411  2.3129
  189POPC  C21521795   5.692   1.883   9.277  0.2876  0.1633 -0.3400
  189POPC  H15R21796   5.605   1.950   9.263 -1.0200 -0.3828  3.7527
  189POPC  H15S21797   5.651   1.780   9.286  0.3785  0.3112  3.3860
  189POPC  C21621798   5.781   1.895   9.154 -0.6501 -0.4862 -0.3291
  189POPC  H16R21799   5.867   1.824   9.151  0.9648  1.0967  2.9785
  189POPC  H16S21800   5.828   1.995   9.163 -0.8298 -0.5754  2.2644
  189POPC  C21721801   5.705   1.911   9.022  0.4805  0.4278 -0.3643
  189POPC  H17R21802   5.596   1.903   9.041 -0.0542  1.9585 -2.3292
  189POPC  H17S21803   5.722   1.828   8.950 -0.5161  0.6951 -0.9264
  189POPC  C21821804   5.722   2.047   8.953 -0.1172 -0.1487  0.2127
  189POPC  H18R21805   5.675   2.043   8.852  0.7211 -0.0426 -0.1940
  189POPC  H18S21806   5.832   2.064   8.949 -0.4940  2.4085 -0.4954
  189POPC  H18T21807   5.686   2.131   9.016  0.5736 -0.5388  1.1582
  189POPC   C3321808   6.215   1.633  10.169 -0.1382  0.4297  0.6059
  189POPC   H3X21809   6.242   1.536  10.122 -4.8278  0.3189 -2.4756
  189POPC   H3Y21810   6.307   1.686  10.202 -0.2222  1.0219 -0.0843
  189POPC   C3421811   6.153   1.723  10.067 -0.1038 -0.3041  0.0531
  189POPC   H4X21812   6.123   1.821  10.109 -0.2026 -0.6079  0.7004
  189POPC   H4Y21813   6.059   1.668  10.044  1.0276 -1.7241 -1.4524
  189POPC   C3521814   6.230   1.740   9.941 -0.1780  0.0010  0.1569
  189POPC   H5X21815   6.340   1.727   9.948 -0.2469 -0.0143  1.8084
  189POPC   H5Y21816   6.207   1.846   9.917 -1.6954 -0.4987 -0.7577
  189POPC   C3621817   6.178   1.639   9.829 -0.2155 -0.0225  0.1580
  189POPC   H6X21818   6.067   1.644   9.818 -0.1590 -1.1199 -1.1195
  189POPC   H6Y21819   6.210   1.537   9.860  0.1810 -0.1379 -0.6323
  189POPC   C3721820   6.247   1.688   9.697  0.7454  0.1711 -0.0785
  189POPC   H7X21821   6.355   1.674   9.720  0.2108 -1.2296  1.8253
  189POPC   H7Y21822   6.231   1.797   9.686  0.6671  0.1549 -0.1251
  189POPC   C3821823   6.192   1.610   9.573 -0.2897  0.5210 -0.4469
  189POPC   H8X21824   6.082   1.621   9.577 -0.5015 -1.3519  0.4251
  189POPC   H8Y21825   6.219   1.506   9.603  0.6523  0.6607 -0.7624
  189POPC   C3921826   6.251   1.653   9.440 -0.0051  0.0230 -0.5624
  189POPC   H9X21827   6.358   1.679   9.427 -0.4628  2.6459  0.3238
  189POPC   H9Y21828   6.198   1.750   9.428  1.3586  0.9385  0.5559
  189POPC  C31021829   6.216   1.565   9.321 -0.6135 -0.6022  0.0004
  189POPC  H10X21830   6.106   1.574   9.305 -0.6439  0.5100  0.7171
  189POPC  H10Y21831   6.242   1.460   9.345 -2.1310 -1.7873 -2.9386
  189POPC  C31121832   6.287   1.600   9.196 -0.1378 -0.5835 -0.2346
  189POPC  H11X21833   6.390   1.562   9.206 -0.0004  0.0173  0.7239
  189POPC  H11Y21834   6.291   1.711   9.189  0.4144 -0.5300  0.8522
  189POPC  C31221835   6.214   1.541   9.077 -0.8837  0.6532  0.2382
  189POPC  H12X21836   6.105   1.562   9.084 -1.4280 -1.2944 -1.5414
  189POPC  H12Y21837   6.228   1.431   9.073  0.3608  0.8083  0.1537
  189POPC  C31321838   6.259   1.599   8.944  0.5598  0.6126 -0.0966
  189POPC  H13X21839   6.259   1.522   8.865  0.2455  1.1591 -0.6421
  189POPC  H13Y21840   6.364   1.631   8.959  0.4839  1.2624 -0.9249
  189POPC  C31421841   6.175   1.718   8.900  0.1888  0.0951  0.1860
  189POPC  H14X21842   6.177   1.796   8.979 -0.9583  0.4765 -0.1491
  189POPC  H14Y21843   6.069   1.687   8.891  0.0128  0.8453 -0.3863
  189POPC  C31521844   6.214   1.768   8.762  0.6166  0.1441  0.5132
  189POPC  H15X21845   6.217   1.678   8.697  0.7293  0.5234 -0.0077
  189POPC  H15Y21846   6.323   1.788   8.760  0.9713 -1.5802 -2.1148
  189POPC  C31621847   6.128   1.882   8.705 -0.2791  0.0107 -0.4783
  189POPC  H16X21848   6.116   1.964   8.779 -0.3321 -0.1026 -0.3609
  189POPC  H16Y21849   6.028   1.840   8.681 -1.2622  2.6005 -1.2144
  189POPC  H16Z21850   6.164   1.917   8.606 -0.3164 -1.3432 -0.9990
  190POPC     N21851   1.753   6.380  11.216 -0.1302 -0.4692  0.2118
  190POPC   C1221852   1.704   6.481  11.319 -0.5301  1.2367  0.1173
  190POPC  H12A21853   1.723   6.581  11.282  2.4391  0.4009 -0.9117
  190POPC  H12B21854   1.764   6.471  11.408 -0.7594 -0.4598  0.1237
  190POPC   C1321855   1.661   6.369  11.100 -0.1850  0.0048  0.2035
  190POPC  H13A21856   1.708   6.305  11.026  0.6766 -1.2290  1.7589
  190POPC  H13B21857   1.574   6.310  11.128  0.4770 -1.4028 -0.5707
  190POPC  H13C21858   1.627   6.456  11.046 -1.8449 -1.3125 -1.0107
  190POPC   C1421859   1.891   6.412  11.163  0.1176 -0.0296  0.3404
  190POPC  H14A21860   1.934   6.331  11.107  0.9695  0.9673 -0.4798
  190POPC  H14B21861   1.893   6.506  11.109  1.5635  0.7414  1.6396
  190POPC  H14C21862   1.954   6.437  11.247  0.6240  1.5215 -0.4586
  190POPC   C1521863   1.761   6.240  11.270 -0.0826 -0.1049 -0.6470
  190POPC  H15A21864   1.660   6.206  11.288 -0.1605  0.4087 -0.0902
  190POPC  H15B21865   1.830   6.237  11.353  1.1746 -0.0938 -1.6610
  190POPC  H15C21866   1.801   6.174  11.195  1.2920  1.1448 -1.0637
  190POPC   C1121867   1.559   6.475  11.371  0.2222  0.1918 -0.4395
  190POPC  H11A21868   1.540   6.536  11.461 -1.3912 -1.1067  0.1559
  190POPC  H11B21869   1.539   6.371  11.405 -0.7815  0.4974 -0.0698
  190POPC     P21870   1.454   6.647  11.189 -0.5266  0.0401  0.4075
  190POPC   O1321871   1.542   6.646  11.074 -0.0478 -0.1720 -0.3386
  190POPC   O1421872   1.466   6.753  11.291 -0.2691 -0.0368  0.2404
  190POPC   O1221873   1.467   6.504  11.262 -0.4124 -0.5742 -0.5549
  190POPC   O1121874   1.293   6.643  11.144 -1.1216 -0.4210 -0.5750
  190POPC    C121875   1.238   6.511  11.125 -0.7647 -0.0090 -0.2651
  190POPC    HA21876   1.131   6.523  11.099 -0.9491 -0.5760  0.2064
  190POPC    HB21877   1.248   6.449  11.217 -1.2223  0.5306  0.1525
  190POPC    C221878   1.297   6.445  10.997  0.4626 -0.5646  0.3139
  190POPC    HS21879   1.401   6.411  11.016  0.2295 -1.9911 -0.7885
  190POPC   O2121880   1.267   6.536  10.891 -0.3747 -0.4932  0.1667
  190POPC   C2121881   1.348   6.524  10.788 -0.2175  0.1751 -0.9222
  190POPC   O2221882   1.457   6.466  10.787  0.0885 -0.1997  0.9921
  190POPC   C2221883   1.293   6.617  10.684  0.3836 -0.4665 -0.0932
  190POPC   H2R21884   1.239   6.694  10.742 -0.0047  0.1626 -1.2604
  190POPC   H2S21885   1.221   6.559  10.622  0.8506  1.6613 -2.8024
  190POPC    C321886   1.229   6.300  10.969 -0.3442 -0.1048  0.0332
  190POPC    HX21887   1.122   6.324  10.950  0.2847  1.0933 -2.3868
  190POPC    HY21888   1.231   6.221  11.046 -1.1973 -0.8734 -0.7058
  190POPC   O3121889   1.283   6.243  10.843  0.4821  0.6366  0.5674
  190POPC   C3121890   1.387   6.155  10.855  0.2825 -0.3804  0.2505
  190POPC   O3221891   1.449   6.138  10.959  0.3241 -0.4037  0.3580
  190POPC   C3221892   1.421   6.102  10.717 -0.3607  0.4224 -0.5605
  190POPC   H2X21893   1.334   6.039  10.690 -1.0502  1.8260 -1.7745
  190POPC   H2Y21894   1.505   6.034  10.741 -0.8431 -0.4689 -1.3099
  190POPC   C2321895   1.395   6.668  10.576  0.1818 -0.1568  0.5728
  190POPC   H3R21896   1.472   6.730  10.626  0.0881  0.2206  0.2535
  190POPC   H3S21897   1.336   6.729  10.504  1.5088 -0.3762 -0.7505
  190POPC   C2421898   1.470   6.559  10.494  0.4619  0.0533 -0.1223
  190POPC   H4R21899   1.396   6.485  10.456  0.7796 -0.0455 -0.5465
  190POPC   H4S21900   1.535   6.506  10.566 -1.9205  0.5428  2.5699
  190POPC   C2521901   1.547   6.606  10.371  0.2269 -0.8139  0.4856
  190POPC   H5R21902   1.619   6.531  10.330  1.5672  0.8998 -0.4279
  190POPC   H5S21903   1.608   6.691  10.408  1.3934 -1.0353 -0.8111
  190POPC   C2621904   1.459   6.642  10.258 -0.1394 -0.1094  0.6169
  190POPC   H6R21905   1.406   6.739  10.258 -0.3282 -0.1181 -2.0555
  190POPC   H6S21906   1.388   6.561  10.230  0.5883 -0.8024  0.7206
  190POPC   C2721907   1.544   6.659  10.132 -0.0099  0.0213 -0.3874
  190POPC   H7R21908   1.578   6.556  10.107  0.4197 -0.1895  1.0130
  190POPC   H7S21909   1.629   6.719  10.168 -0.1029  0.3128 -0.6556
  190POPC   C2821910   1.469   6.724  10.017  0.1692  0.1045  0.6887
  190POPC   H8R21911   1.432   6.825  10.048  2.0038  0.4761  1.8791
  190POPC   H8S21912   1.387   6.652   9.999  1.8218 -2.1693  1.6883
  190POPC   C2921913   1.553   6.743   9.891  0.0556 -0.5596  0.0324
  190POPC   H9121914   1.659   6.758   9.916  0.5065 -1.5389 -1.2205
  190POPC  C21021915   1.515   6.768   9.764  0.0309  0.4566  0.3461
  190POPC  H10121916   1.592   6.789   9.688  0.2658 -0.9600  0.1653
  190POPC  C21121917   1.376   6.770   9.707  0.1563  0.6175 -0.1425
  190POPC  H11R21918   1.300   6.756   9.786 -1.4018  1.9119 -1.3511
  190POPC  H11S21919   1.356   6.685   9.638 -2.3520  1.2770 -0.3160
  190POPC  C21221920   1.354   6.905   9.646  0.0659 -0.0539  0.4591
  190POPC  H12R21921   1.419   6.933   9.560  0.0223  0.3011  0.5397
  190POPC  H12S21922   1.375   6.975   9.730  0.4879  0.4684 -0.0767
  190POPC  C21321923   1.209   6.928   9.602 -0.6624 -0.0102  0.2720
  190POPC  H13R21924   1.202   7.035   9.574  0.1363 -0.0917 -0.2826
  190POPC  H13S21925   1.156   6.916   9.699  0.4398  0.2698  0.9343
  190POPC  C21421926   1.150   6.840   9.490 -0.2411 -0.5137 -1.4476
  190POPC  H14R21927   1.145   6.740   9.538  0.6526 -0.0761 -0.4266
  190POPC  H14S21928   1.222   6.838   9.405  1.5864 -0.7623  0.0447
  190POPC  C21521929   1.003   6.870   9.456 -0.5768 -0.9112 -0.5197
  190POPC  H15R21930   0.948   6.835   9.546  1.9231 -2.1395  0.6136
  190POPC  H15S21931   0.961   6.810   9.372 -0.3490 -1.4989 -0.2227
  190POPC  C21621932   0.972   7.025   9.440 -0.3046  0.0224  0.6925
  190POPC  H16R21933   0.999   7.070   9.538  1.6213  0.3593  0.0446
  190POPC  H16S21934   0.862   7.037   9.433 -0.5088 -0.5486  2.3963
  190POPC  C21721935   1.049   7.083   9.325 -0.4294 -0.8470 -0.0071
  190POPC  H17R21936   1.158   7.078   9.341  0.7809 -0.7701 -5.9323
  190POPC  H17S21937   1.022   7.191   9.330 -1.6818 -1.2029  3.7302
  190POPC  C21821938   1.018   7.018   9.192 -0.0833  0.5474 -1.3848
  190POPC  H18R21939   0.909   7.033   9.177 -0.4700 -0.5587  0.1429
  190POPC  H18S21940   1.040   6.909   9.191 -0.9683  0.3676 -1.2734
  190POPC  H18T21941   1.070   7.065   9.105  1.1155  0.0297 -0.9630
  190POPC   C3321942   1.452   6.196  10.597  0.3065 -0.0587 -0.5678
  190POPC   H3X21943   1.535   6.262  10.629 -1.5487  1.5101  1.3440
  190POPC   H3Y21944   1.356   6.253  10.604  0.1587 -0.3981  0.2550
  190POPC   C3421945   1.482   6.124  10.463 -0.4296 -0.4713  0.2982
  190POPC   H4X21946   1.398   6.052  10.454  0.3432 -1.2969 -0.7001
  190POPC   H4Y21947   1.576   6.064  10.469  0.0315  0.0957 -0.9154
  190POPC   C3521948   1.484   6.212  10.337  0.3307 -0.5662 -0.4053
  190POPC   H5X21949   1.547   6.303  10.347 -0.3807  0.8435 -5.7823
  190POPC   H5Y21950   1.378   6.242  10.320 -0.0478 -1.3429  0.4902
  190POPC   C3621951   1.532   6.139  10.213  0.5444 -0.3667  0.4875
  190POPC   H6X21952   1.468   6.052  10.191 -0.3101  0.3317  0.1653
  190POPC   H6Y21953   1.634   6.103  10.240  0.7759  1.2513  1.9559
  190POPC   C3721954   1.532   6.232  10.089 -0.3209  0.0959  0.2607
  190POPC   H7X21955   1.582   6.328  10.115 -2.7761  1.2514  1.0594
  190POPC   H7Y21956   1.429   6.262  10.061  0.2632  1.3626 -0.6392
  190POPC   C3821957   1.610   6.176   9.969  1.0908  0.3318 -0.1062
  190POPC   H8X21958   1.547   6.091   9.935 -1.1058  1.2789  1.4279
  190POPC   H8Y21959   1.710   6.138   9.999  0.9243 -0.5054 -0.5737
  190POPC   C3921960   1.620   6.275   9.845  0.2268 -0.1989 -0.4866
  190POPC   H9X21961   1.693   6.228   9.776  1.1369  0.8152 -0.2431
  190POPC   H9Y21962   1.681   6.359   9.884  0.6820 -0.3379 -0.8887
  190POPC  C31021963   1.484   6.325   9.795 -0.6468  0.0624 -0.1794
  190POPC  H10X21964   1.425   6.370   9.878  0.0851 -0.2020  0.5050
  190POPC  H10Y21965   1.425   6.245   9.745  0.0625  0.7082 -2.1549
  190POPC  C31121966   1.504   6.443   9.695  0.1998 -0.1707  0.3066
  190POPC  H11X21967   1.571   6.526   9.726  0.5734 -0.2726 -0.2171
  190POPC  H11Y21968   1.411   6.500   9.676  0.1608 -0.5659 -0.7991
  190POPC  C31221969   1.552   6.393   9.560  0.0037 -0.0282 -0.1285
  190POPC  H12X21970   1.473   6.322   9.528  0.7626 -0.7840 -0.3437
  190POPC  H12Y21971   1.652   6.346   9.568  0.1646  0.2869 -0.2808
  190POPC  C31321972   1.578   6.504   9.455 -0.2791 -0.4636 -0.0679
  190POPC  H13X21973   1.657   6.572   9.495  0.8726 -0.8197 -1.6287
  190POPC  H13Y21974   1.488   6.567   9.437 -0.1787 -0.2536  0.1528
  190POPC  C31421975   1.640   6.451   9.329 -0.1930 -0.0769  0.0669
  190POPC  H14X21976   1.734   6.398   9.353  1.0505  3.3070  3.8396
  190POPC  H14Y21977   1.672   6.528   9.255  0.1664  0.9163  1.2169
  190POPC  C31521978   1.543   6.373   9.246  0.8504 -0.0502  0.5439
  190POPC  H15X21979   1.463   6.443   9.214  1.7878  0.9905  0.3993
  190POPC  H15Y21980   1.497   6.290   9.305 -0.3263  0.3043  0.1482
  190POPC  C31621981   1.608   6.325   9.116  0.2747  0.1817  0.5191
  190POPC  H16X21982   1.661   6.230   9.140  1.0508  0.4796 -0.0012
  190POPC  H16Y21983   1.663   6.403   9.059  0.6159 -1.6310 -1.7860
  190POPC  H16Z21984   1.538   6.273   9.047 -0.1087  0.7427  0.4832
  191POPC     N21985   1.766   0.621   6.271 -0.0864 -0.5541  0.6943
  191POPC   C1221986   1.766   0.491   6.340  0.5333  0.5189  0.2960
  191POPC  H12A21987   1.704   0.414   6.297  2.9194 -0.9906 -0.6585
  191POPC  H12B21988   1.709   0.496   6.431  0.7654 -1.5152  0.6088
  191POPC   C1321989   1.837   0.632   6.135 -0.4900 -0.5399  0.6729
  191POPC  H13A21990   1.818   0.731   6.096 -0.4648 -1.4738 -1.9327
  191POPC  H13B21991   1.943   0.615   6.146 -0.4127 -0.4008  0.1897
  191POPC  H13C21992   1.799   0.553   6.072  1.3846 -1.3074  0.4381
  191POPC   C1421993   1.621   0.651   6.251  0.0545  0.6598  0.1436
  191POPC  H14A21994   1.617   0.756   6.226 -0.1149  0.8369  0.8921
  191POPC  H14B21995   1.577   0.589   6.174  2.9504 -0.5646 -0.6297
  191POPC  H14C21996   1.562   0.640   6.341  1.5429  0.0352  1.0754
  191POPC   C1521997   1.820   0.724   6.364 -0.1268  0.0625  0.0288
  191POPC  H15A21998   1.772   0.819   6.350 -1.1616 -0.4819 -0.1898
  191POPC  H15B21999   1.924   0.747   6.348  0.5317 -1.4299  1.7544
  191POPC  H15C22000   1.801   0.686   6.463 -0.9512 -0.4810 -0.3215
  191POPC   C1122001   1.898   0.438   6.402 -0.1726 -0.2829 -0.3227
  191POPC  H11A22002   1.867   0.363   6.478  0.9400  0.5865  1.0474
  191POPC  H11B22003   1.945   0.520   6.460 -0.1268 -0.5827  0.0707
  191POPC     P22004   1.981   0.234   6.282 -0.0639 -0.0943  0.1081
  191POPC   O1322005   2.033   0.204   6.145 -0.1773 -0.1123  0.0436
  191POPC   O1422006   1.847   0.180   6.317 -0.2536  0.0826  0.8708
  191POPC   O1222007   1.989   0.389   6.296  0.1607 -0.0104  0.2989
  191POPC   O1122008   2.090   0.193   6.381  0.4563 -0.2574  0.2162
  191POPC    C122009   2.197   0.279   6.417 -0.4768  0.2494  0.0419
  191POPC    HA22010   2.187   0.386   6.390 -2.9507 -0.3688 -1.8871
  191POPC    HB22011   2.290   0.238   6.372 -1.3597 -2.8347  0.7699
  191POPC    C222012   2.234   0.266   6.572  0.8709 -0.0353 -0.3819
  191POPC    HS22013   2.248   0.159   6.597  0.6769 -0.0902 -0.5074
  191POPC   O2122014   2.118   0.317   6.641 -0.1197  0.1420 -0.5732
  191POPC   C2122015   2.078   0.269   6.755  0.0161  0.4194 -0.0369
  191POPC   O2222016   2.135   0.184   6.822  0.0012 -0.6788  0.4068
  191POPC   C2222017   1.954   0.340   6.803  0.3818 -0.1661  0.0156
  191POPC   H2R22018   1.872   0.283   6.755 -0.0721  0.4550  0.0406
  191POPC   H2S22019   1.937   0.443   6.767 -3.4204 -0.1584  1.3684
  191POPC    C322020   2.361   0.359   6.593 -0.0737  0.3190 -0.2372
  191POPC    HX22021   2.340   0.468   6.587  1.9352  0.7546 -0.1991
  191POPC    HY22022   2.441   0.328   6.522  0.6169 -2.4069  1.5871
  191POPC   O3122023   2.415   0.316   6.722  0.0427  0.6448 -0.5864
  191POPC   C3122024   2.395   0.404   6.818  0.1105 -0.8149 -0.0527
  191POPC   O3222025   2.333   0.509   6.809 -0.1310  0.5691  0.1341
  191POPC   C3222026   2.445   0.348   6.952  0.0236 -0.1213 -0.4645
  191POPC   H2X22027   2.539   0.293   6.930 -0.1726 -0.2813 -0.8953
  191POPC   H2Y22028   2.366   0.275   6.978 -0.3981  0.5863  0.2996
  191POPC   C2322029   1.938   0.335   6.961 -0.2857 -0.3794  0.2077
  191POPC   H3R22030   1.932   0.227   6.986  0.0465 -0.2783  0.7390
  191POPC   H3S22031   1.843   0.382   6.995 -0.5075 -0.5102 -0.2181
  191POPC   C2422032   2.047   0.399   7.034 -0.5903  0.5461  0.4904
  191POPC   H4R22033   2.052   0.508   7.015  0.0449  0.0808 -2.6181
  191POPC   H4S22034   2.147   0.361   7.004 -0.6704 -0.3775  1.3210
  191POPC   C2522035   2.024   0.395   7.192 -0.7110 -0.3741 -0.0037
  191POPC   H5R22036   2.020   0.288   7.222  1.5963 -0.1708  1.2710
  191POPC   H5S22037   1.932   0.452   7.213 -0.9218 -0.7018 -0.0241
  191POPC   C2622038   2.142   0.472   7.261  0.0488  0.4037 -0.3605
  191POPC   H6R22039   2.164   0.566   7.207  3.3679 -0.2691 -0.3921
  191POPC   H6S22040   2.240   0.419   7.253  0.0227  0.3236 -0.1520
  191POPC   C2722041   2.116   0.498   7.411  0.7059 -0.1628 -0.1098
  191POPC   H7R22042   2.135   0.402   7.464  2.6139  0.2419  0.0459
  191POPC   H7S22043   2.008   0.523   7.414  1.1400  1.9256 -0.1855
  191POPC   C2822044   2.206   0.606   7.475  0.0805  0.1721 -0.4177
  191POPC   H8R22045   2.226   0.686   7.400 -1.1287  0.8327 -0.0567
  191POPC   H8S22046   2.306   0.573   7.511 -0.9789  0.4137  3.1562
  191POPC   C2922047   2.131   0.671   7.585 -0.4794 -0.2307 -0.2803
  191POPC   H9122048   2.058   0.741   7.542 -0.1777 -0.6258 -1.4813
  191POPC  C21022049   2.152   0.673   7.715 -0.0404 -0.0640 -0.0959
  191POPC  H10122050   2.087   0.735   7.778 -2.0265 -1.5771 -0.5599
  191POPC  C21122051   2.255   0.595   7.784 -0.8392 -0.7401 -0.4419
  191POPC  H11R22052   2.306   0.663   7.855 -0.1176 -0.2864 -1.3650
  191POPC  H11S22053   2.332   0.554   7.715 -0.5916  0.1312 -0.6986
  191POPC  C21222054   2.198   0.465   7.838  0.1934 -0.4045  0.5990
  191POPC  H12R22055   2.179   0.392   7.756  0.5891 -1.1697  1.1736
  191POPC  H12S22056   2.098   0.491   7.878 -0.5115 -0.4480 -1.0274
  191POPC  C21322057   2.292   0.408   7.945 -0.0282  0.8026  0.5449
  191POPC  H13R22058   2.347   0.490   7.998  1.5554  0.8931 -1.1611
  191POPC  H13S22059   2.369   0.353   7.889  1.2884  1.7547  1.3517
  191POPC  C21422060   2.227   0.307   8.048 -0.4930 -0.9470  0.4758
  191POPC  H14R22061   2.138   0.353   8.096  0.5806 -0.8719  2.5314
  191POPC  H14S22062   2.305   0.290   8.126 -0.8747 -0.6418  0.9240
  191POPC  C21522063   2.191   0.173   7.985  0.2125  0.5636  0.5205
  191POPC  H15R22064   2.282   0.120   7.948 -2.2231 -1.3179 -3.4410
  191POPC  H15S22065   2.122   0.176   7.898 -1.1845 -0.9992  1.5418
  191POPC  C21622066   2.126   0.078   8.084 -0.3030  0.7076 -0.5369
  191POPC  H16R22067   2.132   0.130   8.182 -2.1189  0.5553 -0.3150
  191POPC  H16S22068   2.183  -0.017   8.083 -0.1725  0.7606 -2.7644
  191POPC  C21722069   1.977   0.058   8.052 -0.1189 -0.5960  0.0141
  191POPC  H17R22070   1.955   0.025   7.948 -1.1215  0.9930 -0.3037
  191POPC  H17S22071   1.932   0.159   8.054  0.6441 -0.1770 -1.9717
  191POPC  C21822072   1.906  -0.042   8.144 -0.1086 -0.3816 -0.6133
  191POPC  H18R22073   1.937  -0.011   8.246  0.4847  0.6025 -1.0771
  191POPC  H18S22074   1.935  -0.147   8.126 -1.6688 -0.8317 -0.6432
  191POPC  H18T22075   1.796  -0.030   8.138  0.0514  0.6051 -2.1593
  191POPC   C3322076   2.469   0.446   7.071 -0.2516  0.3769  0.4003
  191POPC   H3X22077   2.370   0.484   7.104 -1.8773 -3.2305  0.1053
  191POPC   H3Y22078   2.540   0.523   7.034  0.7787  0.1102  1.7658
  191POPC   C3422079   2.536   0.380   7.187  0.0543 -0.2016  0.3710
  191POPC   H4X22080   2.640   0.354   7.158 -0.0176  0.2162 -0.2761
  191POPC   H4Y22081   2.482   0.286   7.210  1.5956 -0.7563  2.0259
  191POPC   C3522082   2.548   0.461   7.310  0.1900  0.2240  0.2166
  191POPC   H5X22083   2.444   0.479   7.346  0.0275 -2.4833  1.3312
  191POPC   H5Y22084   2.592   0.559   7.283 -1.3403  1.2520  1.3246
  191POPC   C3622085   2.625   0.400   7.431  0.1451 -0.4114  0.5080
  191POPC   H6X22086   2.730   0.390   7.396  0.5856 -0.0057  1.6660
  191POPC   H6Y22087   2.588   0.298   7.455 -0.6297 -0.8826 -2.3626
  191POPC   C3722088   2.607   0.490   7.555  0.1057  0.0445 -0.5663
  191POPC   H7X22089   2.504   0.506   7.593  0.4574 -1.8474  1.4096
  191POPC   H7Y22090   2.658   0.587   7.537  3.8605 -1.7031 -0.2559
  191POPC   C3822091   2.676   0.414   7.672  0.2190  0.0947 -1.4990
  191POPC   H8X22092   2.786   0.419   7.664  0.5503  1.3777  2.0490
  191POPC   H8Y22093   2.653   0.305   7.673 -3.1532  0.6826 -0.3600
  191POPC   C3922094   2.637   0.480   7.806  0.0983  0.1879 -0.6460
  191POPC   H9X22095   2.526   0.486   7.808  0.0592 -0.3055 -1.1858
  191POPC   H9Y22096   2.673   0.583   7.831  1.8890 -1.1138  3.0023
  191POPC  C31022097   2.692   0.393   7.925  0.3971 -0.5296  0.0540
  191POPC  H10X22098   2.802   0.385   7.918  0.4021 -1.0450  0.6736
  191POPC  H10Y22099   2.637   0.297   7.915  2.6132 -2.0004  1.2961
  191POPC  C31122100   2.654   0.429   8.065  0.3729 -0.5303  1.2432
  191POPC  H11X22101   2.548   0.465   8.060 -0.1470 -2.0910 -2.3241
  191POPC  H11Y22102   2.720   0.512   8.098  0.9806 -0.3303 -0.3912
  191POPC  C31222103   2.653   0.313   8.169  0.6451  0.5793 -0.1378
  191POPC  H12X22104   2.748   0.258   8.183 -0.4825 -1.1727  1.0163
  191POPC  H12Y22105   2.586   0.239   8.120  0.2994  1.4189 -0.9601
  191POPC  C31322106   2.605   0.356   8.309 -0.4453  0.1652  0.2355
  191POPC  H13X22107   2.563   0.269   8.363 -3.0028  0.5906 -0.9461
  191POPC  H13Y22108   2.519   0.427   8.300  0.9029  1.9527  0.8217
  191POPC  C31422109   2.718   0.407   8.403  0.4065  0.2791  0.0578
  191POPC  H14X22110   2.781   0.482   8.352  0.4313  0.0431 -0.2576
  191POPC  H14Y22111   2.785   0.319   8.412 -0.2775 -0.5442 -2.2511
  191POPC  C31522112   2.680   0.452   8.545  0.5364 -0.8355  0.2414
  191POPC  H15X22113   2.664   0.360   8.606 -2.9245  0.0323  0.8784
  191POPC  H15Y22114   2.587   0.512   8.536  0.7154 -0.6547 -0.5018
  191POPC  C31622115   2.788   0.547   8.596 -0.1856  0.5800 -0.0611
  191POPC  H16X22116   2.805   0.624   8.517 -0.0021  0.7583  0.1513
  191POPC  H16Y22117   2.888   0.500   8.608  0.3682  1.8807  0.6604
  191POPC  H16Z22118   2.756   0.603   8.686 -2.4574  1.4532 -1.3256
  192POPC     N22119   0.407   4.915   6.108 -0.2386 -0.4814  0.0583
  192POPC   C1222120   0.326   4.840   6.203  0.9495 -0.1785  0.0654
  192POPC  H12A22121   0.301   4.747   6.154 -0.7643  0.3671 -0.1362
  192POPC  H12B22122   0.233   4.891   6.220  0.5317 -0.4677 -1.2227
  192POPC   C1322123   0.336   4.954   5.984  0.4247  0.4935 -0.2616
  192POPC  H13A22124   0.391   5.027   5.925  1.7063  2.0405  2.6005
  192POPC  H13B22125   0.323   4.868   5.922 -1.2753  0.8038 -0.3747
  192POPC  H13C22126   0.236   4.987   6.007  0.3153 -1.0875  1.7759
  192POPC   C1422127   0.443   5.043   6.172 -0.5425  0.1046 -0.3670
  192POPC  H14A22128   0.350   5.096   6.185 -1.8584 -2.6132  2.9014
  192POPC  H14B22129   0.488   5.027   6.269  0.8108 -1.4572 -1.1883
  192POPC  H14C22130   0.512   5.091   6.104  1.0001 -0.3309  0.8369
  192POPC   C1522131   0.538   4.838   6.068 -0.2608 -0.0521  0.2220
  192POPC  H15A22132   0.580   4.795   6.158 -1.7100 -0.9245  0.5098
  192POPC  H15B22133   0.609   4.911   6.033  0.2669 -0.3856  0.5814
  192POPC  H15C22134   0.524   4.771   5.985  2.7277  0.9750 -1.2417
  192POPC   C1122135   0.374   4.801   6.345  0.1805 -0.2140  0.1371
  192POPC  H11A22136   0.287   4.765   6.404 -1.2493 -0.0187 -1.7499
  192POPC  H11B22137   0.398   4.897   6.395 -5.4075  1.4623  0.3065
  192POPC     P22138   0.458   4.550   6.295  0.1142  0.0275 -0.5033
  192POPC   O1322139   0.583   4.503   6.230 -0.2349  0.4660  0.1631
  192POPC   O1422140   0.336   4.551   6.213 -0.5461  0.2559  0.5060
  192POPC   O1222141   0.474   4.698   6.349 -0.1370  0.0082  0.1455
  192POPC   O1122142   0.428   4.471   6.424  0.4242  0.2186  0.7856
  192POPC    C122143   0.487   4.497   6.553  0.2441  0.2720  0.2394
  192POPC    HA22144   0.509   4.605   6.564  0.6944  0.3441 -1.1962
  192POPC    HB22145   0.584   4.444   6.563  0.0994 -0.0214  0.0772
  192POPC    C222146   0.384   4.464   6.665  0.8761  0.2321  0.1540
  192POPC    HS22147   0.332   4.370   6.637 -1.4094  1.1226  1.0855
  192POPC   O2122148   0.294   4.576   6.671  0.1547 -0.4828 -0.8587
  192POPC   C2122149   0.168   4.543   6.706 -0.8259  0.1045  0.0310
  192POPC   O2222150   0.135   4.426   6.725 -0.3690  0.1955 -0.6267
  192POPC   C2222151   0.065   4.658   6.704  0.0202 -0.1098  0.6565
  192POPC   H2R22152   0.032   4.683   6.601  2.2687  0.1736 -0.0476
  192POPC   H2S22153   0.115   4.743   6.756  2.1872 -2.1730  2.1510
  192POPC    C322154   0.446   4.436   6.801 -0.1793  0.1655 -0.5132
  192POPC    HX22155   0.513   4.347   6.796 -0.5930 -0.0917 -1.7586
  192POPC    HY22156   0.361   4.419   6.871  2.7059  3.5521  4.4727
  192POPC   O3122157   0.512   4.554   6.846 -0.6669 -0.4991  0.1510
  192POPC   C3122158   0.640   4.559   6.838 -0.0448 -0.0460  0.3759
  192POPC   O3222159   0.716   4.469   6.805  0.2999 -0.2447 -0.3279
  192POPC   C3222160   0.677   4.706   6.876  0.2904 -0.6169 -0.7901
  192POPC   H2X22161   0.588   4.772   6.868 -0.8359 -1.9227  0.3832
  192POPC   H2Y22162   0.748   4.743   6.799 -0.0991  0.4287 -0.6557
  192POPC   C2322163  -0.071   4.629   6.783  0.6755 -0.2980 -0.4162
  192POPC   H3R22164  -0.114   4.528   6.765 -0.3273  0.3024 -1.5417
  192POPC   H3S22165  -0.150   4.700   6.750  0.2078 -0.2798  0.6917
  192POPC   C2422166  -0.059   4.662   6.927 -0.1863 -0.8680  0.3234
  192POPC   H4R22167  -0.009   4.759   6.948  0.9081 -1.7008  1.7243
  192POPC   H4S22168   0.009   4.585   6.968  2.0186 -0.6571 -2.5850
  192POPC   C2522169  -0.200   4.667   6.982 -0.4686  0.1837 -0.5729
  192POPC   H5R22170  -0.249   4.568   6.967 -1.8663  0.6469  0.6081
  192POPC   H5S22171  -0.258   4.754   6.946 -0.0386  2.2101  3.1064
  192POPC   C2622172  -0.182   4.690   7.137  0.8643  0.4293 -0.1289
  192POPC   H6R22173  -0.121   4.782   7.145  0.1664  1.1073 -1.9995
  192POPC   H6S22174  -0.108   4.625   7.188  1.5629  0.5102 -1.0112
  192POPC   C2722175  -0.321   4.706   7.202  0.1369  0.4839  0.5558
  192POPC   H7R22176  -0.348   4.599   7.215  0.6975 -0.0838 -2.2422
  192POPC   H7S22177  -0.397   4.754   7.138 -0.9907 -2.9886 -0.9712
  192POPC   C2822178  -0.310   4.781   7.341 -0.3110 -0.1163  0.0158
  192POPC   H8R22179  -0.408   4.833   7.353  0.0621  0.6608 -0.2272
  192POPC   H8S22180  -0.244   4.870   7.336 -2.3298  1.5520  1.1927
  192POPC   C2922181  -0.295   4.694   7.460  0.0505 -0.5018 -0.5890
  192POPC   H9122182  -0.191   4.662   7.475  1.1197  2.1458 -1.5154
  192POPC  C21022183  -0.387   4.650   7.550  0.7285 -0.1800  0.2040
  192POPC  H10122184  -0.345   4.582   7.626  2.3950  2.0094  1.3754
  192POPC  C21122185  -0.539   4.667   7.551 -0.6156  0.2609  0.2523
  192POPC  H11R22186  -0.598   4.573   7.560 -1.7190  0.6650 -2.0729
  192POPC  H11S22187  -0.570   4.712   7.455 -0.4331  0.2257  0.1755
  192POPC  C21222188  -0.564   4.760   7.672 -0.1840  0.5534 -0.1688
  192POPC  H12R22189  -0.672   4.785   7.671 -1.1329 -2.4503  3.8760
  192POPC  H12S22190  -0.509   4.855   7.654  0.1401  0.1238 -1.6116
  192POPC  C21322191  -0.534   4.704   7.810  0.1205  0.7116  0.1985
  192POPC  H13R22192  -0.426   4.679   7.808  0.2382  0.9756 -3.1226
  192POPC  H13S22193  -0.593   4.612   7.827  3.2972 -1.0787  2.6210
  192POPC  C21422194  -0.559   4.799   7.932 -0.4222 -0.7077  0.0071
  192POPC  H14R22195  -0.667   4.785   7.953  0.3016 -2.3840  3.2099
  192POPC  H14S22196  -0.551   4.901   7.888  1.5245 -1.1648 -0.8245
  192POPC  C21522197  -0.478   4.764   8.056 -0.0132 -0.3761  0.2985
  192POPC  H15R22198  -0.370   4.784   8.044  0.2494 -2.4941 -1.6017
  192POPC  H15S22199  -0.503   4.663   8.095 -1.9158  0.2687  0.8635
  192POPC  C21622200  -0.518   4.846   8.184 -0.9191 -0.0668 -0.3306
  192POPC  H16R22201  -0.629   4.841   8.185 -1.2068  3.7736  0.3193
  192POPC  H16S22202  -0.486   4.952   8.175  0.2339 -0.5362 -2.6613
  192POPC  C21722203  -0.460   4.785   8.312  0.1741  0.8945  0.8729
  192POPC  H17R22204  -0.487   4.679   8.329 -0.7468  0.7068 -1.4258
  192POPC  H17S22205  -0.501   4.837   8.401 -1.4908  2.3596 -0.6583
  192POPC  C21822206  -0.312   4.805   8.327  0.2015  0.0208 -0.3190
  192POPC  H18R22207  -0.271   4.749   8.414 -0.6375 -0.6518 -0.3345
  192POPC  H18S22208  -0.292   4.913   8.340  0.8525  0.2131 -2.5338
  192POPC  H18T22209  -0.267   4.776   8.229 -0.2156  1.5227 -0.9892
  192POPC   C3322210   0.725   4.720   7.017 -0.0498  0.1332  0.4632
  192POPC   H3X22211   0.663   4.674   7.097  0.4661 -2.4459 -0.5295
  192POPC   H3Y22212   0.734   4.826   7.050  2.8643 -0.7079  2.8891
  192POPC   C3422213   0.872   4.681   7.038 -0.7881  0.1800 -0.1423
  192POPC   H4X22214   0.934   4.757   6.986  2.3055 -1.1811  1.2993
  192POPC   H4Y22215   0.897   4.583   6.992 -2.4231 -1.1320  1.6198
  192POPC   C3522216   0.914   4.667   7.190  0.0095  0.0013  0.0945
  192POPC   H5X22217   0.877   4.753   7.250  0.5673  0.5717 -0.3610
  192POPC   H5Y22218   1.023   4.685   7.181 -0.4217  2.4362 -1.3059
  192POPC   C3622219   0.889   4.529   7.261 -0.3900 -0.3456  1.0240
  192POPC   H6X22220   0.942   4.455   7.197 -1.7251  0.2581 -0.8770
  192POPC   H6Y22221   0.784   4.493   7.249  0.4732 -2.2542 -1.6063
  192POPC   C3722222   0.926   4.525   7.407 -0.1439 -0.6629  0.2277
  192POPC   H7X22223   0.993   4.613   7.419  0.9914 -1.2263 -1.5144
  192POPC   H7Y22224   0.980   4.431   7.433 -0.0063 -1.1493 -1.6219
  192POPC   C3822225   0.797   4.544   7.495 -0.6385  0.6464  0.1081
  192POPC   H8X22226   0.741   4.450   7.478  0.2100  0.4463 -1.9329
  192POPC   H8Y22227   0.728   4.626   7.467 -1.6028  0.0407  0.6560
  192POPC   C3922228   0.845   4.551   7.643 -0.0447 -0.3115  0.7070
  192POPC   H9X22229   0.892   4.652   7.658 -1.2496  0.7680 -2.1779
  192POPC   H9Y22230   0.916   4.473   7.678  0.2997 -1.0630 -1.5137
  192POPC  C31022231   0.723   4.532   7.743 -0.1194 -0.0869  0.5878
  192POPC  H10X22232   0.695   4.425   7.738 -0.6936  0.0986 -0.3664
  192POPC  H10Y22233   0.639   4.596   7.707 -1.4813 -1.5259  1.1276
  192POPC  C31122234   0.754   4.559   7.886 -1.0140 -0.7576 -0.1183
  192POPC  H11X22235   0.661   4.576   7.943  0.3287 -0.8840  2.2183
  192POPC  H11Y22236   0.810   4.655   7.895 -2.2728  0.1348 -1.3620
  192POPC  C31222237   0.837   4.446   7.949  0.1914  0.5534  0.4875
  192POPC  H12X22238   0.910   4.411   7.873 -0.4620 -0.3911  0.2757
  192POPC  H12Y22239   0.770   4.360   7.970  0.8304  0.3675  1.8356
  192POPC  C31322240   0.916   4.482   8.072  0.0834 -0.6810 -0.1378
  192POPC  H13X22241   0.861   4.523   8.159  1.1396 -0.5840  0.5005
  192POPC  H13Y22242   0.994   4.553   8.037 -0.3751 -1.0621 -2.0639
  192POPC  C31422243   0.992   4.366   8.119 -0.6440 -0.0950  0.2402
  192POPC  H14X22244   1.076   4.334   8.053 -0.4832 -0.6099  0.6875
  192POPC  H14Y22245   0.931   4.274   8.131  1.4545 -1.6583 -0.4372
  192POPC  C31522246   1.054   4.390   8.262 -0.2201  0.0063  0.0470
  192POPC  H15X22247   1.104   4.297   8.297 -1.7187 -1.2374 -0.9834
  192POPC  H15Y22248   0.971   4.406   8.334  0.4847  2.2355  0.4282
  192POPC  C31622249   1.158   4.499   8.264  0.1912  0.1339 -0.1833
  192POPC  H16X22250   1.115   4.601   8.270  2.1916  1.0072  0.1665
  192POPC  H16Y22251   1.231   4.486   8.181  0.9270 -1.4510  0.6529
  192POPC  H16Z22252   1.209   4.494   8.362  0.7986 -1.3323 -0.5437
  193SOD    SOD22253   6.452   3.032  11.420  0.0860  0.3267  0.1859
  194SOD    SOD22254   6.157   1.840   0.165 -0.3208  0.1318  0.1277
  195SOD    SOD22255   0.453   2.881   5.471 -0.2043  0.2332  0.0902
  196SOD    SOD22256   6.326   1.588   2.368  0.6754 -0.3270  0.8464
  197SOD    SOD22257   6.564   1.109  12.891  0.5005  0.0288  0.7335
  198SOD    SOD22258   3.439   0.236   4.958 -0.2797  0.2851  0.6652
  199SOD    SOD22259   1.805   6.238  14.531  0.2290  0.4251 -0.4250
  200SOD    SOD22260   4.652   0.958  12.290  0.2053  0.1886  0.6508
  201SOD    SOD22261   6.056   5.835  11.004 -0.0187 -0.1405 -0.0328
  202SOD    SOD22262   1.850   1.928  10.875  0.4682  0.2274  0.3510
  203SOD    SOD22263   6.427   6.742   3.163  0.0832 -0.1073  0.3755
  204SOD    SOD22264   5.641   6.388  12.145  0.2067 -0.5632  0.4017
  205SOD    SOD22265   4.689   5.446   5.626  0.1108 -0.4480  0.4181
  206SOD    SOD22266   4.706   1.021  14.254 -0.2351  0.1187  0.1702
  207SOD    SOD22267   3.727   0.955  16.328 -0.0061 -0.0007 -0.1198
  208SOD    SOD22268   0.668   1.022   3.913 -0.1536  0.5718 -0.0302
  209SOD    SOD22269   5.578   3.887  11.972 -0.0759 -0.3547  0.1924
  210SOD    SOD22270   3.914   1.716  11.481 -0.2220 -0.2707 -0.3200
  211SOD    SOD22271   6.202   3.968   6.204  0.1868  0.0745 -0.0036
  212SOD    SOD22272   1.575   3.393  16.871 -0.3474 -0.3221  0.2338
  213SOD    SOD22273   3.384   1.084  11.618  0.5665 -0.3259 -0.3215
  214SOD    SOD22274   5.497   2.231  16.995 -0.3089 -0.0475 -0.0506
  215SOD    SOD22275   1.926   2.278   5.710 -0.2036 -0.3604 -0.4470
  216SOD    SOD22276   4.221   0.001  14.492 -0.4742  0.0765 -0.4846
  217SOD    SOD22277   4.433   3.780   2.916  0.0845  0.5369  0.0090
  218SOD    SOD22278   0.520   0.215  11.357  0.0065 -0.4761  0.2118
  219SOD    SOD22279   2.309   6.659   5.831  0.1879 -0.3605 -0.2538
  220SOD    SOD22280   3.000   5.315  11.387 -0.0379  0.2553  0.0293
  221SOD    SOD22281   1.237   5.944  11.846 -0.0148  0.5174 -0.3284
  222SOD    SOD22282   6.491   6.335  16.794 -0.2533 -0.0122  0.1843
  223SOD    SOD22283   5.868   1.190  11.879 -0.1259  0.1545  0.0198
  224SOD    SOD22284   3.251   4.987   6.024 -0.1126  0.3108 -0.1295
  225SOD    SOD22285   1.801   6.457   6.719  0.3091  0.0255 -0.5123
  226SOD    SOD22286   0.328   5.547  13.358  0.1760  0.3307 -0.3564
  227SOD    SOD22287   4.387   4.786   2.108  0.2622 -0.0614 -0.2840
  228SOD    SOD22288   1.160   2.800  14.256  0.2969 -0.2509  0.5774
  229SOD    SOD22289   3.769   3.391  13.399  0.6346 -0.3633 -0.4024
  230SOD    SOD22290   4.676   0.825   2.760  0.3824  0.2120  0.5227
  231SOD    SOD22291   3.231   1.368  14.751 -0.5062  0.3070 -0.8319
  232SOD    SOD22292   2.079   1.675  17.159  0.2671  0.2921  0.0700
  233SOD    SOD22293   1.305   4.335   5.009  0.1267  0.4396  0.4465
  234SOD    SOD22294   0.512   3.640  13.033 -0.2315 -0.0090  0.0480
  235SOD    SOD22295   5.951   4.150   1.612  0.0888  0.1872 -0.4847
  236SOD    SOD22296   0.954   4.662   6.437  0.4725 -0.2976  0.4239
  237SOD    SOD22297   0.050   1.466   4.181  0.3199  0.4370  0.5712
  238SOD    SOD22298   5.863   5.775   5.794  0.1750 -0.0608 -0.1442
  239SOD    SOD22299   1.428   5.433  11.721  0.5524 -0.4446  0.0507
  240SOD    SOD22300   2.585   6.339  11.336  0.2890 -0.6793  0.3924
  241SOD    SOD22301   6.736   5.113  11.820  0.4879  0.3226  0.3475
  242SOD    SOD22302   1.059   1.945  14.054  0.2115  0.2965  0.3848
  243SOD    SOD22303   5.043   4.332  10.534  0.1211  0.1972 -0.3129
  244SOD    SOD22304   2.753   3.827  15.268 -0.4532 -0.4832 -0.2199
  245SOD    SOD22305   2.558   4.572  12.816 -0.2635 -0.3646  0.0172
  246SOD    SOD22306   4.949   4.468  14.244  0.4668 -0.1132  0.0812
  247SOD    SOD22307   0.926   3.124  13.124 -0.5565 -0.0423 -0.5495
  248SOD    SOD22308   6.344   6.015  11.847 -0.1083  0.7315 -0.0607
  249SOD    SOD22309   6.683   1.138   0.082  0.1874  0.1081  0.0539
  250SOD    SOD22310   6.727   2.566  11.610  0.1434 -0.0773 -0.1455
  251SOD    SOD22311   4.517   1.469  10.698 -0.6917 -0.2979  0.3196
  252SOD    SOD22312   6.250   1.229   6.092 -0.0934 -0.3433  0.3858
  253SOD    SOD22313   2.260   6.189  16.200  0.5360 -0.6394  0.9268
  254SOD    SOD22314   4.145   2.453  14.066  0.0777 -0.4439 -0.1834
  255SOD    SOD22315   6.643   3.551  16.274 -0.3690 -0.3426  0.2591
  256SOD    SOD22316   1.107   4.997  11.078 -0.4998 -0.0413  0.2865
  257SOD    SOD22317   2.040   6.562   2.145  0.2417  0.1673 -0.5390
  258SOD    SOD22318   0.202   3.278  12.275  0.1064  0.1125 -0.0377
  259SOD    SOD22319   3.800   2.737  15.613 -0.1693 -0.7260  0.4808
  260SOD    SOD22320   1.279   3.886  10.627  0.1223  0.6612  0.2058
  261SOD    SOD22321   3.041   6.567   4.002 -0.3193  0.0761 -0.3381
  262SOD    SOD22322   6.078   5.657  12.990  0.1533  0.0281  0.1804
  263SOD    SOD22323   2.030   3.187   0.783  0.1729  0.5301 -0.4553
  264SOD    SOD22324   1.743   6.085  12.878  0.6773  0.0709 -0.1782
  265SOD    SOD22325   0.976   2.411   2.258 -0.2559 -0.9125 -0.2999
  266SOD    SOD22326   3.803   5.560   4.496 -0.0512 -0.2073 -0.6945
  267SOD    SOD22327   2.591   4.165   5.524 -0.4403  0.3997  0.0636
  268SOD    SOD22328   2.937   2.713   1.512  0.4412 -0.3406  0.2084
  269SOD    SOD22329   0.579   1.037  13.666  0.1441 -0.2418 -0.0122
  270CLA    CLA22330   3.245   2.938  12.489  0.2053  0.2178 -0.0525
  271CLA    CLA22331   2.259   5.933  11.423  0.2369 -0.0588 -0.4488
  272CLA    CLA22332   1.108   3.320  12.536 -0.0053  0.1343  0.0149
  273CLA    CLA22333   0.643   6.097  12.061 -0.2763  0.0340  0.0576
  274CLA    CLA22334   4.741   2.131   0.269  0.2268  0.1700  0.1025
  275CLA    CLA22335   2.253   3.398  15.360  0.2075  0.0936 -0.0442
  276CLA    CLA22336   3.542   1.119  15.058  0.3792 -0.0061 -0.1211
  277CLA    CLA22337   2.092   4.209   1.895  0.2207 -0.3572 -0.1535
  278CLA    CLA22338   3.121   4.426  13.141 -0.1436 -0.0126 -0.4285
  279CLA    CLA22339   6.321   3.060   5.317 -0.0321  0.2234 -0.4738
  280CLA    CLA22340   6.704   1.509  15.439  0.0616 -0.1970  0.4034
  281CLA    CLA22341   5.565   2.263   5.043  0.1695  0.1651  0.3363
  282CLA    CLA22342   5.648   0.515  11.435  0.5563 -0.3170 -0.0776
  283CLA    CLA22343   5.159   4.001  14.974 -0.2363  0.1639  0.3046
  284CLA    CLA22344   3.536   4.571   5.748 -0.2678  0.1188  0.2247
  285CLA    CLA22345   3.370   0.742  12.845 -0.2909 -0.0777 -0.0913
  286CLA    CLA22346   3.160   5.796  13.061  0.1466  0.2817 -0.2465
  287CLA    CLA22347   1.005   4.261  11.669 -0.4599  0.0013 -0.1874
  288CLA    CLA22348   2.814   4.788  14.940 -0.5609 -0.2408  0.0424
  289CLA    CLA22349   4.957   1.358  12.921 -0.0755  0.1181 -0.1969
  290CLA    CLA22350   5.401   3.580  15.946  0.1878  0.0839 -0.2452
  291CLA    CLA22351   5.967   4.745  11.699 -0.1382  0.2436 -0.1292
  292CLA    CLA22352   3.946   0.723  13.558 -0.0803 -0.4521 -0.2913
  293CLA    CLA22353   2.338   1.338  17.061 -0.2793 -0.0933  0.2611
  294CLA    CLA22354   2.032   5.087   3.237 -0.3391  0.0050 -0.2849
  295CLA    CLA22355   5.838   2.507  12.865  0.0303 -0.0486  0.7462
  296CLA    CLA22356   5.863   4.254   0.965 -0.1980  0.0237  0.1662
  297CLA    CLA22357   5.226   0.153  11.880 -0.2616 -0.0753  0.1824
  298CLA    CLA22358   1.162   0.005  12.243  0.2738  0.3637 -0.1108
  299CLA    CLA22359   2.132   5.983  15.121 -0.4988  0.2670  0.0861
  300CLA    CLA22360   6.405   3.261  13.833 -0.0392  0.4385 -0.4566
  301CLA    CLA22361   6.296   3.890   1.941 -0.0467 -0.0995 -0.3147
  302CLA    CLA22362   3.302   2.279  15.338 -0.4307  0.1055 -0.0513
  303CLA    CLA22363   1.156   0.864  13.421  0.0665  0.6234  0.4078
  304CLA    CLA22364   4.188   4.140   3.032 -0.1257 -0.1961  0.1461
  305CLA    CLA22365   4.015   3.847   1.702  0.0196  0.1643  0.3186
  306CLA    CLA22366   6.569   1.306   2.824 -0.1358 -0.3111 -0.2888
  307CLA    CLA22367   4.585   5.676  16.137  0.3893 -0.4203 -0.1844
  308CLA    CLA22368   0.799   4.425  16.442  0.3757  0.4110 -0.1132
  309CLA    CLA22369   2.167   3.471  16.810  0.0909 -0.0024  0.1640
  310CLA    CLA22370   1.100   4.452   0.291 -0.3274  0.0558  0.1991
  311CLA    CLA22371   4.130   3.514   3.141  0.3583 -0.4981 -0.0462
  312CLA    CLA22372   1.236   6.670  13.547 -0.3454 -0.3851  0.0877
  313CLA    CLA22373   1.650   1.481   2.465  0.3190 -0.3660 -0.0889
  314CLA    CLA22374   5.662   6.712   2.630 -0.6586  0.1991 -0.1842
  315CLA    CLA22375   2.943   2.797  16.031 -0.8618 -0.6879  0.3952
  316CLA    CLA22376   0.942   2.278  14.540  0.1137  0.3114 -0.3047
  317CLA    CLA22377   3.914   6.703  11.200  0.3311 -0.3204  0.0530
  318CLA    CLA22378   6.392   3.495  13.221  0.0370  0.1508 -0.3698
  319CLA    CLA22379   4.135   0.440   2.658 -0.5732  0.1496  0.0208
  320CLA    CLA22380   6.622   5.989  15.746 -0.1002 -0.0817  0.1091
  321CLA    CLA22381   5.230   0.344   2.099  0.1883 -0.4304  0.3720
  322CLA    CLA22382   1.160   3.474  12.955  0.1908 -0.0317 -0.2941
  323TIP3   OH222383   5.689   3.099   2.116 -0.4099 -0.7170 -0.4795
  323TIP3    H122384   5.630   3.045   2.063  0.5346 -2.6896  0.3677
  323TIP3    H222385   5.777   3.074   2.087  0.0756 -0.3712  0.6499
  324TIP3   OH222386   2.063   2.408   6.301 -0.3885 -0.7451  0.0187
  324TIP3    H122387   2.098   2.332   6.346  1.4585 -0.1932 -0.4106
  324TIP3    H222388   1.970   2.408   6.322 -0.4762 -3.2019 -0.1008
  325TIP3   OH222389   3.729   5.808  13.666  0.4070 -0.3551 -0.5628
  325TIP3    H122390   3.681   5.726  13.681 -0.9049 -0.2444 -3.5607
  325TIP3    H222391   3.782   5.791  13.589  2.7771  0.6113  0.7669
  326TIP3   OH222392   0.557   1.123  15.225 -0.1284  0.3833  0.0893
  326TIP3    H122393   0.613   1.148  15.151 -0.3597 -1.6374 -0.8191
  326TIP3    H222394   0.610   1.142  15.303  1.8706 -1.4616 -0.7418
  327TIP3   OH222395   1.538   4.670  14.510  0.6190 -0.4066  0.4070
  327TIP3    H122396   1.478   4.740  14.535  0.5947 -0.1098 -0.4472
  327TIP3    H222397   1.614   4.716  14.474  1.5085 -0.7694  1.7721
  328TIP3   OH222398   6.516   2.884   1.312  0.8689  0.1022 -0.1290
  328TIP3    H122399   6.494   2.892   1.405  0.7853 -0.0800 -0.1322
  328TIP3    H222400   6.594   2.828   1.311  0.2841 -0.7160 -0.2317
  329TIP3   OH222401   4.791   0.814   1.687  0.5260  0.4273  0.5112
  329TIP3    H122402   4.810   0.779   1.774  1.1919 -1.8575 -0.4827
  329TIP3    H222403   4.798   0.909   1.697  2.6892  0.1329  2.4593
  330TIP3   OH222404   6.479   0.697  16.394 -0.2088 -0.3842  0.5375
  330TIP3    H122405   6.472   0.688  16.489  0.5443 -0.4562  0.5908
  330TIP3    H222406   6.388   0.695  16.363 -0.3821 -2.4755  1.0658
  331TIP3   OH222407   2.872   5.449  15.402 -0.3804 -0.1401 -0.9812
  331TIP3    H122408   2.859   5.534  15.445  0.0636 -1.3170  1.7386
  331TIP3    H222409   2.961   5.424  15.427 -1.6591 -2.9130  1.3575
  332TIP3   OH222410   5.165   5.435   1.184  0.0529 -0.7756  0.4003
  332TIP3    H122411   5.196   5.366   1.242 -1.6583 -2.6339 -0.7758
  332TIP3    H222412   5.121   5.389   1.112  0.3072  1.4964 -1.3270
  333TIP3   OH222413   3.981   3.262  16.330  0.5096 -0.0118  0.0154
  333TIP3    H122414   3.993   3.331  16.394 -0.3790  0.5743 -0.4306
  333TIP3    H222415   3.891   3.273  16.299  0.5107 -1.0631 -0.4156
  334TIP3   OH222416   3.984   3.714   0.692 -0.1538 -0.4896 -0.2161
  334TIP3    H122417   3.941   3.799   0.690  1.4793  0.4252  1.3674
  334TIP3    H222418   4.071   3.730   0.654  0.3777 -1.2999  0.6233
  335TIP3   OH222419   1.759   4.783   5.327 -0.8266 -0.1419 -0.0959
  335TIP3    H122420   1.850   4.811   5.323 -1.0410  0.6104  0.2120
  335TIP3    H222421   1.731   4.804   5.416 -0.5907 -2.6796  0.6430
  336TIP3   OH222422   4.960   0.580  11.001  0.2238  0.2867  0.0191
  336TIP3    H122423   4.966   0.673  10.981 -1.2733 -0.3244 -4.1222
  336TIP3    H222424   4.878   0.571  11.050  1.2333  1.2398  2.0025
  337TIP3   OH222425   0.014   5.657  14.612  0.0212  0.2170  0.1529
  337TIP3    H122426  -0.077   5.649  14.583  0.7532 -0.1781 -2.2447
  337TIP3    H222427   0.053   5.719  14.550  1.7457 -0.7637  0.2044
  338TIP3   OH222428   0.354   3.236  13.954  0.0933 -0.1402 -0.1129
  338TIP3    H122429   0.286   3.201  14.013  0.3050 -0.7554 -0.2205
  338TIP3    H222430   0.420   3.272  14.013  0.5971 -1.3031  0.0664
  339TIP3   OH222431   5.862   6.400  15.887  0.2804  0.4220 -0.6527
  339TIP3    H122432   5.930   6.336  15.865 -0.2069  0.0113 -0.9891
  339TIP3    H222433   5.910   6.474  15.924  0.8610 -0.1288 -0.2705
  340TIP3   OH222434   6.534   5.736  14.072 -0.0069  0.1840  0.4796
  340TIP3    H122435   6.463   5.711  14.132  0.4547  0.0937  0.9938
  340TIP3    H222436   6.493   5.736  13.985 -0.4405 -0.6496  0.6725
  341TIP3   OH222437   2.634   3.175  12.378  0.2398  0.3473 -0.0994
  341TIP3    H122438   2.557   3.231  12.370 -1.1385 -1.2183  1.5363
  341TIP3    H222439   2.690   3.221  12.441 -0.2166  0.5823  0.1347
  342TIP3   OH222440   5.974   3.832   0.859 -0.1659 -0.5313 -0.2977
  342TIP3    H122441   5.898   3.878   0.824 -0.0427 -0.3746 -0.3600
  342TIP3    H222442   6.030   3.901   0.892  0.9361 -0.4817 -2.1567
  343TIP3   OH222443   1.809   0.386   2.612  0.8543  0.2924  0.1184
  343TIP3    H122444   1.772   0.360   2.528 -2.7123  0.5032  1.4385
  343TIP3    H222445   1.864   0.462   2.592 -1.0696  1.2725 -1.8852
  344TIP3   OH222446   4.153   1.502  12.759 -0.0464 -0.6878 -0.2355
  344TIP3    H122447   4.133   1.435  12.825 -0.8086 -0.1139  0.1327
  344TIP3    H222448   4.244   1.526  12.777 -0.0833 -0.9079  0.2773
  345TIP3   OH222449   1.995   2.146   1.066 -0.0515 -0.0237 -0.1800
  345TIP3    H122450   1.916   2.195   1.040 -0.9536 -1.3058  0.0239
  345TIP3    H222451   1.968   2.096   1.143  1.6093  1.1108  1.2211
  346TIP3   OH222452   3.301   0.151  15.801  0.6157 -0.4552 -0.2702
  346TIP3    H122453   3.228   0.157  15.864  0.2979  1.4155 -0.7748
  346TIP3    H222454   3.379   0.166  15.854  0.2208  3.4299 -0.5331
  347TIP3   OH222455   1.985   6.619  12.672 -0.8190  0.3767  0.7779
  347TIP3    H122456   2.022   6.536  12.640 -1.7247  0.6464 -1.0880
  347TIP3    H222457   1.931   6.593  12.747 -0.3111 -0.5804  0.8361
  348TIP3   OH222458   1.157   6.511  15.223 -0.8604 -0.8475  0.0792
  348TIP3    H122459   1.100   6.584  15.248  0.4490  0.7275 -1.2398
  348TIP3    H222460   1.229   6.514  15.286 -0.1695 -0.1441 -0.7078
  349TIP3   OH222461   5.817   0.158  11.579 -0.2008  0.0186  0.0327
  349TIP3    H122462   5.726   0.144  11.552 -0.7068  2.4426  0.2246
  349TIP3    H222463   5.846   0.073  11.612 -1.9050 -1.1753 -1.3839
  350TIP3   OH222464   1.652   2.622  12.535  0.1291  0.2740 -0.1934
  350TIP3    H122465   1.643   2.682  12.609 -1.8126  0.9988 -0.9437
  350TIP3    H222466   1.582   2.557  12.549  0.5770 -0.3376 -0.7194
  351TIP3   OH222467   2.092   6.184   3.652 -0.2884  0.3947 -0.7872
  351TIP3    H122468   2.150   6.110   3.668 -1.8513 -0.5721  0.8392
  351TIP3    H222469   2.091   6.232   3.734 -1.4951  0.5514 -0.8663
  352TIP3   OH222470   0.612   6.369   0.900 -0.2105 -0.1314 -0.2144
  352TIP3    H122471   0.617   6.453   0.853  0.1473  0.7707  1.3593
  352TIP3    H222472   0.554   6.387   0.974  0.2041 -1.1543  0.3738
  353TIP3   OH222473   3.780   4.724   5.607  0.1538  0.2964  0.2071
  353TIP3    H122474   3.706   4.769   5.648  1.3500  1.0458  1.6688
  353TIP3    H222475   3.744   4.642   5.574 -1.3011  0.6109  0.9566
  354TIP3   OH222476   1.142   4.961   1.992  0.0677  1.0107 -0.0375
  354TIP3    H122477   1.232   4.961   1.959 -0.2849 -2.4085 -1.3707
  354TIP3    H222478   1.147   4.910   2.073 -1.0136 -2.0046 -1.7255
  355TIP3   OH222479   6.109   5.373  17.284  0.2119  0.4696 -0.1676
  355TIP3    H122480   6.159   5.302  17.245  0.4571  0.1178  0.7433
  355TIP3    H222481   6.037   5.329  17.330  0.8043  0.7161  1.0589
  356TIP3   OH222482   0.773   3.315  13.125  0.0585  0.2017 -0.5358
  356TIP3    H122483   0.776   3.377  13.053  1.0123 -1.1016 -1.6762
  356TIP3    H222484   0.738   3.365  13.199  1.9943  2.4537 -1.0351
  357TIP3   OH222485   1.074   2.537   0.348  0.5310 -0.9348 -0.0274
  357TIP3    H122486   1.005   2.476   0.323  0.4715 -1.1266  0.5695
  357TIP3    H222487   1.032   2.596   0.410  0.4765 -0.0018 -0.9411
  358TIP3   OH222488   5.957   6.158   1.801  0.4239 -0.1785  0.4566
  358TIP3    H122489   6.035   6.144   1.855  0.0645  1.3228  1.4265
  358TIP3    H222490   5.885   6.156   1.864 -0.4755 -2.4928 -0.5367
  359TIP3   OH222491   1.473   2.626   0.863 -0.4242 -0.0946 -0.6525
  359TIP3    H122492   1.398   2.569   0.846 -0.6164  0.5291 -1.9892
  359TIP3    H222493   1.524   2.623   0.783 -0.2699  1.3585 -0.6255
  360TIP3   OH222494   0.378   4.354   1.092 -0.2454 -0.0615  0.0720
  360TIP3    H122495   0.434   4.415   1.140 -1.2036  1.3263 -0.5239
  360TIP3    H222496   0.299   4.347   1.145 -0.4483 -0.1991 -0.2454
  361TIP3   OH222497   4.908   5.489   1.238 -0.3752 -0.0391  0.1577
  361TIP3    H122498   5.000   5.465   1.242 -0.6083 -1.2040 -0.7282
  361TIP3    H222499   4.900   5.542   1.159 -0.2390  1.2580  0.9865
  362TIP3   OH222500   0.500   5.567  17.250  0.5676 -0.2151 -0.1526
  362TIP3    H122501   0.558   5.589  17.322  3.3799  1.1702 -2.6243
  362TIP3    H222502   0.447   5.645  17.236  1.1307  0.0915 -0.5728
  363TIP3   OH222503   6.445   6.084   5.781 -0.5581  0.3155 -0.1039
  363TIP3    H122504   6.438   6.177   5.763 -2.0030  0.3024  0.3582
  363TIP3    H222505   6.433   6.075   5.875 -0.7888 -0.3752 -0.1903
  364TIP3   OH222506   3.491   3.358  10.623  0.1449 -0.7615 -0.3643
  364TIP3    H122507   3.418   3.410  10.588  0.8124 -0.0864 -0.8026
  364TIP3    H222508   3.569   3.400  10.587  0.7845 -1.0926  0.5953
  365TIP3   OH222509   3.640   6.710   4.115  0.0700  0.0230  0.1185
  365TIP3    H122510   3.654   6.627   4.160  2.0863 -1.0309 -2.2138
  365TIP3    H222511   3.589   6.687   4.037  2.6892  0.4177 -1.8327
  366TIP3   OH222512   1.805   0.600   3.725 -0.1532 -0.2755 -1.1506
  366TIP3    H122513   1.881   0.657   3.737  0.8524 -1.5074 -1.4295
  366TIP3    H222514   1.754   0.640   3.655 -0.6283  1.4249  0.1097
  367TIP3   OH222515   5.442   1.242  15.438 -0.3673 -0.4579  1.0144
  367TIP3    H122516   5.427   1.268  15.347 -0.4097 -1.1314  0.8201
  367TIP3    H222517   5.426   1.322  15.489  2.3758  0.6993  0.2361
  368TIP3   OH222518   4.252   4.660   1.960 -0.4997 -0.0919 -0.3498
  368TIP3    H122519   4.268   4.577   1.915 -1.7350 -1.4501  1.5738
  368TIP3    H222520   4.159   4.677   1.946 -0.0824  1.4729 -1.4455
  369TIP3   OH222521   5.188   0.126   1.069 -0.1316 -0.6325  0.4097
  369TIP3    H122522   5.204   0.122   1.163 -0.6579 -0.3462  0.5177
  369TIP3    H222523   5.193   0.035   1.040 -0.5761 -0.7975  0.8268
  370TIP3   OH222524   0.182   5.460   3.475 -0.1808 -0.3411  0.2390
  370TIP3    H122525   0.229   5.380   3.453 -1.3110 -1.2766  1.1018
  370TIP3    H222526   0.100   5.430   3.513 -0.4227  1.2253  1.0388
  371TIP3   OH222527   3.309   6.473   6.045  0.1813 -0.2804  0.4342
  371TIP3    H122528   3.394   6.480   6.088  0.3080 -1.1654  0.3396
  371TIP3    H222529   3.291   6.562   6.014  0.9410 -0.0250  0.6960
  372TIP3   OH222530   5.486   2.052   3.225 -0.3132 -0.1776 -0.1805
  372TIP3    H122531   5.399   2.038   3.187 -0.5228 -2.1223  0.9102
  372TIP3    H222532   5.481   2.014   3.312  1.3762  0.4995  0.2469
  373TIP3   OH222533   3.876   6.229  15.227  0.3502  0.0991 -0.3482
  373TIP3    H122534   3.906   6.297  15.287  1.4655  1.2395 -2.0832
  373TIP3    H222535   3.804   6.185  15.273  1.7761  0.2449  2.1639
  374TIP3   OH222536   4.234   2.559  11.182 -0.0715 -0.0049 -0.2533
  374TIP3    H122537   4.218   2.505  11.260  1.3677 -0.6681 -0.3893
  374TIP3    H222538   4.292   2.506  11.127  1.3066  1.6061 -0.4479
  375TIP3   OH222539   2.288   1.455   3.972 -0.5708  0.3289 -0.2857
  375TIP3    H122540   2.278   1.377   3.917 -0.0222  0.5876 -0.7684
  375TIP3    H222541   2.343   1.514   3.920 -0.0880  0.6076  0.5192
  376TIP3   OH222542   2.513   0.660   6.553  0.1384  0.1126  0.4934
  376TIP3    H122543   2.469   0.720   6.612  0.3008  1.1595 -0.4130
  376TIP3    H222544   2.545   0.589   6.609 -2.8165 -0.8219  1.1687
  377TIP3   OH222545   0.014   2.342  11.534  0.2983 -0.0477 -0.2455
  377TIP3    H122546  -0.028   2.257  11.544  0.5105 -0.2066 -0.6878
  377TIP3    H222547   0.105   2.322  11.510  0.6704  0.2881  0.8002
  378TIP3   OH222548   3.437   1.671  14.601  0.7053  0.6551 -0.3098
  378TIP3    H122549   3.528   1.699  14.608  1.0646 -0.1195 -1.5705
  378TIP3    H222550   3.408   1.704  14.515 -0.6514  2.0677  0.6340
  379TIP3   OH222551   3.557   0.447  12.613 -0.0519  0.2315  0.3849
  379TIP3    H122552   3.523   0.440  12.702  0.1996  0.6381  0.5186
  379TIP3    H222553   3.638   0.497  12.623  0.2631 -0.1868 -0.0023
  380TIP3   OH222554   5.735   1.431   3.404 -0.0626 -0.0996 -0.4987
  380TIP3    H122555   5.721   1.402   3.494 -1.6413 -1.9096 -1.2579
  380TIP3    H222556   5.786   1.361   3.363 -0.2040  0.2301 -1.2591
  381TIP3   OH222557   3.212   1.449   3.288  0.2239  0.3444  0.0602
  381TIP3    H122558   3.288   1.471   3.342  1.5629  0.7657 -1.8504
  381TIP3    H222559   3.168   1.533   3.274 -1.3852 -0.0632  2.1481
  382TIP3   OH222560   0.455   5.048   3.516 -0.1415  0.3771  0.0388
  382TIP3    H122561   0.502   5.043   3.599 -1.4407  3.4895  1.1168
  382TIP3    H222562   0.517   5.090   3.457  0.1632 -0.2219 -0.0809
  383TIP3   OH222563   2.570   4.148   0.757  0.1712  0.8311 -0.1455
  383TIP3    H122564   2.563   4.179   0.847  0.3713 -1.2878  0.6560
  383TIP3    H222565   2.522   4.213   0.706  1.6867  3.1156  1.1960
  384TIP3   OH222566   0.657   5.500   5.933 -0.0326 -0.6289  0.2686
  384TIP3    H122567   0.704   5.583   5.934  0.5960 -0.9784  1.3657
  384TIP3    H222568   0.568   5.523   5.961 -0.3246 -0.1001 -0.9966
  385TIP3   OH222569   5.566   2.458   4.182  0.5435  0.0266  0.5373
  385TIP3    H122570   5.648   2.494   4.216  0.1127  0.5335  1.0686
  385TIP3    H222571   5.576   2.363   4.189  1.8261 -0.0170 -1.1659
  386TIP3   OH222572   4.420   2.748  13.773  0.2904  0.1589  0.3669
  386TIP3    H122573   4.424   2.771  13.865  1.3862 -2.2439  1.0145
  386TIP3    H222574   4.509   2.720  13.751  0.1925  1.2137 -1.5958
  387TIP3   OH222575   6.710   4.089  16.904 -0.2773 -0.6892 -0.4395
  387TIP3    H122576   6.801   4.066  16.887  0.0371  0.4329 -0.3449
  387TIP3    H222577   6.666   4.004  16.918  0.6776 -1.2559 -0.7845
  388TIP3   OH222578   2.047   3.439   4.745  0.0737 -0.3295  0.1599
  388TIP3    H122579   2.091   3.382   4.808  0.2804  0.7021  0.9932
  388TIP3    H222580   2.001   3.380   4.686 -0.3970 -1.3386  1.4854
  389TIP3   OH222581   0.615   4.350   3.241  0.5220  0.2463 -0.1457
  389TIP3    H122582   0.551   4.292   3.282 -0.1913 -0.7726 -2.4742
  389TIP3    H222583   0.572   4.436   3.239  0.8561  0.4955  1.7225
  390TIP3   OH222584   0.955   6.459  13.852 -0.4476 -0.1440 -0.0608
  390TIP3    H122585   0.922   6.399  13.785  0.2968  0.4709 -0.9953
  390TIP3    H222586   1.045   6.431  13.866 -0.7701 -0.6456  1.1395
  391TIP3   OH222587   3.467   4.303  16.558  0.3195  0.4271  0.2355
  391TIP3    H122588   3.544   4.353  16.585 -0.5750  2.0006 -0.0250
  391TIP3    H222589   3.502   4.217  16.535  2.1637  1.3727 -0.7733
  392TIP3   OH222590   6.084   4.049   1.040 -0.2484 -0.5316  0.5026
  392TIP3    H122591   6.161   4.105   1.041 -1.3870  1.1010  2.4472
  392TIP3    H222592   6.010   4.109   1.032 -1.5171 -1.7055  2.5524
  393TIP3   OH222593   2.946   0.817   1.992 -0.2044  0.1229 -0.1345
  393TIP3    H122594   2.953   0.722   2.001 -0.8128  0.1864  1.1182
  393TIP3    H222595   2.972   0.851   2.077  0.3872  1.1122 -0.6985
  394TIP3   OH222596   1.009   6.150   2.959 -0.2186 -0.2273 -0.3199
  394TIP3    H122597   1.022   6.118   3.048  0.3632  0.2949 -0.2140
  394TIP3    H222598   1.072   6.221   2.949 -0.7537  0.1764 -0.9165
  395TIP3   OH222599   4.946   4.529  16.899  0.0409 -0.3383  0.2644
  395TIP3    H122600   4.943   4.554  16.806  1.8333  0.4991  0.3826
  395TIP3    H222601   4.939   4.612  16.946 -0.8697 -0.7606  0.9034
  396TIP3   OH222602   4.657   0.852   2.533 -0.0275 -0.6997  0.2784
  396TIP3    H122603   4.707   0.859   2.452 -0.1739 -2.8234 -0.0595
  396TIP3    H222604   4.569   0.883   2.509  0.0387 -0.9216 -0.2670
  397TIP3   OH222605   5.193   0.829  13.765  0.1611 -0.1204  0.3241
  397TIP3    H122606   5.273   0.830  13.712 -0.3160  0.6420 -0.4128
  397TIP3    H222607   5.172   0.737  13.774  0.8685 -0.3108  0.1278
  398TIP3   OH222608   2.174   4.238   4.987  0.0594  0.1594  0.0139
  398TIP3    H122609   2.157   4.162   4.931 -0.4940  1.2328 -1.3445
  398TIP3    H222610   2.270   4.243   4.990  0.1310  0.6481 -1.7137
  399TIP3   OH222611   1.155   3.168  14.403 -0.1643 -0.5520 -0.0286
  399TIP3    H122612   1.228   3.218  14.367 -0.7384  0.0100 -0.4412
  399TIP3    H222613   1.183   3.077  14.397  1.3553 -0.2735  1.7333
  400TIP3   OH222614   5.519   1.150  10.671 -0.2337  0.2869 -0.6294
  400TIP3    H122615   5.606   1.159  10.709  0.2776 -2.8050 -0.8200
  400TIP3    H222616   5.465   1.116  10.743 -0.5116 -0.7049 -1.2870
  401TIP3   OH222617   4.675   1.999   5.523 -0.2421  0.5608  0.0878
  401TIP3    H122618   4.759   1.991   5.478 -0.8653 -0.0346 -1.0106
  401TIP3    H222619   4.648   1.908   5.537 -1.9631  0.6864 -2.0123
  402TIP3   OH222620   6.459   4.585  16.513 -0.2488  0.2448  0.5226
  402TIP3    H122621   6.459   4.558  16.421  3.1158  0.7680  0.2346
  402TIP3    H222622   6.397   4.526  16.555  1.4355 -3.1735 -1.3341
  403TIP3   OH222623   6.525   3.784  13.253  0.7063  0.6907 -0.3164
  403TIP3    H122624   6.474   3.841  13.196 -0.0585  0.0774 -0.2687
  403TIP3    H222625   6.495   3.695  13.231 -0.2726  0.4785  1.6129
  404TIP3   OH222626   2.187   2.623   5.432 -0.2963  0.2972 -0.4968
  404TIP3    H122627   2.213   2.557   5.368 -2.1648 -0.1885 -0.8186
  404TIP3    H222628   2.223   2.705   5.397  1.4987 -0.4032 -0.4153
  405TIP3   OH222629   6.118   1.781  16.734  0.3390 -0.1842  0.0045
  405TIP3    H122630   6.166   1.831  16.799  0.3329 -0.6038  0.3406
  405TIP3    H222631   6.168   1.700  16.723  0.0409 -0.3591 -0.0963
  406TIP3   OH222632   0.101   3.591  13.829 -0.1943 -0.3547  0.1361
  406TIP3    H122633   0.167   3.575  13.897  1.2195 -0.3082 -1.1732
  406TIP3    H222634   0.040   3.653  13.869  0.3593 -0.6503  1.4968
  407TIP3   OH222635   2.245   4.114   0.491 -0.2108  0.2963  0.2369
  407TIP3    H122636   2.283   4.094   0.405  1.8334 -0.6689  1.2832
  407TIP3    H222637   2.285   4.198   0.515 -2.4026  1.6572 -0.5879
  408TIP3   OH222638   0.191   4.285  15.643 -0.3168  0.4375 -0.8490
  408TIP3    H122639   0.166   4.378  15.642 -1.0071  0.4640  3.0281
  408TIP3    H222640   0.276   4.283  15.686 -0.9727 -0.7636  0.4913
  409TIP3   OH222641   3.911   4.264  17.123 -0.5371 -0.0218 -0.1870
  409TIP3    H122642   3.842   4.205  17.094 -1.0106  1.1387 -1.5476
  409TIP3    H222643   3.991   4.213  17.115 -1.0575 -0.8289 -0.2941
  410TIP3   OH222644   0.929   2.750   0.465 -0.3600 -0.0537 -0.8169
  410TIP3    H122645   0.877   2.797   0.530  0.1459 -0.1550 -0.3303
  410TIP3    H222646   0.908   2.794   0.382 -1.2672 -0.1454 -0.6483
  411TIP3   OH222647   3.389   4.411  11.677 -0.0575  0.0593  0.1616
  411TIP3    H122648   3.371   4.388  11.769  1.0411  1.9587  0.9099
  411TIP3    H222649   3.304   4.439  11.642  0.0810  3.0115  1.8096
  412TIP3   OH222650   4.143   0.452   4.073  0.1085  0.1793 -0.3419
  412TIP3    H122651   4.122   0.543   4.055  0.0216  0.4767  1.1114
  412TIP3    H222652   4.235   0.453   4.098  0.6520 -0.4371 -2.1460
  413TIP3   OH222653   1.240   1.262   1.965  0.3384 -0.4653  0.0055
  413TIP3    H122654   1.166   1.320   1.982  0.6635 -0.1038  0.2109
  413TIP3    H222655   1.301   1.314   1.912  1.1809 -0.1749  1.1977
  414TIP3   OH222656   3.037   2.267   3.127 -0.3679  0.6562  0.2763
  414TIP3    H122657   2.972   2.298   3.063 -0.5843  1.6666  0.9593
  414TIP3    H222658   3.091   2.205   3.078 -1.3447  0.4057 -0.5251
  415TIP3   OH222659   0.882   2.328  12.199 -0.4985  0.1442 -0.0403
  415TIP3    H122660   0.831   2.298  12.274  0.5347  0.1252  0.6815
  415TIP3    H222661   0.964   2.359  12.238 -0.5728  1.6121 -1.0100
  416TIP3   OH222662   2.876   5.350   3.628 -0.5113  0.3283  0.2437
  416TIP3    H122663   2.855   5.430   3.579 -1.3243  0.6583  1.1053
  416TIP3    H222664   2.805   5.341   3.691  0.0251 -0.6129  0.7347
  417TIP3   OH222665   5.313   3.203  15.320  0.2368 -0.3637  0.1636
  417TIP3    H122666   5.321   3.252  15.402 -1.0800  0.5856 -0.2353
  417TIP3    H222667   5.390   3.146  15.318  0.3193 -0.3752  2.0316
  418TIP3   OH222668   3.030   3.699  10.992 -0.1223  0.8490 -0.2784
  418TIP3    H122669   2.989   3.629  10.942 -0.6260  1.0900 -0.1997
  418TIP3    H222670   3.010   3.679  11.083  1.2644  0.1031 -0.1074
  419TIP3   OH222671   4.028   1.549  16.136  0.2787  0.5226  0.0974
  419TIP3    H122672   4.100   1.525  16.078  0.1529 -0.1795  0.2146
  419TIP3    H222673   4.059   1.527  16.224  0.0283  0.4691  0.1756
  420TIP3   OH222674   2.566   2.880   0.680 -0.4304 -0.5744  0.1615
  420TIP3    H122675   2.565   2.968   0.717 -1.2368 -1.4828  2.4807
  420TIP3    H222676   2.634   2.834   0.729 -2.3711 -2.1623  1.5244
  421TIP3   OH222677   3.537   0.608  13.688 -0.1484 -0.7073  0.5564
  421TIP3    H122678   3.586   0.689  13.674  1.7709 -2.0127 -0.7113
  421TIP3    H222679   3.539   0.595  13.783  0.5752  0.1185  0.6668
  422TIP3   OH222680   2.012   2.603   4.435  0.8001  0.2439  0.2703
  422TIP3    H122681   2.019   2.518   4.392  0.7334  0.7942 -0.8641
  422TIP3    H222682   1.921   2.629   4.423  0.8675  0.5691  0.4417
  423TIP3   OH222683   2.256   3.072  16.383  0.6801  0.0230  0.6875
  423TIP3    H122684   2.319   3.111  16.443 -0.9938  0.0391  2.5119
  423TIP3    H222685   2.236   2.987  16.421 -2.4841  1.1349  1.8120
  424TIP3   OH222686   5.517   6.285   1.216  0.3600 -0.3344 -0.3723
  424TIP3    H122687   5.485   6.352   1.276  1.0974  1.6459 -2.0713
  424TIP3    H222688   5.507   6.203   1.264  0.5528  1.0947  2.2760
  425TIP3   OH222689   5.833   1.670   4.459 -0.2409  0.6748  0.0114
  425TIP3    H122690   5.898   1.637   4.397 -1.9950 -1.7136 -0.7165
  425TIP3    H222691   5.869   1.650   4.545 -0.2588 -1.2680 -0.3890
  426TIP3   OH222692   0.209   5.451  14.659 -0.0427 -0.2396  0.2363
  426TIP3    H122693   0.191   5.432  14.751  2.2386 -0.3847  0.7110
  426TIP3    H222694   0.154   5.526  14.639 -0.0202  0.2797  1.9675
  427TIP3   OH222695   3.167   4.552  11.653 -0.2909  0.2365  0.3648
  427TIP3    H122696   3.114   4.582  11.580  1.0021  1.5011 -0.1048
  427TIP3    H222697   3.104   4.534  11.723 -1.2844  2.9053  0.2713
  428TIP3   OH222698   1.305   3.465  14.153  0.0507  0.2341  0.1198
  428TIP3    H122699   1.302   3.559  14.136 -0.6396 -0.0167 -1.3412
  428TIP3    H222700   1.228   3.447  14.206  0.2559  0.5054  0.5137
  429TIP3   OH222701   3.135   3.060   4.277  0.0536  0.2392  0.4235
  429TIP3    H122702   3.174   3.117   4.343 -2.6860  2.2259  0.4697
  429TIP3    H222703   3.172   3.092   4.194  1.5552 -0.6052  0.7289
  430TIP3   OH222704   3.919   5.339  14.097 -0.3590 -0.1087 -0.4250
  430TIP3    H122705   3.979   5.326  14.171 -1.4955  0.7729  0.7039
  430TIP3    H222706   3.841   5.288  14.120 -0.2117 -0.9337 -1.6819
  431TIP3   OH222707   1.641   6.339   4.652 -0.4322  0.4816 -0.4802
  431TIP3    H122708   1.725   6.381   4.670 -0.5565  0.4287  0.2677
  431TIP3    H222709   1.601   6.329   4.738  0.1906 -2.4615 -0.4052
  432TIP3   OH222710   5.979   4.298  11.304  0.2685  0.3128 -0.4167
  432TIP3    H122711   5.986   4.285  11.399  2.3542  0.4239 -0.5174
  432TIP3    H222712   6.050   4.245  11.268 -0.1948  0.6744 -1.8900
  433TIP3   OH222713   1.021   0.494  16.945 -0.0979 -0.5224 -0.3058
  433TIP3    H122714   1.040   0.561  16.880 -0.0822 -0.6034 -0.3854
  433TIP3    H222715   1.106   0.476  16.987 -0.3140  0.3836  0.5658
  434TIP3   OH222716   1.548   2.377   5.946 -0.0052  0.3768 -0.1573
  434TIP3    H122717   1.539   2.298   5.893 -0.3252  1.4041 -1.7012
  434TIP3    H222718   1.460   2.415   5.947  0.4361  1.4816 -0.7382
  435TIP3   OH222719   1.278   3.588   6.470 -0.1528  0.3912 -0.0502
  435TIP3    H122720   1.226   3.666   6.454 -0.5036  0.2671  0.4392
  435TIP3    H222721   1.286   3.546   6.385 -1.2950  0.1473 -0.0526
  436TIP3   OH222722   6.087   5.167  12.964  0.1179 -0.1922 -0.5298
  436TIP3    H122723   6.066   5.092  12.908 -0.6583 -1.1526  0.9836
  436TIP3    H222724   6.011   5.175  13.022  1.8903 -0.7810  2.0172
  437TIP3   OH222725   2.938   6.478   0.566 -0.4353  0.1290  0.0012
  437TIP3    H122726   2.892   6.560   0.582  0.7396  0.8709 -0.2996
  437TIP3    H222727   2.922   6.459   0.473 -1.9063 -0.7771  0.4040
  438TIP3   OH222728   3.042   6.454   3.120 -0.0066  0.0843  0.4564
  438TIP3    H122729   3.000   6.368   3.127  1.7071 -0.7320  1.2342
  438TIP3    H222730   2.976   6.516   3.151 -1.3722 -0.8936 -0.4088
  439TIP3   OH222731   4.439   5.927  11.774  0.6491 -0.2658  0.0549
  439TIP3    H122732   4.364   5.871  11.753  0.5589 -0.4358  0.8050
  439TIP3    H222733   4.437   5.996  11.707  0.9071 -1.2836 -1.0349
  440TIP3   OH222734   4.273   5.775  16.096  0.0579  0.2237 -0.4299
  440TIP3    H122735   4.328   5.727  16.033  2.0413  0.5056  0.9912
  440TIP3    H222736   4.319   5.765  16.179 -2.8163 -0.6822  1.1701
  441TIP3   OH222737   5.313   2.947   6.038 -0.0089 -0.6396 -0.3939
  441TIP3    H122738   5.255   3.003   6.088  0.3919  1.0240 -1.7076
  441TIP3    H222739   5.293   2.858   6.068 -0.9442  0.1559  1.4440
  442TIP3   OH222740   4.001   1.278   2.476  0.2461  0.2170 -0.2112
  442TIP3    H122741   4.036   1.321   2.554 -1.0268  0.7605  0.0805
  442TIP3    H222742   3.956   1.347   2.428 -0.7151 -0.5151 -0.4011
  443TIP3   OH222743   5.447   4.246   0.412  0.2354  0.0484  0.3327
  443TIP3    H122744   5.497   4.327   0.400  1.7121 -1.0018 -1.0617
  443TIP3    H222745   5.436   4.239   0.507  0.3913  1.6942  0.4968
  444TIP3   OH222746   3.389   6.423  15.606 -0.4768 -0.4572  0.3954
  444TIP3    H122747   3.402   6.395  15.697 -0.7434  0.2256  0.6443
  444TIP3    H222748   3.422   6.512  15.603 -0.1650 -0.5863 -0.2639
  445TIP3   OH222749   0.402   6.388  13.220  0.1125  0.1788  0.4235
  445TIP3    H122750   0.439   6.417  13.136 -0.3478  0.9675  0.4847
  445TIP3    H222751   0.475   6.344  13.264 -0.2840 -2.6453 -1.4458
  446TIP3   OH222752   1.227   4.309  12.257  0.4803 -0.1495 -0.8915
  446TIP3    H122753   1.147   4.261  12.236  1.2213 -1.1822 -1.4419
  446TIP3    H222754   1.262   4.335  12.172  0.3344  0.9838 -0.6179
  447TIP3   OH222755   3.720   2.242  13.979  0.1053 -0.0958  0.4830
  447TIP3    H122756   3.658   2.179  14.015  0.8018 -0.5631  0.8986
  447TIP3    H222757   3.676   2.279  13.903 -1.0150  0.1911  1.2474
  448TIP3   OH222758   3.891   1.449   2.813 -0.1087 -0.8827  0.1534
  448TIP3    H122759   3.890   1.525   2.871 -0.1334 -0.0563 -0.8899
  448TIP3    H222760   3.801   1.416   2.814 -0.7905  0.7287 -1.3970
  449TIP3   OH222761   1.023   3.645  12.049  0.2085 -0.1139  0.1364
  449TIP3    H122762   0.959   3.701  12.005 -1.0253 -0.8135  0.9961
  449TIP3    H222763   0.977   3.610  12.125  2.4720  1.6908  2.5510
  450TIP3   OH222764   3.754   0.660  14.463 -0.1784 -0.3019 -0.2775
  450TIP3    H122765   3.827   0.625  14.411 -0.0935  0.6294 -0.8133
  450TIP3    H222766   3.693   0.696  14.398  0.0114  1.0373  0.2489
  451TIP3   OH222767   1.228   2.195   0.266  0.2617  0.7615 -0.1804
  451TIP3    H122768   1.193   2.146   0.340  0.5937 -1.6171 -1.4820
  451TIP3    H222769   1.158   2.193   0.201  1.3433 -0.7511 -1.3870
  452TIP3   OH222770   1.258   6.676   5.146  0.1394 -0.5165 -0.4607
  452TIP3    H122771   1.242   6.582   5.140 -0.2006 -0.4081 -1.4167
  452TIP3    H222772   1.352   6.685   5.132  0.4447 -0.8307  1.2219
  453TIP3   OH222773   4.002   4.123  12.914  0.0489  0.2678  0.2400
  453TIP3    H122774   4.003   4.034  12.879 -1.1014  0.2856  0.1542
  453TIP3    H222775   4.064   4.120  12.987 -1.1864 -1.0463  1.2804
  454TIP3   OH222776   6.369   2.745   1.852 -0.2328 -0.4800 -0.2307
  454TIP3    H122777   6.420   2.824   1.834 -0.6709 -0.1675 -0.1289
  454TIP3    H222778   6.283   2.778   1.877  0.0546 -0.9085  1.4647
  455TIP3   OH222779   0.113   3.101  14.722 -0.1335  0.4096 -0.1175
  455TIP3    H122780   0.072   3.171  14.671 -1.1324 -0.1200 -0.0756
  455TIP3    H222781   0.152   3.146  14.797 -1.2735  0.8752  0.2253
  456TIP3   OH222782   0.481   2.068   2.548 -0.4378  0.1098 -0.4073
  456TIP3    H122783   0.575   2.081   2.538 -0.4216  0.7418  0.4624
  456TIP3    H222784   0.442   2.137   2.494 -0.4294 -0.6000 -1.3562
  457TIP3   OH222785   4.907   4.600   1.672  0.5178 -0.3629  0.1481
  457TIP3    H122786   4.814   4.588   1.652  0.5652 -1.0469  0.3168
  457TIP3    H222787   4.953   4.544   1.609  0.8058 -0.1320  0.1510
  458TIP3   OH222788   4.360   5.019   3.787 -0.0040  0.2241  0.3103
  458TIP3    H122789   4.364   4.974   3.702  0.5900  2.1760 -0.7478
  458TIP3    H222790   4.354   4.948   3.851 -0.1235 -1.3189 -1.3305
  459TIP3   OH222791   4.241   6.487   3.661  0.5189  0.9641  0.6305
  459TIP3    H122792   4.219   6.507   3.753 -0.2502 -0.7187  0.8460
  459TIP3    H222793   4.271   6.397   3.663 -0.5709  0.5434 -0.9379
  460TIP3   OH222794   0.740   0.494  14.713  0.3502 -0.6964 -0.0760
  460TIP3    H122795   0.719   0.579  14.675  1.8638 -0.2520 -0.0086
  460TIP3    H222796   0.823   0.469  14.671  1.0343 -1.1253  1.4637
  461TIP3   OH222797   1.780   5.191  13.064  0.8869 -0.0545 -0.1700
  461TIP3    H122798   1.716   5.221  12.999  1.4292  1.5700 -0.0124
  461TIP3    H222799   1.757   5.239  13.144  0.4869 -1.7163  0.7525
  462TIP3   OH222800   0.568   3.941   2.596  0.5482  0.4217  0.3322
  462TIP3    H122801   0.642   3.882   2.577  1.3485  2.2459 -3.0896
  462TIP3    H222802   0.608   4.019   2.633  0.1162  0.7406  0.1304
  463TIP3   OH222803   0.454   3.055  16.425  0.5449  0.1497  0.3880
  463TIP3    H122804   0.373   3.105  16.438  0.0745 -0.7012  0.8540
  463TIP3    H222805   0.424   2.964  16.416  1.4018 -0.0838 -0.1542
  464TIP3   OH222806   1.067   5.911   5.183 -0.1684  0.0480 -0.6838
  464TIP3    H122807   1.092   5.873   5.267  1.1930  1.7075 -0.2796
  464TIP3    H222808   0.995   5.856   5.152  1.1963 -2.3667  0.1667
  465TIP3   OH222809   2.973   3.663  17.103  0.0269  0.8659 -0.0405
  465TIP3    H122810   2.890   3.617  17.115 -0.6547  2.1698  0.4764
  465TIP3    H222811   3.019   3.613  17.036 -0.7157 -0.4828  0.4226
  466TIP3   OH222812   1.234   3.568   4.327 -0.2557 -0.4245  0.0075
  466TIP3    H122813   1.144   3.540   4.312 -0.5161  0.0097  0.6885
  466TIP3    H222814   1.244   3.564   4.423  0.8221 -1.6137 -0.1186
  467TIP3   OH222815   0.629   3.185   4.300 -0.7246  0.4690 -0.1870
  467TIP3    H122816   0.574   3.108   4.287 -0.0045 -0.0684 -0.1269
  467TIP3    H222817   0.711   3.150   4.334  0.2823  1.0632 -1.8510
  468TIP3   OH222818   6.200   6.723   1.517  0.0896 -0.3017  0.2162
  468TIP3    H122819   6.170   6.661   1.584 -0.0049 -0.0780  0.3841
  468TIP3    H222820   6.293   6.735   1.535  0.2552 -0.8886 -0.2185
  469TIP3   OH222821   2.747   5.441  10.535 -0.5257  0.0960 -0.1529
  469TIP3    H122822   2.839   5.465  10.525 -0.1148 -0.5506  1.6883
  469TIP3    H222823   2.747   5.345  10.540 -1.2766  0.0931  0.0015
  470TIP3   OH222824   5.939   4.041   5.871  0.4575 -0.1760 -0.3785
  470TIP3    H122825   5.986   4.120   5.897  0.9981  0.0303 -1.9146
  470TIP3    H222826   5.940   3.986   5.950 -0.0040  1.3431  0.7454
  471TIP3   OH222827   0.341   4.232   4.876 -0.5243  0.4646  0.5105
  471TIP3    H122828   0.338   4.247   4.970 -0.0714 -1.6940  0.9215
  471TIP3    H222829   0.251   4.206   4.853 -0.1874 -1.0286  0.7713
  472TIP3   OH222830   5.357   1.902   0.140 -0.1395  0.5692 -1.1194
  472TIP3    H122831   5.450   1.888   0.120  0.1809  0.1357  0.5207
  472TIP3    H222832   5.317   1.920   0.055  1.7313  2.5699 -1.6577
  473TIP3   OH222833   5.499   4.463  14.001  0.4478 -0.2682 -0.1710
  473TIP3    H122834   5.491   4.435  14.092 -0.8104  0.3435 -0.0627
  473TIP3    H222835   5.492   4.382  13.950 -2.2667 -0.3599  0.1623
  474TIP3   OH222836   0.518   5.745   0.590  0.4296 -0.6963 -0.0548
  474TIP3    H122837   0.498   5.654   0.612 -1.9533 -0.7578 -2.0080
  474TIP3    H222838   0.560   5.739   0.504 -1.3621  0.0887 -1.0301
  475TIP3   OH222839   1.505   4.775   4.176  0.5486  0.6093  0.1782
  475TIP3    H122840   1.428   4.719   4.186  0.6952  0.4920  0.6624
  475TIP3    H222841   1.469   4.863   4.166  0.2229  0.2635 -2.4396
  476TIP3   OH222842   1.588   2.820   4.114  0.4763  0.0325  0.3886
  476TIP3    H122843   1.571   2.872   4.192 -0.9134 -0.0386  0.1561
  476TIP3    H222844   1.530   2.857   4.047  2.1673  0.5848 -0.8563
  477TIP3   OH222845   6.694   1.765   1.509 -0.2046 -0.4664 -0.2089
  477TIP3    H122846   6.640   1.838   1.477 -0.7447 -0.4452  0.7128
  477TIP3    H222847   6.778   1.776   1.464 -0.7699 -0.1519 -1.2195
  478TIP3   OH222848   6.501   0.573  15.834 -0.5263  0.1821 -0.2694
  478TIP3    H122849   6.460   0.658  15.819 -2.2902 -1.0668 -3.5412
  478TIP3    H222850   6.444   0.529  15.896 -0.1705  0.9731  0.6395
  479TIP3   OH222851   6.495   0.443  10.683  0.6416 -0.0045  0.0794
  479TIP3    H122852   6.490   0.507  10.612 -0.2317  1.1791  1.1584
  479TIP3    H222853   6.410   0.399  10.681  0.2443  0.6882  0.9502
  480TIP3   OH222854   3.645   4.660   4.294 -0.3383  0.0833 -0.0158
  480TIP3    H122855   3.692   4.741   4.310  1.4185 -0.8285 -0.3791
  480TIP3    H222856   3.669   4.603   4.367 -1.3244 -0.2251  0.0833
  481TIP3   OH222857   0.626   4.983   5.050  0.1518 -0.2774 -0.4845
  481TIP3    H122858   0.629   4.975   5.145 -0.6423  0.8740 -0.3321
  481TIP3    H222859   0.615   4.894   5.018 -2.3430 -0.4842  0.6806
  482TIP3   OH222860   2.524   0.788  13.187 -0.3253  0.1786 -0.3269
  482TIP3    H122861   2.515   0.750  13.275  0.6315  0.6756 -0.0064
  482TIP3    H222862   2.465   0.736  13.133 -0.0889 -0.8600  0.3821
  483TIP3   OH222863   0.932   3.275  15.528  0.1209 -0.5250  0.1370
  483TIP3    H122864   1.011   3.317  15.493 -0.1369  0.2112  0.4448
  483TIP3    H222865   0.905   3.214  15.458 -0.3252  0.8555 -0.9346
  484TIP3   OH222866   6.644   1.376   0.030 -0.3678 -0.2709 -0.1677
  484TIP3    H122867   6.672   1.420   0.110 -0.2852  0.0601 -0.3774
  484TIP3    H222868   6.636   1.446  -0.035 -0.7862 -0.4846 -0.3545
  485TIP3   OH222869   6.173   2.230   1.131 -0.1521  0.3505 -0.4436
  485TIP3    H122870   6.240   2.275   1.081 -0.8071  0.2890 -1.4029
  485TIP3    H222871   6.218   2.154   1.169  0.2954  0.2290 -1.1966
  486TIP3   OH222872   6.708   2.755  17.093  0.1420  0.1130  0.5089
  486TIP3    H122873   6.699   2.839  17.048  0.2593 -0.8374 -1.3844
  486TIP3    H222874   6.786   2.765  17.147  0.4199  1.0679 -0.0347
  487TIP3   OH222875   4.424   5.086   0.999  0.3498  0.4544  0.0166
  487TIP3    H122876   4.501   5.062   1.050  0.3280  1.3326  0.4796
  487TIP3    H222877   4.367   5.131   1.061 -1.2798 -1.5524  0.1031
  488TIP3   OH222878   3.255   0.060   4.622 -0.3325  0.3238 -0.1328
  488TIP3    H122879   3.277  -0.014   4.565 -2.2465 -0.3256 -0.0815
  488TIP3    H222880   3.203   0.118   4.566 -1.5509  0.0628  0.6897
  489TIP3   OH222881   0.542   4.602   0.603 -0.0028  0.4510 -0.6606
  489TIP3    H122882   0.553   4.622   0.696 -0.5562 -0.8959 -0.2852
  489TIP3    H222883   0.502   4.681   0.566  2.1644  1.8571 -0.2238
  490TIP3   OH222884   2.628   0.548  12.308 -0.6348  0.1379  0.0227
  490TIP3    H122885   2.536   0.555  12.333 -0.3569 -0.1493  1.1719
  490TIP3    H222886   2.659   0.638  12.301 -0.7319  0.2246  0.6970
  491TIP3   OH222887   3.916   3.754   5.650  0.2206 -0.0936  0.0906
  491TIP3    H122888   4.002   3.796   5.643  1.1571 -1.4633  2.3038
  491TIP3    H222889   3.925   3.693   5.723 -2.0177 -1.8390 -0.9707
  492TIP3   OH222890   4.618   0.476  14.024  0.1592  0.3963  0.0126
  492TIP3    H122891   4.568   0.515  13.951 -2.3415 -1.0697  0.8113
  492TIP3    H222892   4.587   0.522  14.102  0.9221  0.2170  0.4351
  493TIP3   OH222893   1.847   2.498  14.703  0.2639  0.3922 -0.0066
  493TIP3    H122894   1.933   2.508  14.744  0.0986 -0.8810  0.6749
  493TIP3    H222895   1.816   2.588  14.691  0.6013  0.8433  2.0628
  494TIP3   OH222896   4.949   5.182  14.483  0.1795  0.1933 -0.3088
  494TIP3    H122897   5.039   5.149  14.487  0.2663  0.2980 -1.1968
  494TIP3    H222898   4.904   5.123  14.422 -0.2779  0.3201 -0.0971
  495TIP3   OH222899   4.020   6.648   2.002  0.3261  0.2730 -0.4002
  495TIP3    H122900   4.035   6.694   2.085 -0.3543 -0.3743  0.0890
  495TIP3    H222901   4.055   6.560   2.016  0.5210  0.2580 -0.9280
  496TIP3   OH222902   5.544   0.221  13.322 -0.1083  0.0937  0.5232
  496TIP3    H122903   5.465   0.183  13.283 -0.3518  1.2290 -0.1089
  496TIP3    H222904   5.571   0.156  13.387 -1.6954 -0.2148  0.9273
  497TIP3   OH222905   1.871   0.415   2.309  0.5232 -0.0114  0.7642
  497TIP3    H122906   1.952   0.443   2.267 -0.3728 -0.7784 -1.6719
  497TIP3    H222907   1.814   0.492   2.305  0.0378 -0.4010 -0.6384
  498TIP3   OH222908   0.922   3.234  14.067  0.0128  0.0354 -0.7535
  498TIP3    H122909   0.884   3.190  13.991  0.4971 -1.6286 -0.0711
  498TIP3    H222910   0.898   3.179  14.141  1.1922  0.5751  0.0554
  499TIP3   OH222911   2.163   3.807   2.389 -0.0745 -0.1402  0.4129
  499TIP3    H122912   2.147   3.899   2.368  1.6929 -0.0306 -0.6269
  499TIP3    H222913   2.210   3.810   2.473  0.5522 -0.0525  0.0599
  500TIP3   OH222914   5.731   2.315  17.048 -0.7394  0.1212 -1.1933
  500TIP3    H122915   5.751   2.384  17.111 -2.0281 -0.7533  0.2469
  500TIP3    H222916   5.813   2.268  17.036 -0.6541 -0.2180  0.5252
  501TIP3   OH222917   3.672   4.833   0.917 -0.3934  0.4814  0.0682
  501TIP3    H122918   3.624   4.776   0.857 -0.6839  1.2778 -0.4820
  501TIP3    H222919   3.754   4.853   0.872  0.4224 -0.7382  0.9345
  502TIP3   OH222920   2.132   2.524  11.191 -0.4922 -0.4762 -0.1294
  502TIP3    H122921   2.096   2.490  11.273  1.2042 -1.8561  0.0981
  502TIP3    H222922   2.072   2.493  11.124 -2.1238  1.0036  0.5799
  503TIP3   OH222923   4.728   5.689  13.065 -0.1403 -0.3549 -0.2403
  503TIP3    H122924   4.784   5.621  13.028 -1.0798 -1.4918  0.3202
  503TIP3    H222925   4.680   5.644  13.135  0.4104  1.3074  1.2757
  504TIP3   OH222926   3.429   2.812   0.675  0.0842  0.0037 -0.4379
  504TIP3    H122927   3.507   2.868   0.680 -0.3905  0.8274 -1.7400
  504TIP3    H222928   3.397   2.824   0.586  0.5898 -3.2385 -1.1528
  505TIP3   OH222929   3.550   0.145  16.496 -0.1166 -0.0902 -0.3111
  505TIP3    H122930   3.589   0.175  16.578 -0.8875 -0.8056  0.3403
  505TIP3    H222931   3.478   0.206  16.480  0.6563  0.6637 -1.0143
  506TIP3   OH222932   3.384   3.759  17.085  0.2410  0.1554 -0.1214
  506TIP3    H122933   3.393   3.848  17.051 -2.3111  0.1843 -0.9168
  506TIP3    H222934   3.337   3.711  17.017 -0.2540 -1.2649  1.1515
  507TIP3   OH222935   1.641   5.409  13.544 -0.0448  0.5152 -0.7695
  507TIP3    H122936   1.733   5.413  13.519  0.4821  0.1450  0.9434
  507TIP3    H222937   1.621   5.498  13.575 -0.4472  0.7505 -1.6740
  508TIP3   OH222938   6.021   3.026   4.629  0.0083  0.0306  0.5788
  508TIP3    H122939   5.964   3.103   4.627 -0.2195 -0.1401 -1.2894
  508TIP3    H222940   6.086   3.042   4.561 -0.7023 -1.8733 -0.6300
  509TIP3   OH222941   1.305   4.073  13.242  1.0522 -0.6122  0.3381
  509TIP3    H122942   1.395   4.053  13.267  1.4066  0.4295 -0.0698
  509TIP3    H222943   1.303   4.168  13.231 -0.0641 -0.6327  0.2152
  510TIP3   OH222944   2.698   4.126  16.000 -0.2169 -0.1534  0.4402
  510TIP3    H122945   2.776   4.117  15.946  0.0966 -0.4519  0.9364
  510TIP3    H222946   2.710   4.207  16.048  0.3059 -0.7406  1.3297
  511TIP3   OH222947   6.154   4.670  12.234  0.4645  0.1324 -0.0365
  511TIP3    H122948   6.107   4.700  12.156 -2.0886  0.6214  1.5981
  511TIP3    H222949   6.231   4.726  12.238  0.4207  0.3977 -1.9350
  512TIP3   OH222950   4.159   4.690  13.198  0.1524  0.4681 -0.2121
  512TIP3    H122951   4.203   4.605  13.206  1.1258  0.8410 -1.4137
  512TIP3    H222952   4.207   4.736  13.129 -1.3833  1.3650 -0.7257
  513TIP3   OH222953   1.581   0.315   3.752  0.1238  0.3100 -0.0209
  513TIP3    H122954   1.595   0.231   3.708  1.5156  0.7190 -0.4250
  513TIP3    H222955   1.522   0.295   3.824 -0.2779 -0.8442 -0.6478
  514TIP3   OH222956   4.405   2.313   1.602  0.8061 -0.5382  0.2465
  514TIP3    H122957   4.451   2.314   1.518 -0.1993 -0.5951 -0.3130
  514TIP3    H222958   4.475   2.320   1.667  1.4759  1.9251 -0.6154
  515TIP3   OH222959   2.943   4.077   2.178 -0.2745  0.6821 -0.3081
  515TIP3    H122960   3.027   4.077   2.224  0.0973 -0.0879 -0.9586
  515TIP3    H222961   2.878   4.057   2.245  0.0361  1.4006  0.2245
  516TIP3   OH222962   1.893   4.814   5.047  0.0625 -1.2597 -0.6292
  516TIP3    H122963   1.805   4.791   5.076  0.2840 -2.3280 -0.7550
  516TIP3    H222964   1.901   4.774   4.960  0.6670 -1.1752 -0.6179
  517TIP3   OH222965   1.977   6.254  13.247  0.8735  0.0108 -0.3357
  517TIP3    H122966   2.070   6.275  13.252  0.4489  1.9091  0.8519
  517TIP3    H222967   1.957   6.256  13.154  2.0174 -0.4761 -0.6054
  518TIP3   OH222968   1.920   0.719  11.832  0.0188  0.6995 -0.1515
  518TIP3    H122969   1.939   0.629  11.860 -1.9283  0.6028  1.0966
  518TIP3    H222970   1.851   0.710  11.766 -2.5624  1.2725  2.2477
  519TIP3   OH222971   4.107   1.049   4.477  0.1423  0.3565 -0.0019
  519TIP3    H122972   4.198   1.065   4.453 -0.1278  0.3363 -1.1315
  519TIP3    H222973   4.071   1.002   4.401 -1.0307  1.1583  0.0312
  520TIP3   OH222974   1.079   2.508  16.079 -0.1558  0.6062 -0.8033
  520TIP3    H122975   1.149   2.450  16.109 -0.6674 -0.4377 -1.5869
  520TIP3    H222976   1.063   2.567  16.153  0.8777  0.2279 -0.2646
  521TIP3   OH222977   6.691   3.422  13.367 -0.3684 -0.5733 -0.3676
  521TIP3    H122978   6.735   3.489  13.419  1.0378 -0.0144 -2.1504
  521TIP3    H222979   6.606   3.459  13.346 -0.6059 -0.4503  0.8032
  522TIP3   OH222980   0.172   4.743   1.734 -0.1061  0.3866  0.2020
  522TIP3    H122981   0.248   4.791   1.766 -1.5605  1.5343  2.1809
  522TIP3    H222982   0.127   4.713   1.813 -2.6537  1.2857 -0.8015
  523TIP3   OH222983   0.558   3.092   5.375 -0.1907  0.0716 -0.0676
  523TIP3    H122984   0.559   3.176   5.422 -1.6289 -0.7189  1.4748
  523TIP3    H222985   0.648   3.060   5.381 -0.2271  0.2137  1.8028
  524TIP3   OH222986   5.513   2.832   6.219  0.0548  0.5144 -0.1919
  524TIP3    H122987   5.429   2.786   6.213 -0.6587  1.2184  2.9806
  524TIP3    H222988   5.515   2.887   6.141 -3.1594  1.5755  0.3365
  525TIP3   OH222989   4.864   2.500  15.494  0.0905 -0.0224 -0.3717
  525TIP3    H122990   4.871   2.537  15.406  0.9942 -1.3545 -0.8825
  525TIP3    H222991   4.861   2.405  15.481  0.0548 -0.2390  1.0245
  526TIP3   OH222992   2.504   3.842   6.263 -0.3292  0.0096  0.8703
  526TIP3    H122993   2.480   3.771   6.203 -1.3185  1.0308  0.0275
  526TIP3    H222994   2.595   3.863   6.240 -0.6555  0.3026 -0.2046
  527TIP3   OH222995   2.566   3.488  14.297  0.6552  0.0694 -0.0532
  527TIP3    H122996   2.522   3.535  14.226 -1.2336  1.6406  2.0475
  527TIP3    H222997   2.497   3.438  14.340  1.6734 -0.5036  0.9785
  528TIP3   OH222998   3.554   6.568   4.830  0.3388  0.2251  0.0808
  528TIP3    H122999   3.498   6.544   4.904 -2.2358 -2.0956 -2.3704
  528TIP3    H223000   3.640   6.533   4.852  0.2989  1.6295  2.8717
  529TIP3   OH223001   1.941   6.321   0.159 -0.4623  0.3674  0.0816
  529TIP3    H123002   1.872   6.378   0.192 -0.6841 -0.1802  0.5860
  529TIP3    H223003   1.901   6.274   0.086 -1.0567 -0.8942  1.1776
  530TIP3   OH223004   5.684   6.508   1.327 -0.1479  0.3440 -0.0859
  530TIP3    H123005   5.678   6.422   1.370  1.5058  0.9147  1.4269
  530TIP3    H223006   5.712   6.488   1.238 -0.7994 -0.7517 -0.0629
  531TIP3   OH223007   3.839   2.422  14.310 -0.1011 -0.4488 -0.5109
  531TIP3    H123008   3.839   2.334  14.346 -0.1817 -0.6879 -1.0764
  531TIP3    H223009   3.848   2.480  14.386  0.1949 -0.9514 -0.1580
  532TIP3   OH223010   1.300   5.331   4.036 -0.2644  0.5508  0.0657
  532TIP3    H123011   1.326   5.377   4.115 -0.0047  1.4353 -0.5243
  532TIP3    H223012   1.346   5.376   3.965 -1.8289  0.8971 -0.7806
  533TIP3   OH223013   1.980   6.741   1.756  0.7468 -0.1717 -0.3725
  533TIP3    H123014   2.032   6.785   1.689  1.1315  0.4496  0.3148
  533TIP3    H223015   1.889   6.764   1.735  0.5914 -2.1868 -2.2494
  534TIP3   OH223016   2.079   3.692   0.815 -0.0231 -0.2015 -0.2370
  534TIP3    H123017   1.992   3.664   0.844 -0.0872 -1.6475 -1.7031
  534TIP3    H223018   2.071   3.787   0.807 -1.1396 -0.1956  0.6623
  535TIP3   OH223019   0.027   0.254   6.197  0.6306  0.4151  0.1340
  535TIP3    H123020   0.110   0.259   6.150  0.5666 -1.2514 -0.2421
  535TIP3    H223021  -0.034   0.219   6.132  0.3984 -1.3876  1.2610
  536TIP3   OH223022   6.315   5.933  16.968 -0.4391 -0.1142  0.0873
  536TIP3    H123023   6.265   5.916  16.889 -0.5861 -1.0103  0.3659
  536TIP3    H223024   6.273   5.880  17.035  1.2725 -1.4518  0.1812
  537TIP3   OH223025   5.989   1.049  16.047  0.8075  0.3669 -0.6299
  537TIP3    H123026   6.025   1.089  16.127  0.9881 -1.2967  0.1671
  537TIP3    H223027   5.919   1.108  16.021 -1.0697 -0.3338  2.2993
  538TIP3   OH223028   4.802   5.321   0.626  0.2511 -0.0754  0.2422
  538TIP3    H123029   4.772   5.249   0.571 -0.7156 -0.2314  0.9469
  538TIP3    H223030   4.734   5.388   0.617  0.7378  0.4208  0.2262
  539TIP3   OH223031   5.486   6.002  16.051 -0.7192  0.4511 -0.1855
  539TIP3    H123032   5.517   6.090  16.075  0.2146  0.4528 -1.3289
  539TIP3    H223033   5.390   6.008  16.057 -0.6267  0.8599  2.0174
  540TIP3   OH223034   4.333   6.667  12.265  0.0742  0.1517 -0.5327
  540TIP3    H123035   4.351   6.694  12.174  1.0125  0.1260 -0.3688
  540TIP3    H223036   4.300   6.578  12.257 -2.4521  1.0306 -1.0326
  541TIP3   OH223037   0.435   3.228  14.668  0.4880  0.3781 -0.4356
  541TIP3    H123038   0.506   3.217  14.605  0.7602  4.6657 -1.2353
  541TIP3    H223039   0.364   3.266  14.617 -0.6261  0.5584  1.1807
  542TIP3   OH223040   1.339   5.862  14.027  0.5167 -0.0563 -0.3974
  542TIP3    H123041   1.297   5.881  14.111  0.5616 -1.9668  0.1058
  542TIP3    H223042   1.285   5.794  13.987  2.8036 -2.3315  0.1057
  543TIP3   OH223043   5.663   3.209  12.485  0.0380 -0.1483  0.0973
  543TIP3    H123044   5.674   3.120  12.520 -1.4780 -0.2053  0.5144
  543TIP3    H223045   5.625   3.196  12.398 -1.6405  0.0803  0.7547
  544TIP3   OH223046   4.977   4.220   4.212  0.0189 -0.0510  0.1939
  544TIP3    H123047   4.950   4.129   4.201  1.5521 -0.8300  2.2450
  544TIP3    H223048   4.919   4.254   4.280  0.3064  0.1237  0.3500
  545TIP3   OH223049   5.311   3.558   5.303 -0.3948  0.1245 -0.0135
  545TIP3    H123050   5.347   3.541   5.390  0.2597  1.2331 -0.0443
  545TIP3    H223051   5.243   3.491   5.292 -1.6183  0.9070  2.0028
  546TIP3   OH223052   4.617   1.908   3.818  0.2288 -0.4247 -0.2729
  546TIP3    H123053   4.527   1.929   3.792  0.3464 -0.6536 -0.8740
  546TIP3    H223054   4.629   1.954   3.901 -0.0085  0.6874 -0.8351
  547TIP3   OH223055   1.523   2.588   5.026  0.0837 -0.2743  0.2913
  547TIP3    H123056   1.539   2.563   5.117 -0.0814  1.1292  0.7306
  547TIP3    H223057   1.529   2.684   5.026 -2.2612 -0.0720 -0.6998
  548TIP3   OH223058   3.050   2.577  16.872  0.5841  0.3882  0.8015
  548TIP3    H123059   3.027   2.491  16.907 -0.2500  0.1633 -0.2219
  548TIP3    H223060   2.967   2.611  16.837  1.5665 -0.0632 -2.2639
  549TIP3   OH223061   3.714   6.608   3.096 -0.0475  0.5129  0.4373
  549TIP3    H123062   3.769   6.621   3.173 -0.0376 -0.4204  0.6015
  549TIP3    H223063   3.754   6.663   3.028 -0.0903  1.3793  1.1089
  550TIP3   OH223064   6.616   2.235  15.835  0.0399  0.0814  0.3699
  550TIP3    H123065   6.594   2.310  15.890 -3.2575 -0.9249  0.6505
  550TIP3    H223066   6.580   2.257  15.749 -1.5559 -1.3354  0.6133
  551TIP3   OH223067   1.877   6.101   3.963  0.6351 -0.3540  0.0145
  551TIP3    H123068   1.804   6.156   3.934  0.0657 -0.4939  1.1447
  551TIP3    H223069   1.885   6.119   4.056  1.5530 -0.9185  0.0548
  552TIP3   OH223070   3.994   4.463   5.755 -0.2609 -0.4280 -0.4959
  552TIP3    H123071   3.905   4.436   5.779  0.3251 -1.8217  0.2099
  552TIP3    H223072   4.038   4.381   5.730  0.9016  0.2061 -0.6003
  553TIP3   OH223073   2.771   0.051   3.961  0.0847 -0.6048 -0.2318
  553TIP3    H123074   2.732   0.122   4.012  0.6684  0.2398 -0.9268
  553TIP3    H223075   2.845   0.021   4.014  0.4850  0.0419 -0.4114
  554TIP3   OH223076   5.158   0.088  14.855 -0.0767  0.4947  0.4676
  554TIP3    H123077   5.246   0.054  14.867  0.0071  0.3473 -0.4486
  554TIP3    H223078   5.168   0.183  14.849  0.0029  0.4890  0.5232
  555TIP3   OH223079   5.170   6.249   2.729 -0.3445  0.3306  0.3406
  555TIP3    H123080   5.262   6.258   2.702  0.3200  1.4307  2.7049
  555TIP3    H223081   5.168   6.171   2.783 -1.2602 -0.7856 -1.2249
  556TIP3   OH223082   2.420   1.854  12.191  0.2726  0.1504 -0.4086
  556TIP3    H123083   2.450   1.932  12.238 -0.4162 -0.2877  0.7936
  556TIP3    H223084   2.328   1.844  12.217  0.0847 -0.5279 -1.2909
  557TIP3   OH223085   2.609   0.142   1.680 -0.3579 -0.1683 -0.3598
  557TIP3    H123086   2.582   0.228   1.647 -0.4764 -0.1082 -0.1112
  557TIP3    H223087   2.601   0.150   1.775  0.1958 -0.2682 -0.3055
  558TIP3   OH223088   4.271   0.982   2.060  0.3329 -0.4386 -1.3950
  558TIP3    H123089   4.257   1.076   2.075  1.6722 -0.2170 -1.3720
  558TIP3    H223090   4.297   0.948   2.146 -0.6619 -0.9444 -1.2868
  559TIP3   OH223091   4.572   3.310   4.919  0.0625 -0.2392  0.2848
  559TIP3    H123092   4.657   3.313   4.963  0.9270  0.4164 -1.3254
  559TIP3    H223093   4.517   3.370   4.970  0.1007 -1.7093  2.1588
  560TIP3   OH223094   3.206   6.472  12.081  0.6046  0.4551  0.2429
  560TIP3    H123095   3.268   6.508  12.145  1.3157  0.2664 -0.3309
  560TIP3    H223096   3.237   6.506  11.997  0.7539 -0.7533 -0.2094
  561TIP3   OH223097   0.054   6.538   0.224  0.2274  0.4433 -0.1143
  561TIP3    H123098   0.003   6.497   0.294 -0.3471  0.6140 -0.4241
  561TIP3    H223099   0.121   6.589   0.270  1.2950 -1.2341  0.2740
  562TIP3   OH223100   6.386   3.600   3.135  0.1662  0.4041  0.3041
  562TIP3    H123101   6.429   3.671   3.087  0.0909  0.0381 -0.3159
  562TIP3    H223102   6.458   3.543   3.164  0.1505  0.1302 -0.1846
  563TIP3   OH223103   1.918   0.006   5.119  0.3171  0.2132 -0.0595
  563TIP3    H123104   1.989   0.030   5.179  0.3074 -0.3293  0.1775
  563TIP3    H223105   1.881  -0.074   5.156  0.3209 -0.1430 -0.7942
  564TIP3   OH223106   2.712   3.620  15.870 -0.2962 -0.3980 -0.0926
  564TIP3    H123107   2.639   3.650  15.922  0.1985 -0.0152  0.3933
  564TIP3    H223108   2.676   3.552  15.813 -0.6535 -1.4865  1.3898
  565TIP3   OH223109   4.878   3.921  12.624  0.6102 -0.0608 -0.7090
  565TIP3    H123110   4.926   3.895  12.703  1.6564  0.0975 -1.2672
  565TIP3    H223111   4.798   3.962  12.657  0.9112 -0.2167  0.2566
  566TIP3   OH223112   2.027   5.352   2.257  0.0496 -0.0025 -0.2667
  566TIP3    H123113   2.119   5.340   2.280 -0.3901 -0.1559  1.5407
  566TIP3    H223114   1.979   5.321   2.333 -1.4714  1.4300 -0.5981
  567TIP3   OH223115   1.767   2.520  12.057  0.2286 -0.4311 -0.1546
  567TIP3    H123116   1.839   2.562  12.010  0.2898  2.0244  1.9776
  567TIP3    H223117   1.758   2.569  12.138 -3.4014 -1.0713  0.0200
  568TIP3   OH223118   3.144   0.429  10.750  0.7965  0.2491 -0.0226
  568TIP3    H123119   3.103   0.380  10.821  4.8639  1.3234  3.5009
  568TIP3    H223120   3.183   0.362  10.694 -0.1060 -0.6375  0.3918
  569TIP3   OH223121   1.024   4.527   1.105  0.3228 -0.2993 -0.1005
  569TIP3    H123122   1.084   4.484   1.045 -2.1051 -3.0272 -0.8380
  569TIP3    H223123   0.964   4.576   1.049  0.4104  0.4339  0.4285
  570TIP3   OH223124   0.087   2.848  14.871 -0.1569 -0.7440  0.2630
  570TIP3    H123125   0.084   2.911  14.799 -0.4215 -0.2294  0.7107
  570TIP3    H223126   0.128   2.771  14.834 -0.9560 -0.7573 -0.6450
  571TIP3   OH223127   4.480   2.796  14.073  0.4658  0.5352  0.2182
  571TIP3    H123128   4.551   2.848  14.110 -0.1251  1.0507  0.6594
  571TIP3    H223129   4.402   2.823  14.123 -0.1924  0.5975 -0.8053
  572TIP3   OH223130   5.159   6.439  17.135  0.2605  0.3869 -0.0770
  572TIP3    H123131   5.198   6.383  17.202  0.9692  0.3480 -0.5142
  572TIP3    H223132   5.073   6.463  17.171 -0.9073 -2.5216 -0.6930
  573TIP3   OH223133   2.842   1.169  17.113 -0.0693 -0.3009  0.6972
  573TIP3    H123134   2.845   1.265  17.106 -1.7342 -0.1420  1.6040
  573TIP3    H223135   2.883   1.138  17.032 -1.3569  1.2073 -0.6114
  574TIP3   OH223136   6.561   1.809   0.525  0.1985  0.2897 -0.3161
  574TIP3    H123137   6.580   1.794   0.618  0.9763  1.1132 -0.3313
  574TIP3    H223138   6.537   1.723   0.492  1.8169 -0.4090  0.2124
  575TIP3   OH223139   3.155   5.263  11.215  0.2864  0.8552  0.1641
  575TIP3    H123140   3.127   5.298  11.130 -0.0944 -0.0855 -0.1019
  575TIP3    H223141   3.172   5.170  11.199 -1.9494  0.1265  1.5858
  576TIP3   OH223142   3.477   0.451   4.462 -0.6392 -0.4728  0.4182
  576TIP3    H123143   3.416   0.480   4.395 -0.2637  0.8630  0.6357
  576TIP3    H223144   3.541   0.522   4.470 -0.2663 -0.9136  1.6815
  577TIP3   OH223145   0.613   0.965   0.318 -0.2129 -0.3948 -0.3294
  577TIP3    H123146   0.681   1.005   0.264 -1.0676  0.6681 -0.6486
  577TIP3    H223147   0.583   1.035   0.376  0.1293 -1.3041  1.0038
  578TIP3   OH223148   0.158   4.555  12.475 -0.8231 -0.1898 -0.5454
  578TIP3    H123149   0.193   4.510  12.552 -0.7807  1.4739  0.4503
  578TIP3    H223150   0.094   4.493  12.439 -0.3882 -1.2590  0.4374
  579TIP3   OH223151   4.162   5.957  13.838  0.8356  0.6960  0.2729
  579TIP3    H123152   4.123   5.907  13.910  0.7627  2.0761  1.2234
  579TIP3    H223153   4.255   5.958  13.857  1.1267 -0.8368 -0.8889
  580TIP3   OH223154   3.075   6.153   3.794 -0.3869 -0.1180  0.5440
  580TIP3    H123155   3.073   6.204   3.713  1.0222  2.0044  1.7367
  580TIP3    H223156   3.079   6.062   3.766 -1.8844  0.4556 -1.7207
  581TIP3   OH223157   1.663   6.465  14.982 -0.7155  0.5162 -0.3678
  581TIP3    H123158   1.573   6.450  15.010 -0.5328  0.5157  0.2298
  581TIP3    H223159   1.701   6.377  14.975 -1.1070  0.4376 -1.8288
  582TIP3   OH223160   2.748   5.679   4.556 -0.3555  0.5915  0.3453
  582TIP3    H123161   2.811   5.718   4.617  0.0201  0.3669  0.1032
  582TIP3    H223162   2.672   5.658   4.610  0.1191  0.0516  0.8188
  583TIP3   OH223163   3.290   3.528  11.297  0.2828  0.5670 -0.0569
  583TIP3    H123164   3.231   3.468  11.251  1.6843 -0.8845 -0.0564
  583TIP3    H223165   3.249   3.541  11.382  0.0211 -0.5592  0.0126
  584TIP3   OH223166   3.947   1.657   3.012  0.2079  0.2476 -0.5799
  584TIP3    H123167   3.998   1.608   3.077  2.7217  2.5676 -0.6449
  584TIP3    H223168   3.885   1.708   3.065  0.8667  0.6052 -0.1339
  585TIP3   OH223169   4.469   5.745  12.924  0.1531  0.6847  0.2012
  585TIP3    H123170   4.550   5.738  12.975  0.5163  2.3173 -0.0750
  585TIP3    H223171   4.443   5.837  12.934 -2.3792 -0.0713  1.3063
  586TIP3   OH223172   3.586   2.675  11.526  0.6552  0.0596 -0.3926
  586TIP3    H123173   3.639   2.601  11.497  0.9575  0.3096 -0.4874
  586TIP3    H223174   3.525   2.638  11.590  0.2422 -0.4284 -1.0592
  587TIP3   OH223175   6.455   1.422  13.882  0.5422 -0.5169  0.7729
  587TIP3    H123176   6.430   1.417  13.974 -2.0301 -1.3495  0.1185
  587TIP3    H223177   6.440   1.333  13.848 -1.2040  0.3943 -1.0135
  588TIP3   OH223178   3.118   3.446   1.273 -0.5950  0.0601 -0.6864
  588TIP3    H123179   3.172   3.464   1.196  1.5182 -1.5080  0.3298
  588TIP3    H223180   3.178   3.456   1.347 -1.7079 -1.6905  0.5165
  589TIP3   OH223181   3.064   0.687  11.721 -0.1630  0.7810  0.0816
  589TIP3    H123182   3.017   0.606  11.701  1.4239 -0.4255  1.0427
  589TIP3    H223183   2.999   0.742  11.766 -0.9532 -0.3837  0.4152
  590TIP3   OH223184   2.878   4.047   4.311 -0.5547  0.2086 -0.4464
  590TIP3    H123185   2.877   4.127   4.258 -1.4017  0.4670 -0.0641
  590TIP3    H223186   2.923   3.983   4.256  0.0027  0.9030 -0.8218
  591TIP3   OH223187   3.379   0.531   0.847 -0.2029  0.2415 -0.4293
  591TIP3    H123188   3.458   0.510   0.896 -0.2715  1.4970  0.2565
  591TIP3    H223189   3.405   0.524   0.755 -0.0897 -2.1949 -0.2821
  592TIP3   OH223190   5.401   5.390  12.593  0.4867  0.0343  0.4823
  592TIP3    H123191   5.404   5.325  12.664  0.6659 -0.5025 -0.0029
  592TIP3    H223192   5.480   5.442  12.605 -0.6168  1.4506  2.0425
  593TIP3   OH223193   5.974   6.282  16.493  0.1786 -0.1208 -0.0676
  593TIP3    H123194   5.988   6.194  16.528 -0.1552  0.2433  1.0101
  593TIP3    H223195   5.938   6.267  16.405  2.2011 -1.0467 -0.7942
  594TIP3   OH223196   3.950   4.706  12.929  0.5841 -0.0604 -0.2052
  594TIP3    H123197   3.989   4.626  12.893 -0.7761 -1.1009  0.5248
  594TIP3    H223198   4.024   4.753  12.967  1.2621 -1.6193  0.5112
  595TIP3   OH223199   6.450   4.881   0.707 -1.0412  0.1853  0.5185
  595TIP3    H123200   6.454   4.804   0.764 -0.8730 -0.1409  0.0715
  595TIP3    H223201   6.392   4.855   0.636 -0.3276  0.1734 -0.0675
  596TIP3   OH223202   5.419   1.977  15.725  0.2236 -0.0896  0.2184
  596TIP3    H123203   5.487   2.036  15.694 -0.0884 -1.3361 -3.3658
  596TIP3    H223204   5.450   1.947  15.810  1.4947  3.3392  1.1091
  597TIP3   OH223205   2.928   3.466  16.473 -0.1151 -0.4465  0.1380
  597TIP3    H123206   2.931   3.455  16.378 -1.3712  1.6873 -0.1943
  597TIP3    H223207   2.966   3.384  16.507  0.0328 -1.4140 -2.1560
  598TIP3   OH223208   1.483   1.853  14.898 -0.4648  0.3260  0.1961
  598TIP3    H123209   1.505   1.924  14.838 -1.5499  0.9122  0.4518
  598TIP3    H223210   1.492   1.892  14.985  0.2771 -0.2655  0.3866
  599TIP3   OH223211   3.990   2.877  16.054 -0.0312 -0.7438 -0.2655
  599TIP3    H123212   4.030   2.794  16.078  0.5236 -0.9472 -1.7844
  599TIP3    H223213   4.063   2.932  16.024 -0.3176  0.4803  1.1270
  600TIP3   OH223214   2.709   3.224   2.549  0.0286 -0.1194  0.4546
  600TIP3    H123215   2.691   3.318   2.548 -1.0518 -0.3102 -0.7841
  600TIP3    H223216   2.743   3.206   2.461 -2.6626 -1.3722 -0.4404
  601TIP3   OH223217   5.360   2.675  13.164 -0.0410 -0.1576  0.1842
  601TIP3    H123218   5.400   2.738  13.223 -0.5633  2.5882 -2.1827
  601TIP3    H223219   5.423   2.603  13.160  1.6046  1.1325  1.4147
  602TIP3   OH223220   6.279   0.106   2.163  0.1211 -0.2526  0.9278
  602TIP3    H123221   6.234   0.128   2.082  2.7193 -0.4458 -0.6703
  602TIP3    H223222   6.317   0.188   2.193  0.5389 -0.4918  1.0555
  603TIP3   OH223223   1.279   3.375  17.082 -0.2330  0.3626  0.1143
  603TIP3    H123224   1.347   3.315  17.052  0.1381  0.9679 -0.2688
  603TIP3    H223225   1.205   3.357  17.024  0.5340  1.6407 -1.3278
  604TIP3   OH223226   2.906   1.565  14.316 -0.1991 -0.4664  0.1398
  604TIP3    H123227   2.918   1.568  14.221  1.0308  0.0308  0.2905
  604TIP3    H223228   2.811   1.562  14.328 -0.3421 -1.5576 -1.1150
  605TIP3   OH223229   5.357   2.443   4.609  0.4505 -0.5840 -0.6086
  605TIP3    H123230   5.298   2.517   4.600  0.5892  0.0221  2.3272
  605TIP3    H223231   5.443   2.482   4.624  0.7962 -1.3661 -0.5061
  606TIP3   OH223232   5.434   0.192   4.593 -0.3007  0.1918  0.2039
  606TIP3    H123233   5.382   0.168   4.516 -1.7339  1.1847  0.8152
  606TIP3    H223234   5.524   0.180   4.566 -0.8321 -2.6191 -0.5612
  607TIP3   OH223235   4.811   3.008  10.713  0.3008  0.1749  0.3494
  607TIP3    H123236   4.872   2.961  10.770  0.3354  0.4032  0.5035
  607TIP3    H223237   4.740   2.945  10.698  1.2269 -0.5977 -0.9633
  608TIP3   OH223238   2.246   3.472  10.922 -0.0101 -0.1260  0.2400
  608TIP3    H123239   2.228   3.560  10.956  0.9486  1.5620 -3.2035
  608TIP3    H223240   2.193   3.465  10.843 -0.3168 -2.8525  0.5902
  609TIP3   OH223241   1.349   3.437   2.457  0.4395  0.0435 -0.3006
  609TIP3    H123242   1.350   3.501   2.386  0.9689 -0.6639 -0.9572
  609TIP3    H223243   1.422   3.378   2.437 -1.2562 -1.9994 -0.8907
  610TIP3   OH223244   1.757   1.510   2.759 -0.4283 -0.5405  0.0194
  610TIP3    H123245   1.707   1.546   2.832  0.2083 -0.3156  0.3598
  610TIP3    H223246   1.697   1.511   2.685 -1.1308 -0.9234  0.5811
  611TIP3   OH223247   1.404   1.767   5.508  0.8609  0.2537 -0.0576
  611TIP3    H123248   1.363   1.700   5.563 -0.1481 -0.0769 -1.1555
  611TIP3    H223249   1.465   1.812   5.566  0.7789 -0.9156  0.9864
  612TIP3   OH223250   5.060   5.556  13.760 -0.6639  0.0995 -0.1471
  612TIP3    H123251   5.120   5.544  13.833  0.2052  1.3292 -0.6242
  612TIP3    H223252   5.066   5.474  13.710 -1.9665 -1.1420  1.5933
  613TIP3   OH223253   4.468   0.976   0.511  0.1734 -0.2042  0.5293
  613TIP3    H123254   4.376   0.995   0.528  0.2489 -0.7013  1.5621
  613TIP3    H223255   4.468   0.887   0.476  0.3651 -0.8360  2.0363
  614TIP3   OH223256   1.886   4.497  12.836 -0.3099 -0.0005 -0.3005
  614TIP3    H123257   1.858   4.466  12.749  0.2040 -0.1774 -0.4066
  614TIP3    H223258   1.957   4.559  12.817  0.8563 -1.1958  0.0539
  615TIP3   OH223259   2.547   5.714   1.629  0.2212  0.0734 -0.2474
  615TIP3    H123260   2.626   5.735   1.580  2.7856 -2.4850  2.4251
  615TIP3    H223261   2.523   5.626   1.600 -1.3224  0.5321 -0.4989
  616TIP3   OH223262   0.826   0.922   3.734 -0.0776  0.3920  0.3184
  616TIP3    H123263   0.832   0.916   3.638  1.1524  2.6401  0.1741
  616TIP3    H223264   0.908   0.884   3.765  0.6610  1.8581  0.2772
  617TIP3   OH223265   1.879   4.658   4.813 -0.7831 -0.0695 -0.6057
  617TIP3    H123266   1.953   4.598   4.822 -0.5074  0.4789  1.3255
  617TIP3    H223267   1.888   4.694   4.725  1.4986  0.2810 -0.2994
  618TIP3   OH223268   3.618   5.729  12.500 -0.1207  0.2257  0.0374
  618TIP3    H123269   3.563   5.729  12.421  1.3845 -0.7324 -1.0742
  618TIP3    H223270   3.707   5.737  12.466  0.4470  2.5397  1.8223
  619TIP3   OH223271   4.036   3.900  15.920 -0.6685  0.2670  0.0362
  619TIP3    H123272   4.098   3.834  15.891  0.2075  0.5382  1.2292
  619TIP3    H223273   3.951   3.869  15.889 -0.0401 -0.4627 -1.0163
  620TIP3   OH223274   2.859   2.696   2.979  0.5705 -0.2816  0.1667
  620TIP3    H123275   2.944   2.696   3.024  0.2502  0.0214  0.7960
  620TIP3    H223276   2.815   2.775   3.012  0.1837 -0.2409 -0.4280
  621TIP3   OH223277   1.428   5.193  10.910  0.3718  0.0329 -0.0262
  621TIP3    H123278   1.377   5.114  10.893  0.9906 -0.0487 -1.7515
  621TIP3    H223279   1.432   5.238  10.825 -1.9270  3.1801  1.3141
  622TIP3   OH223280   0.157   4.794   0.794  0.4460  0.2245  0.2908
  622TIP3    H123281   0.240   4.765   0.755  0.5155 -2.4291  2.1086
  622TIP3    H223282   0.099   4.805   0.719  1.9376  0.4107 -0.9106
  623TIP3   OH223283   3.065   1.596   0.369  0.0350  0.6437 -0.5655
  623TIP3    H123284   3.102   1.671   0.324 -1.4737  0.0349 -3.0126
  623TIP3    H223285   2.970   1.610   0.366 -0.1884 -0.1982  1.1344
  624TIP3   OH223286   2.128   1.959  15.486  0.3793 -0.0704  1.1682
  624TIP3    H123287   2.166   2.023  15.545 -0.3398  1.2134  0.2793
  624TIP3    H223288   2.041   1.941  15.522  0.9182 -1.2965  1.9356
  625TIP3   OH223289   4.031   5.900  13.190 -0.3304 -0.4777 -0.3320
  625TIP3    H123290   3.962   5.839  13.218 -1.2947  0.5712 -0.3614
  625TIP3    H223291   4.007   5.983  13.231  0.8020 -0.0374 -0.5426
  626TIP3   OH223292   0.047   4.464   5.682 -0.3409  0.0921  0.2500
  626TIP3    H123293   0.088   4.381   5.709 -1.4544  0.1117  2.1457
  626TIP3    H223294   0.120   4.520   5.656  0.4235 -1.5615 -1.4520
  627TIP3   OH223295   4.420   5.801   6.565  0.7522 -0.2924  0.1738
  627TIP3    H123296   4.425   5.879   6.619  0.1851 -0.3645  0.3359
  627TIP3    H223297   4.464   5.825   6.483  1.9898 -0.3153  0.8092
  628TIP3   OH223298   0.730   0.974  13.247  0.5381  0.5035 -0.6273
  628TIP3    H123299   0.751   0.930  13.165 -1.3330 -1.6515 -0.0526
  628TIP3    H223300   0.635   0.967  13.255  0.5625  1.5342  1.2599
  629TIP3   OH223301   0.067   1.623   3.048 -0.3472  0.2132  0.4881
  629TIP3    H123302   0.100   1.674   2.974  1.2412 -0.5134  0.6478
  629TIP3    H223303   0.017   1.685   3.101 -0.0775  1.1294 -0.3223
  630TIP3   OH223304   3.001   5.743   2.783  0.1730 -0.2120  0.5227
  630TIP3    H123305   3.060   5.668   2.791 -0.2570 -0.5622  0.4664
  630TIP3    H223306   3.006   5.787   2.867  0.1799 -0.4883  0.6674
  631TIP3   OH223307   1.715   4.960   3.298 -0.2026 -0.0296  0.3171
  631TIP3    H123308   1.640   5.019   3.284 -1.5218 -1.9817 -1.4910
  631TIP3    H223309   1.791   5.012   3.273 -1.3119  0.9677 -1.1945
  632TIP3   OH223310   1.415   2.726  13.139 -0.3665 -0.1833  0.3143
  632TIP3    H123311   1.337   2.670  13.136  0.0589 -0.7626 -1.0642
  632TIP3    H223312   1.453   2.710  13.225 -0.1332 -2.2190 -0.1208
  633TIP3   OH223313   1.182   5.375   1.629 -0.2776 -0.1693 -0.3942
  633TIP3    H123314   1.206   5.379   1.722  0.3259  1.2008 -0.5923
  633TIP3    H223315   1.163   5.283   1.614 -0.4968 -0.4061  1.1184
  634TIP3   OH223316   3.950   4.002  16.415 -0.5599  0.3707  0.8677
  634TIP3    H123317   4.016   4.057  16.459  1.7326 -1.3366 -0.2133
  634TIP3    H223318   3.943   4.039  16.327  2.7691 -2.1178 -0.7002
  635TIP3   OH223319   5.031   2.994   4.389 -0.6457  0.3608  0.1025
  635TIP3    H123320   5.034   2.984   4.484 -2.2330  1.4949  0.3071
  635TIP3    H223321   4.965   2.931   4.360 -0.6474  0.4864 -0.1766
  636TIP3   OH223322   4.704   1.747   0.540  0.2594 -0.2622 -0.2180
  636TIP3    H123323   4.761   1.670   0.530 -0.9374 -1.0357 -1.5113
  636TIP3    H223324   4.623   1.712   0.577 -0.1948  0.4258 -0.5425
  637TIP3   OH223325   6.757   0.170  16.252  0.1297 -0.6459 -0.3286
  637TIP3    H123326   6.848   0.168  16.282  0.2342 -1.0528 -0.6639
  637TIP3    H223327   6.730   0.261  16.264 -0.0369 -0.9043  1.5779
  638TIP3   OH223328   2.020   3.023  15.821 -0.2057  0.0975  0.9291
  638TIP3    H123329   2.023   2.967  15.744  3.0822  0.4759  0.6446
  638TIP3    H223330   1.999   2.964  15.893 -0.7218 -0.7386  0.1129
  639TIP3   OH223331   4.100   5.419   6.200  0.0290  0.6873 -0.5222
  639TIP3    H123332   4.097   5.408   6.105 -1.9887 -0.5187 -0.3838
  639TIP3    H223333   4.011   5.400   6.228  0.8048  0.1314  1.7126
  640TIP3   OH223334   3.270   0.617   5.055  0.1573  0.6544 -0.3061
  640TIP3    H123335   3.201   0.580   5.109  0.4990  1.3300  0.6282
  640TIP3    H223336   3.298   0.696   5.102  1.2658  0.6282 -0.8714
  641TIP3   OH223337   6.759   3.181   0.340 -0.3378  0.1366  0.0334
  641TIP3    H123338   6.673   3.224   0.337  0.0394  0.9959  0.8486
  641TIP3    H223339   6.740   3.088   0.337 -1.1858  0.3148 -1.9450
  642TIP3   OH223340   5.520   4.915   1.706 -0.6816  0.0285  0.0061
  642TIP3    H123341   5.474   4.844   1.750 -0.4575  1.2752  2.4381
  642TIP3    H223342   5.472   4.929   1.625 -1.5549 -1.9585  0.1402
  643TIP3   OH223343   5.081   5.762   6.037  0.2189 -0.2569 -0.1854
  643TIP3    H123344   5.097   5.760   6.132  1.1237 -3.3548 -0.3124
  643TIP3    H223345   5.144   5.825   6.003  0.3176  0.4141  1.1711
  644TIP3   OH223346   1.433   3.046  10.414  0.0548 -0.3045  0.4538
  644TIP3    H123347   1.410   2.972  10.470  1.3699 -0.6952  0.5152
  644TIP3    H223348   1.398   3.123  10.460 -0.6093 -0.8125  0.8042
  645TIP3   OH223349   0.767   1.813   1.559 -0.0868 -0.0957 -0.3394
  645TIP3    H123350   0.809   1.735   1.523 -0.4836  0.4905 -2.1997
  645TIP3    H223351   0.763   1.797   1.653  0.5540 -1.9649 -0.5847
  646TIP3   OH223352   6.718   1.591  16.178  0.6855  0.0878  0.6521
  646TIP3    H123353   6.644   1.624  16.127 -1.1701 -2.3580  1.5393
  646TIP3    H223354   6.781   1.561  16.112  0.4792  1.3139 -0.1282
  647TIP3   OH223355   6.626   5.104   5.491 -0.2241  0.2373 -0.5352
  647TIP3    H123356   6.696   5.040   5.506 -0.5088 -0.3103 -1.4953
  647TIP3    H223357   6.608   5.100   5.397 -0.7519  1.2113 -0.4938
  648TIP3   OH223358   4.638   6.557   5.406  0.1674 -0.0880 -0.1459
  648TIP3    H123359   4.650   6.494   5.334 -0.4940  2.0495 -2.2846
  648TIP3    H223360   4.550   6.538   5.439  0.4858 -1.1170  0.1618
  649TIP3   OH223361   5.116   4.389   0.095  0.0654  0.2664 -0.4919
  649TIP3    H123362   5.088   4.426   0.178  2.0054 -0.2290  0.4241
  649TIP3    H223363   5.155   4.462   0.047 -1.3658  0.6323 -1.1695
  650TIP3   OH223364   1.035   5.388  16.066  0.1582 -0.8981 -0.5561
  650TIP3    H123365   1.039   5.460  16.128 -0.2001 -1.5724  0.2716
  650TIP3    H223366   1.047   5.429  15.980 -2.0908  0.4654 -0.3227
  651TIP3   OH223367   1.548   0.476  16.971 -0.0562  0.5474  0.4142
  651TIP3    H123368   1.619   0.435  17.020  0.0001  0.4857  0.2833
  651TIP3    H223369   1.564   0.570  16.981  1.1989  0.5657 -1.2182
  652TIP3   OH223370   4.389   3.911  12.489  0.3487 -0.1079 -0.1961
  652TIP3    H123371   4.297   3.889  12.480  0.1407  0.4472  0.4556
  652TIP3    H223372   4.428   3.833  12.529  0.5419 -1.0567 -2.1098
  653TIP3   OH223373   3.558   4.852  13.267 -0.5876 -0.1222 -0.2334
  653TIP3    H123374   3.472   4.886  13.245 -0.6528  0.2974  0.6220
  653TIP3    H223375   3.551   4.827  13.359  0.0333 -0.6328 -0.3194
  654TIP3   OH223376   4.240   1.994  11.627  0.1231 -0.0546 -0.4038
  654TIP3    H123377   4.306   2.038  11.680 -0.7271 -1.8494  2.3595
  654TIP3    H223378   4.157   2.020  11.665 -0.5192 -1.5202 -0.7291
  655TIP3   OH223379   2.546   2.398  17.281  0.0635 -0.1626 -0.0510
  655TIP3    H123380   2.461   2.408  17.323  0.4308  1.5474  0.3686
  655TIP3    H223381   2.600   2.352  17.346 -0.2288 -0.2499  0.1299
  656TIP3   OH223382   1.166   5.112   4.309  0.1364 -0.0158  0.0194
  656TIP3    H123383   1.155   5.180   4.375  0.4417  1.9327 -1.8290
  656TIP3    H223384   1.094   5.126   4.247  0.2918 -1.3048 -0.4910
  657TIP3   OH223385   3.102   4.980   3.772 -0.4158  0.4974 -0.6050
  657TIP3    H123386   3.066   4.892   3.782 -0.8323  0.5917 -1.2548
  657TIP3    H223387   3.154   4.993   3.851 -0.5627 -0.2313 -0.3799
  658TIP3   OH223388   2.977   6.195   0.019 -0.4016 -0.1978 -0.0970
  658TIP3    H123389   2.998   6.272  -0.035  0.7391 -0.7844 -0.5078
  658TIP3    H223390   2.966   6.230   0.107  1.8221  0.2291  0.0508
  659TIP3   OH223391   2.104   2.532   1.667  0.1944  0.2687  0.5594
  659TIP3    H123392   2.113   2.523   1.573 -1.3484 -0.7954  0.4888
  659TIP3    H223393   2.101   2.626   1.682 -1.2519  0.4410 -0.6455
  660TIP3   OH223394   2.304   0.104  12.054  0.1561 -0.6568 -0.1077
  660TIP3    H123395   2.339   0.168  11.991 -0.3083 -2.5032 -2.4000
  660TIP3    H223396   2.209   0.116  12.050  0.0952 -1.1322 -0.1720
  661TIP3   OH223397   5.086   4.613  13.882  0.6818  0.6457  0.1640
  661TIP3    H123398   5.065   4.662  13.803 -0.1147 -1.2811 -0.9100
  661TIP3    H223399   5.176   4.583  13.868 -0.3532 -2.0911 -1.4768
  662TIP3   OH223400   3.585   3.970  14.630  0.0334 -0.4849  0.3810
  662TIP3    H123401   3.602   3.879  14.656  0.5944 -0.6834 -0.6227
  662TIP3    H223402   3.637   3.983  14.551  1.2824  1.2462  1.4178
  663TIP3   OH223403   5.482   1.020  13.860  0.1018 -0.0541 -0.2928
  663TIP3    H123404   5.412   0.991  13.920 -0.8276  2.0958 -0.2587
  663TIP3    H223405   5.472   0.963  13.783 -0.1406 -1.3437  0.6443
  664TIP3   OH223406   0.623   5.069  17.198  0.1388 -0.5764 -0.9301
  664TIP3    H123407   0.676   5.105  17.127  2.3322 -0.7284  0.5399
  664TIP3    H223408   0.597   4.983  17.166  0.4179 -0.3351 -1.8624
  665TIP3   OH223409   1.498   4.569   1.509 -0.5359  0.3406 -0.2622
  665TIP3    H123410   1.512   4.593   1.601 -0.6581  0.5674 -0.3046
  665TIP3    H223411   1.575   4.516   1.487 -2.3682 -3.2506  1.1804
  666TIP3   OH223412   2.166   6.664   3.851 -0.3448 -0.8035  0.0285
  666TIP3    H123413   2.194   6.665   3.760 -1.6309 -0.1434 -0.3861
  666TIP3    H223414   2.103   6.736   3.858 -0.5646 -1.0911  1.3353
  667TIP3   OH223415   1.068   3.850   0.539  0.2844  0.4836 -0.1700
  667TIP3    H123416   1.134   3.858   0.470  0.3932  0.0760 -0.1139
  667TIP3    H223417   1.048   3.940   0.563  1.9105  0.5987  0.8586
  668TIP3   OH223418   4.954   6.096  17.039  0.1076 -0.8755 -0.5843
  668TIP3    H123419   4.933   6.075  17.130 -0.0426  1.3724 -0.0480
  668TIP3    H223420   4.894   6.166  17.015  2.3932  1.0037 -1.2492
  669TIP3   OH223421   5.962   4.179  12.241 -0.2308 -0.0307  0.0136
  669TIP3    H123422   5.941   4.114  12.308  0.4378 -0.9799 -0.6706
  669TIP3    H223423   6.056   4.193  12.249  0.0973 -1.0888 -1.4943
  670TIP3   OH223424   5.634   5.750   5.331  0.4029  0.0154 -0.2188
  670TIP3    H123425   5.563   5.806   5.360  0.6389 -0.1274  0.6829
  670TIP3    H223426   5.600   5.704   5.254 -0.6057 -0.3101  0.4051
  671TIP3   OH223427   0.363   5.823  14.060  0.2175  0.0053  0.1004
  671TIP3    H123428   0.401   5.877  13.991  0.9380  0.1078  0.5611
  671TIP3    H223429   0.325   5.886  14.122 -1.8685 -0.1234 -0.9687
  672TIP3   OH223430   1.582   3.998  13.264  0.8449 -0.4502  0.7967
  672TIP3    H123431   1.673   3.982  13.240  0.0437 -0.5566 -2.7436
  672TIP3    H223432   1.552   3.915  13.301  1.4088 -1.5263 -1.0161
  673TIP3   OH223433   2.760   4.928  15.558 -0.0256  0.6047 -0.0496
  673TIP3    H123434   2.705   4.850  15.568  0.1647  0.0857 -2.3426
  673TIP3    H223435   2.699   4.998  15.536  0.1298 -0.2624 -4.0076
  674TIP3   OH223436   4.403   6.114  16.145  0.4248 -0.4743 -0.0710
  674TIP3    H123437   4.452   6.195  16.157  0.7760 -0.6778 -0.1025
  674TIP3    H223438   4.414   6.093  16.052 -1.6869  0.7222 -0.6547
  675TIP3   OH223439   6.091   5.004   2.052 -0.0306 -0.2949 -0.3436
  675TIP3    H123440   6.012   4.985   2.104  0.2830  0.2662  0.3484
  675TIP3    H223441   6.059   5.059   1.980 -0.2423  0.1189  0.0601
  676TIP3   OH223442   3.229   4.536   5.671  0.2869  0.1227  0.3151
  676TIP3    H123443   3.220   4.454   5.719 -0.0681 -0.8942 -1.4045
  676TIP3    H223444   3.310   4.575   5.704  0.5569 -1.0055  1.0249
  677TIP3   OH223445   4.043   0.318   4.311 -0.0977 -0.4264 -0.0341
  677TIP3    H123446   4.020   0.233   4.273 -1.8731  0.5343 -1.2647
  677TIP3    H223447   4.093   0.362   4.243 -0.5783  0.1114 -0.0497
  678TIP3   OH223448   3.887   3.114   1.388 -0.3238  0.5963 -0.0490
  678TIP3    H123449   3.941   3.069   1.454  1.0039 -1.5002 -2.3521
  678TIP3    H223450   3.911   3.206   1.396  0.2413  0.3292  1.9415
  679TIP3   OH223451   0.952   5.665  14.080  0.5097 -0.2772 -0.1282
  679TIP3    H123452   0.909   5.580  14.067 -0.2281  0.1018 -0.2512
  679TIP3    H223453   0.882   5.721  14.113  0.8337  0.4461 -0.6522
  680TIP3   OH223454   1.849   3.252   2.530  0.4956 -0.5455 -0.6099
  680TIP3    H123455   1.891   3.178   2.574  1.6962  0.4171 -0.0688
  680TIP3    H223456   1.797   3.295   2.599  2.1360  0.7857 -0.1258
  681TIP3   OH223457   4.156   5.235   0.257 -0.2235  0.0740 -0.1748
  681TIP3    H123458   4.066   5.263   0.240 -0.8167 -1.7484 -0.2513
  681TIP3    H223459   4.159   5.222   0.352 -0.2836 -0.5916 -0.2584
  682TIP3   OH223460   0.275   0.400   2.121  0.0014 -0.5548 -0.6755
  682TIP3    H123461   0.330   0.394   2.199  0.3817  0.5053 -0.8422
  682TIP3    H223462   0.186   0.409   2.154  0.1305 -0.3832 -0.3776
  683TIP3   OH223463   2.573   3.394  12.190  0.0459 -0.1162 -0.4514
  683TIP3    H123464   2.516   3.470  12.199  1.2669  0.8563 -0.6704
  683TIP3    H223465   2.566   3.370  12.097  0.8016  0.6695 -0.7215
  684TIP3   OH223466   1.492   1.713  11.395 -0.2096  0.0209 -0.3384
  684TIP3    H123467   1.483   1.806  11.415 -1.9055 -0.0986 -0.3811
  684TIP3    H223468   1.528   1.674  11.475  0.1863  0.6535 -0.2008
  685TIP3   OH223469   4.929   5.007  12.741  0.7560  0.6989 -0.9148
  685TIP3    H123470   4.868   5.020  12.668 -1.4103 -0.4673  0.5971
  685TIP3    H223471   4.936   5.094  12.782 -0.0843  0.8021 -0.9774
  686TIP3   OH223472   6.263   1.933  11.575  0.2420  0.2999  0.4069
  686TIP3    H123473   6.205   1.884  11.516  0.4650  0.0809  0.3687
  686TIP3    H223474   6.351   1.909  11.547  0.4213  2.1684 -0.8724
  687TIP3   OH223475   3.871   1.925  11.165 -0.8256 -0.0128  0.9766
  687TIP3    H123476   3.779   1.935  11.140 -0.6458 -1.1738 -0.2636
  687TIP3    H223477   3.917   1.992  11.115 -0.7546 -0.8252 -0.0761
  688TIP3   OH223478   5.264   6.645   3.650  0.1051 -0.5239  0.3047
  688TIP3    H123479   5.272   6.651   3.745  1.1017 -1.2565  0.2796
  688TIP3    H223480   5.346   6.605   3.621  0.2705  0.6744 -0.9793
  689TIP3   OH223481   5.600   3.230   2.940 -0.4646  0.7991  0.4006
  689TIP3    H123482   5.602   3.135   2.954  1.1292  1.0562  2.3391
  689TIP3    H223483   5.651   3.242   2.859 -1.0326  0.0036 -0.0998
  690TIP3   OH223484   5.360   3.835  11.061  0.4187 -0.2073  0.1896
  690TIP3    H123485   5.281   3.889  11.070  2.9043  4.0860 -0.7666
  690TIP3    H223486   5.382   3.842  10.968  0.7229 -3.4068 -0.0731
  691TIP3   OH223487   2.206   0.755   1.374 -0.0105 -0.2014  0.2938
  691TIP3    H123488   2.251   0.740   1.291  1.9475 -2.8967  1.6669
  691TIP3    H223489   2.269   0.726   1.440 -2.0661  0.4043  2.6472
  692TIP3   OH223490   0.467   1.971   0.777  0.0629  0.1034  0.2918
  692TIP3    H123491   0.487   2.036   0.844 -0.0784 -0.3969  0.8288
  692TIP3    H223492   0.383   1.933   0.805  0.6670 -1.0582  0.5748
  693TIP3   OH223493   0.754   3.149   5.059  0.0687  0.5826 -0.4310
  693TIP3    H123494   0.685   3.215   5.070 -1.3743 -0.2142 -3.4828
  693TIP3    H223495   0.715   3.068   5.092 -0.7962  0.0102 -2.6934
  694TIP3   OH223496   3.105   4.101  15.177  0.5688 -0.2189  0.0068
  694TIP3    H123497   3.154   4.181  15.159 -0.2174  0.2114 -0.2124
  694TIP3    H223498   3.017   4.118  15.146  0.3813 -1.1627 -0.0188
  695TIP3   OH223499   3.041   1.109  13.111 -0.6807  0.1557 -0.0984
  695TIP3    H123500   3.032   1.059  13.030  0.6611 -0.6438  0.2218
  695TIP3    H223501   3.079   1.192  13.084 -0.5144  0.0072 -0.3197
  696TIP3   OH223502   3.835   3.601   2.803 -0.3483 -0.1586  0.1075
  696TIP3    H123503   3.829   3.589   2.898  1.6097  0.0339  0.3073
  696TIP3    H223504   3.745   3.610   2.774 -1.2708 -3.4293  1.5015
  697TIP3   OH223505   3.770   0.210   1.879 -0.4178  0.1948 -0.4069
  697TIP3    H123506   3.732   0.219   1.966 -1.8312 -0.4482 -0.9369
  697TIP3    H223507   3.735   0.128   1.845  1.4041 -0.3966 -0.9671
  698TIP3   OH223508   6.274   2.874   2.502 -0.1789 -0.3071 -0.2880
  698TIP3    H123509   6.333   2.918   2.442  0.9064 -1.0644  0.1935
  698TIP3    H223510   6.319   2.876   2.587 -0.4576 -1.6096 -0.0836
  699TIP3   OH223511   4.102   4.198   5.659 -0.4815 -0.0608  0.5842
  699TIP3    H123512   4.122   4.172   5.749 -1.5571 -1.5765  0.4273
  699TIP3    H223513   4.186   4.196   5.614  0.1237  1.0533  1.6047
  700TIP3   OH223514   0.848   0.166   1.813  0.1604 -0.2729 -0.3883
  700TIP3    H123515   0.807   0.246   1.846 -0.1714 -0.3327 -0.6561
  700TIP3    H223516   0.919   0.149   1.875  0.2259  0.2225 -0.3196
  701TIP3   OH223517   4.970   1.603  13.490 -0.2135  0.0965 -0.2051
  701TIP3    H123518   4.916   1.545  13.544 -0.8228 -0.2524 -1.1564
  701TIP3    H223519   4.986   1.679  13.545 -0.1550 -0.5805  0.7464
  702TIP3   OH223520   1.488   1.181  11.551 -0.0864  0.3564 -0.1932
  702TIP3    H123521   1.468   1.273  11.538 -1.0481  0.1866 -0.0446
  702TIP3    H223522   1.555   1.180  11.619  0.2907  0.9605 -0.5513
  703TIP3   OH223523   3.207   0.300   0.328  0.2797 -0.4758 -0.3406
  703TIP3    H123524   3.261   0.366   0.285 -0.7822  0.0031 -0.9857
  703TIP3    H223525   3.247   0.289   0.414  1.4430 -0.2045 -0.8254
  704TIP3   OH223526   3.420   5.609   2.308  0.1617 -0.5632  0.3280
  704TIP3    H123527   3.409   5.633   2.216  1.3348 -0.6659  0.1505
  704TIP3    H223528   3.373   5.526   2.317  1.3264 -1.3386 -0.5656
  705TIP3   OH223529   0.897   2.385  13.182  0.3109 -0.1079  0.1389
  705TIP3    H123530   0.927   2.433  13.106  1.0529  0.2103  0.6260
  705TIP3    H223531   0.841   2.447  13.229 -0.2245 -0.3357 -0.1879
  706TIP3   OH223532   3.852   1.779   0.613  0.2967  0.0659  0.2690
  706TIP3    H123533   3.779   1.761   0.672  0.3106  0.4950  0.4197
  706TIP3    H223534   3.823   1.854   0.561  1.3714  1.5442  1.6804
  707TIP3   OH223535   5.278   3.101  14.806 -0.5862  0.7963  0.2384
  707TIP3    H123536   5.219   3.172  14.780  0.7522  2.2793  1.0166
  707TIP3    H223537   5.276   3.102  14.902  0.2762  0.5081  0.2661
  708TIP3   OH223538   2.145   6.471  14.463 -0.1196  0.4061  0.0343
  708TIP3    H123539   2.057   6.495  14.489 -0.8888  2.1910 -3.5629
  708TIP3    H223540   2.199   6.547  14.486  0.5789 -0.6400  2.1342
  709TIP3   OH223541   2.274   1.038  12.440  0.4204  0.3314 -0.4347
  709TIP3    H123542   2.324   0.998  12.511 -1.4994 -0.1878  0.6935
  709TIP3    H223543   2.240   1.119  12.478 -0.5606  0.0835 -0.7421
  710TIP3   OH223544   5.160   5.047  12.234  0.2125 -0.4660 -0.0135
  710TIP3    H123545   5.244   5.092  12.228  0.5056 -0.7772  1.4528
  710TIP3    H223546   5.119   5.081  12.314 -0.9768 -0.4701 -0.5950
  711TIP3   OH223547   4.088   5.593  16.125  0.1807  0.0625 -0.0157
  711TIP3    H123548   4.007   5.627  16.089  0.0750  1.0067  1.0592
  711TIP3    H223549   4.147   5.668  16.128  0.6532 -0.3140  0.4430
  712TIP3   OH223550   0.687   4.137  16.359 -0.1452  0.9318  0.1334
  712TIP3    H123551   0.658   4.115  16.447  2.3519 -2.3384  0.3604
  712TIP3    H223552   0.748   4.210  16.371 -0.0883  0.7422  1.0680
  713TIP3   OH223553   1.560   4.461  17.029  0.2993  0.1425  0.5117
  713TIP3    H123554   1.619   4.438  16.957  0.3377 -0.1536  0.6380
  713TIP3    H223555   1.494   4.391  17.029 -1.2267  1.4726 -0.8915
  714TIP3   OH223556   4.245   5.087  12.131 -0.1075  0.2105  0.4499
  714TIP3    H123557   4.294   5.049  12.204  0.0684  1.8870  1.2599
  714TIP3    H223558   4.285   5.173  12.118  0.3183 -0.2829 -2.1094
  715TIP3   OH223559   4.460   1.749   2.223 -0.2363  0.1467  0.1203
  715TIP3    H123560   4.456   1.739   2.128  1.6379  1.2884 -0.1236
  715TIP3    H223561   4.419   1.834   2.240  0.0629  0.2692  0.2424
  716TIP3   OH223562   3.903   5.727   2.701  0.2905 -0.0343  0.3069
  716TIP3    H123563   3.968   5.777   2.651  1.1737 -0.6460  0.8124
  716TIP3    H223564   3.893   5.645   2.653  0.2592 -0.1428  0.4970
  717TIP3   OH223565   0.923   4.751  12.123 -0.5292 -0.2152 -0.3018
  717TIP3    H123566   1.005   4.728  12.167 -0.2963  2.3001  0.7849
  717TIP3    H223567   0.888   4.668  12.092  2.5342 -1.3728 -1.0265
  718TIP3   OH223568   4.227   1.739   2.779 -0.0144 -0.4891 -0.2076
  718TIP3    H123569   4.160   1.674   2.762  0.3339 -0.2989 -2.7980
  718TIP3    H223570   4.256   1.767   2.692  1.2108  1.7158  0.8068
  719TIP3   OH223571   5.667   1.849   2.314 -0.3350  0.4413  0.1550
  719TIP3    H123572   5.652   1.888   2.401  0.0621 -1.4563  1.1295
  719TIP3    H223573   5.762   1.838   2.310 -0.4879 -1.0472  0.2263
  720TIP3   OH223574   2.381   2.906  13.814 -0.2681 -0.2821 -0.1488
  720TIP3    H123575   2.398   2.848  13.740 -0.8498 -1.1114  0.3506
  720TIP3    H223576   2.404   2.854  13.891  1.1367  0.8535  0.2393
  721TIP3   OH223577   6.620   5.492   5.767  0.0674  0.1726  0.1726
  721TIP3    H123578   6.641   5.440   5.844  1.7369  0.4324 -0.0787
  721TIP3    H223579   6.543   5.543   5.793 -1.0431 -1.7146  0.7126
  722TIP3   OH223580   1.059   1.744  16.807  0.3806  0.3510 -0.2463
  722TIP3    H123581   0.991   1.677  16.813 -1.4691  2.2639  2.4345
  722TIP3    H223582   1.021   1.813  16.754  0.6487  0.9734  0.3589
  723TIP3   OH223583   3.887   5.235   0.624 -0.0972 -0.6027 -0.1639
  723TIP3    H123584   3.834   5.163   0.591 -0.2008 -0.0991 -1.1298
  723TIP3    H223585   3.846   5.314   0.587  1.5778 -0.2270 -1.3364
  724TIP3   OH223586   3.374   1.226   1.916  0.1363  0.4470  0.5661
  724TIP3    H123587   3.426   1.201   1.840  0.6212  1.0950  0.6784
  724TIP3    H223588   3.319   1.150   1.933 -0.5298  0.5818 -0.8937
  725TIP3   OH223589   0.853   4.607   2.066 -0.3780 -0.6298 -0.4416
  725TIP3    H123590   0.791   4.666   2.110  0.3828  0.1442 -0.3811
  725TIP3    H223591   0.871   4.539   2.131  2.0314  1.3973  1.1746
  726TIP3   OH223592   2.897   4.525  15.083  0.5449  0.0495  0.0391
  726TIP3    H123593   2.871   4.611  15.049  1.0292  0.2818  0.2422
  726TIP3    H223594   2.910   4.471  15.005  0.5848  0.2611 -0.1030
  727TIP3   OH223595   6.123   6.761  10.867  0.2286 -0.5977 -0.0966
  727TIP3    H123596   6.054   6.802  10.814 -1.2783 -3.2868 -0.3780
  727TIP3    H223597   6.114   6.801  10.954  1.5422  2.5333 -1.2537
  728TIP3   OH223598   3.307   5.137  13.200 -0.1911 -0.0928  0.2671
  728TIP3    H123599   3.402   5.137  13.210 -0.2232 -1.8677  0.9714
  728TIP3    H223600   3.274   5.167  13.285 -0.2788  0.8508 -0.0868
  729TIP3   OH223601   2.118   5.242  13.571  0.2526  0.9029 -0.7075
  729TIP3    H123602   2.143   5.268  13.660 -1.7284 -1.8147  0.8383
  729TIP3    H223603   2.178   5.171  13.549  2.0103  2.8298 -2.4796
  730TIP3   OH223604   2.316   5.046  13.559 -0.3355 -0.2733  1.1682
  730TIP3    H123605   2.383   5.114  13.552 -0.7987  0.0450 -0.6698
  730TIP3    H223606   2.364   4.969  13.587  0.5496  0.3175  1.3363
  731TIP3   OH223607   5.729   1.523  11.577 -0.2500  0.0064  0.0588
  731TIP3    H123608   5.747   1.608  11.617  2.8871  0.0981 -1.2424
  731TIP3    H223609   5.712   1.543  11.485 -1.0651 -0.6676  0.0553
  732TIP3   OH223610   3.275   6.274  12.660 -0.1445 -0.0769  0.0410
  732TIP3    H123611   3.336   6.287  12.733  0.1650 -2.6182  0.3096
  732TIP3    H223612   3.329   6.244  12.588 -0.9074 -1.3612 -0.0333
  733TIP3   OH223613   6.124   0.418  14.690  0.4495  0.5943 -0.4204
  733TIP3    H123614   6.128   0.458  14.603 -0.9251  0.2963 -0.6408
  733TIP3    H223615   6.031   0.403  14.705  0.7474 -0.2521  0.7030
  734TIP3   OH223616   5.212   4.333  14.977  0.0818 -0.6993  0.1246
  734TIP3    H123617   5.183   4.242  14.968  0.4030 -0.6959 -1.2120
  734TIP3    H223618   5.278   4.331  15.046 -1.0498 -1.1886  1.2423
  735TIP3   OH223619   2.282   0.006  15.893  0.1677  0.3464  0.3726
  735TIP3    H123620   2.247   0.006  15.982  0.5682  1.0734  0.5275
  735TIP3    H223621   2.242  -0.071  15.852 -2.3731  1.6251  0.2498
  736TIP3   OH223622   5.630   1.830   0.044  0.0426  0.3149  0.1365
  736TIP3    H123623   5.725   1.822   0.048  0.1593  1.2776 -0.4711
  736TIP3    H223624   5.598   1.740   0.056  1.0839 -0.3520 -1.6856
  737TIP3   OH223625   5.185   1.311   1.407 -0.2041 -0.2548 -0.1321
  737TIP3    H123626   5.257   1.350   1.457  0.6500 -1.3723 -0.4484
  737TIP3    H223627   5.128   1.273   1.473  0.4728 -0.9723  0.0586
  738TIP3   OH223628   5.923   4.250  12.650 -0.1490  0.0442 -0.5551
  738TIP3    H123629   5.903   4.341  12.627  1.8203  0.4486 -0.8521
  738TIP3    H223630   5.855   4.199  12.607 -0.6113  1.2969 -1.3725
  739TIP3   OH223631   5.787   6.612  16.650 -0.1690  0.0550  0.1876
  739TIP3    H123632   5.705   6.610  16.699 -0.0803  1.6323  0.4328
  739TIP3    H223633   5.810   6.704  16.644  2.7207 -0.4421  1.9868
  740TIP3   OH223634   1.649   6.330  11.955  0.6351 -0.2908 -0.3422
  740TIP3    H123635   1.584   6.365  11.894 -0.6639  0.5753  1.4476
  740TIP3    H223636   1.669   6.403  12.014  1.4172 -1.2523  0.6312
  741TIP3   OH223637   5.688   2.671   0.078 -0.3840  0.7561 -0.3133
  741TIP3    H123638   5.660   2.673   0.169 -0.3051 -0.2934 -0.2636
  741TIP3    H223639   5.722   2.760   0.062  0.5570  0.6619  0.9855
  742TIP3   OH223640   3.791   1.853  15.871 -0.0607 -0.1763 -0.0491
  742TIP3    H123641   3.746   1.889  15.948  1.5798  1.5549  0.1615
  742TIP3    H223642   3.742   1.887  15.796  0.2866  0.8890  0.1928
  743TIP3   OH223643   2.858   5.094   0.385  0.3388  0.1787  0.3228
  743TIP3    H123644   2.920   5.080   0.457  0.1736  0.5133  0.5282
  743TIP3    H223645   2.773   5.069   0.421  0.3529 -0.3333  0.0222
  744TIP3   OH223646   3.347   5.977   1.907  0.1651  0.5398  0.1251
  744TIP3    H123647   3.278   5.975   1.841  0.2146  1.4613  0.0376
  744TIP3    H223648   3.302   6.004   1.987  0.2171  0.0097  0.3375
  745TIP3   OH223649   3.824   1.214  11.753 -0.0771  0.2326  0.3773
  745TIP3    H123650   3.877   1.277  11.802 -0.4275  1.3060 -0.5819
  745TIP3    H223651   3.881   1.137  11.743  1.1332  1.1679 -0.1923
  746TIP3   OH223652   3.822   5.854  15.743  0.1683  0.6115  0.1060
  746TIP3    H123653   3.827   5.773  15.794 -0.9342  0.5555  0.1432
  746TIP3    H223654   3.742   5.897  15.774  0.4026  1.4057 -0.3702
  747TIP3   OH223655   1.159   1.494  13.606  0.1591 -0.0156 -0.2548
  747TIP3    H123656   1.133   1.519  13.695  2.4628  1.3606  0.1154
  747TIP3    H223657   1.106   1.417  13.587 -0.2006 -0.5518  2.4396
  748TIP3   OH223658   5.481   1.249   2.583  0.2894 -0.5665  0.1446
  748TIP3    H123659   5.405   1.285   2.629  1.0227  0.1677  0.8120
  748TIP3    H223660   5.462   1.264   2.491  0.4162  1.3162  0.3721
  749TIP3   OH223661   1.318   3.460   1.106  0.5719 -0.5058  0.6618
  749TIP3    H123662   1.263   3.392   1.146  0.7483 -0.2913  1.2840
  749TIP3    H223663   1.402   3.452   1.152  1.0337 -0.7599 -0.2004
  750TIP3   OH223664   1.988   4.938  14.506 -0.2678  0.2196  0.3342
  750TIP3    H123665   2.023   5.027  14.503  0.4912 -0.0192  1.4880
  750TIP3    H223666   2.032   4.898  14.581 -0.6344 -1.1172 -0.1477
  751TIP3   OH223667   0.956   1.100   4.081 -0.5624 -0.0661 -0.2276
  751TIP3    H123668   0.985   1.118   3.991  0.2574  2.4425  0.4490
  751TIP3    H223669   0.907   1.178   4.106  0.1614 -0.2114  1.8561
  752TIP3   OH223670   2.625   1.045   5.831  0.5614 -0.0821 -0.8462
  752TIP3    H123671   2.652   1.096   5.908  0.6930  0.5272 -1.2960
  752TIP3    H223672   2.598   0.961   5.868  0.9427  0.0816 -0.1601
  753TIP3   OH223673   1.105   4.933  15.055 -0.3802 -0.0834  0.1048
  753TIP3    H123674   1.033   4.870  15.062  0.7966 -1.3280  1.7563
  753TIP3    H223675   1.070   5.014  15.092 -1.3406 -0.2625 -0.3766
  754TIP3   OH223676   6.242   4.124  11.791 -0.8125 -0.0685 -0.4791
  754TIP3    H123677   6.255   4.214  11.764 -1.7159 -0.1136 -1.0897
  754TIP3    H223678   6.235   4.074  11.710  1.8953 -1.0716 -0.2032
  755TIP3   OH223679   4.225   1.359  15.052  0.0038  0.2143  0.1291
  755TIP3    H123680   4.144   1.320  15.085  0.5612 -0.5391  0.6432
  755TIP3    H223681   4.200   1.448  15.028 -1.0539 -0.1082 -0.0424
  756TIP3   OH223682   4.793   0.628   2.660  0.6493 -0.2345  0.1843
  756TIP3    H123683   4.709   0.615   2.617  0.7725 -0.3589 -0.0204
  756TIP3    H223684   4.799   0.556   2.723  1.4185 -1.3409 -1.0871
  757TIP3   OH223685   4.234   2.755   4.309 -0.9718  0.2252 -0.1685
  757TIP3    H123686   4.279   2.693   4.366 -0.6844 -0.3635 -1.0225
  757TIP3    H223687   4.291   2.765   4.233 -0.5469  2.2850  0.3674
  758TIP3   OH223688   3.270   3.040   0.146  0.2289  0.2178  0.5153
  758TIP3    H123689   3.188   2.992   0.152  0.4283 -0.3156 -0.6618
  758TIP3    H223690   3.278   3.086   0.230 -0.9767 -0.1752  0.8623
  759TIP3   OH223691   0.734   5.423   2.949  0.2708  0.3090  0.6173
  759TIP3    H123692   0.765   5.485   2.882 -0.3338 -0.2404 -0.2041
  759TIP3    H223693   0.789   5.345   2.937  0.8779  0.5870  1.4958
  760TIP3   OH223694   2.946   1.896  10.788 -0.2549 -0.1448 -0.1941
  760TIP3    H123695   2.974   1.815  10.831 -1.8301 -1.2854 -1.1973
  760TIP3    H223696   3.000   1.901  10.709 -2.5654 -2.2458 -2.0369
  761TIP3   OH223697   2.780   6.492   4.368  0.0472  0.6031 -0.0551
  761TIP3    H123698   2.777   6.491   4.463  2.0578 -0.0970  0.0619
  761TIP3    H223699   2.716   6.559   4.342 -0.5005  0.8418  1.7637
  762TIP3   OH223700   1.339   0.305   3.040 -0.1940 -0.6152  0.1222
  762TIP3    H123701   1.343   0.389   2.993 -1.2651 -0.8062 -0.3501
  762TIP3    H223702   1.335   0.239   2.970 -0.6453 -0.9787  0.4880
  763TIP3   OH223703   3.533   0.824   5.720 -0.2514 -0.7139  0.3758
  763TIP3    H123704   3.475   0.898   5.705 -0.0469 -0.7993 -0.9972
  763TIP3    H223705   3.533   0.811   5.815 -0.7413  0.6632  0.5766
  764TIP3   OH223706   1.374   4.248  14.440  0.0264  0.0066 -0.2479
  764TIP3    H123707   1.438   4.182  14.466 -0.7575 -0.6356  0.0885
  764TIP3    H223708   1.303   4.198  14.400  0.4727  0.8379 -2.1799
  765TIP3   OH223709   5.200   2.135  11.595 -0.5988 -0.3495  0.1953
  765TIP3    H123710   5.263   2.133  11.523  1.0052 -0.3429  1.5417
  765TIP3    H223711   5.190   2.043  11.620  0.8254 -0.1801  1.5569
  766TIP3   OH223712   2.274   0.029   0.710 -0.6072 -0.0053  0.0272
  766TIP3    H123713   2.231   0.015   0.626 -1.6600  2.8691 -0.0342
  766TIP3    H223714   2.361   0.062   0.688  0.7956 -3.1882  0.1738
  767TIP3   OH223715   1.424   2.219   3.035 -0.2107 -0.5263 -0.3115
  767TIP3    H123716   1.507   2.266   3.028 -1.5541  1.7859 -1.5585
  767TIP3    H223717   1.414   2.175   2.951 -0.2041 -0.9282 -0.1058
  768TIP3   OH223718   1.268   5.641  15.582 -0.4635  0.0333  0.2237
  768TIP3    H123719   1.308   5.576  15.639 -0.1045  0.4375  0.4405
  768TIP3    H223720   1.174   5.632  15.598 -0.3888 -0.1471  0.5666
  769TIP3   OH223721   4.225   4.876  12.559 -0.3715  0.5045 -0.6266
  769TIP3    H123722   4.251   4.799  12.609  0.8079  1.3389  0.1144
  769TIP3    H223723   4.135   4.859  12.532 -0.6054 -0.5263  0.7082
  770TIP3   OH223724   0.279   5.848   3.024  0.3025  0.2087 -0.3360
  770TIP3    H123725   0.366   5.888   3.020  1.0104 -1.1513  0.5636
  770TIP3    H223726   0.228   5.907   3.080  0.9174  0.5731 -0.1481
  771TIP3   OH223727   6.022   0.741   3.815  0.0302  0.1399  0.0649
  771TIP3    H123728   5.992   0.828   3.791  1.1021  0.3044 -0.7709
  771TIP3    H223729   6.088   0.755   3.883  0.4683  0.0235 -0.3264
  772TIP3   OH223730   1.306   0.280   2.378 -0.5354  0.5946  0.3355
  772TIP3    H123731   1.318   0.185   2.388 -0.0460  0.7476  1.2696
  772TIP3    H223732   1.276   0.290   2.287  2.9097 -0.1730 -1.0696
  773TIP3   OH223733   1.830   2.422   1.259  0.4953 -0.6106 -0.4529
  773TIP3    H123734   1.828   2.475   1.179  1.8973 -0.9673 -0.7527
  773TIP3    H223735   1.855   2.484   1.328  0.4656 -0.5366 -0.5090
  774TIP3   OH223736   2.549   2.218   2.404 -0.1141  0.2704 -0.8554
  774TIP3    H123737   2.630   2.208   2.454  0.1325  0.7938 -1.1470
  774TIP3    H223738   2.523   2.128   2.383 -0.3894  0.0155  0.4617
  775TIP3   OH223739   6.283   4.367  11.643  0.1444  0.7788  0.2494
  775TIP3    H123740   6.339   4.347  11.568 -1.4799 -2.3255 -0.3040
  775TIP3    H223741   6.202   4.399  11.604 -1.1132 -1.8758  0.4505
  776TIP3   OH223742   5.943   0.678  14.480 -0.2905  0.0331 -0.3989
  776TIP3    H123743   5.902   0.722  14.405 -0.4137 -0.1471 -0.4369
  776TIP3    H223744   6.036   0.675  14.457 -0.3463 -0.1443 -0.6065
  777TIP3   OH223745   0.175   3.488  13.132  0.2179  0.0785  0.1641
  777TIP3    H123746   0.230   3.467  13.208  1.5797  0.6882 -0.6335
  777TIP3    H223747   0.099   3.431  13.142 -0.4160  1.2540  2.8454
  778TIP3   OH223748   1.685   4.459   4.715  0.0839  0.5036  0.1507
  778TIP3    H123749   1.692   4.400   4.791  0.8210 -1.6461 -1.4717
  778TIP3    H223750   1.728   4.540   4.743  0.5580 -0.3121  1.9319
  779TIP3   OH223751   3.595   6.380  15.063 -0.5086 -1.0924 -0.4702
  779TIP3    H123752   3.670   6.404  15.116  0.3469 -0.3493 -1.9517
  779TIP3    H223753   3.613   6.417  14.977 -1.3408 -3.1198 -1.6054
  780TIP3   OH223754   3.698   2.077   5.242  0.2519 -0.0401  0.6455
  780TIP3    H123755   3.660   2.060   5.328 -1.0841 -1.2022 -0.1199
  780TIP3    H223756   3.766   2.143   5.258 -1.0812  1.0091  2.3126
  781TIP3   OH223757   5.806   1.055   3.576  0.2034  0.0765 -0.3363
  781TIP3    H123758   5.837   1.118   3.511  2.0324  0.8645  1.2066
  781TIP3    H223759   5.882   1.036   3.630 -1.2920 -0.2387  1.8318
  782TIP3   OH223760   6.018   1.594   4.906  0.1763 -0.2309  0.2209
  782TIP3    H123761   5.995   1.569   4.816  1.1627  1.9036 -0.6903
  782TIP3    H223762   5.937   1.580   4.956 -0.9327  0.1616 -1.3781
  783TIP3   OH223763   5.137   1.005  15.950  0.2553  0.0675  0.0182
  783TIP3    H123764   5.207   1.070  15.956  1.2832 -1.0143  0.2266
  783TIP3    H223765   5.148   0.950  16.028 -2.1191  1.0732  1.1575
  784TIP3   OH223766   2.337   6.519  14.172 -0.3671  0.3387  0.3838
  784TIP3    H123767   2.310   6.611  14.179 -2.7301 -0.2671  0.1639
  784TIP3    H223768   2.255   6.470  14.181  0.6540 -1.6948 -0.7978
  785TIP3   OH223769   5.004   2.745   2.961 -0.0957 -0.4758  0.0131
  785TIP3    H123770   4.960   2.677   3.011 -1.0787  0.8396  1.0203
  785TIP3    H223771   5.082   2.703   2.926  0.1347 -1.7058  1.8907
  786TIP3   OH223772   5.701   6.082   6.112  0.1521  0.4943  0.1264
  786TIP3    H123773   5.659   6.000   6.139  0.0574  0.2454 -0.7382
  786TIP3    H223774   5.635   6.125   6.058  1.5269 -0.7011 -2.7251
  787TIP3   OH223775   5.452   5.418   4.056  0.6742  0.1738 -0.0991
  787TIP3    H123776   5.518   5.349   4.069  1.3562  0.8446  0.0400
  787TIP3    H223777   5.483   5.491   4.109  0.9070  1.2296 -1.6303
  788TIP3   OH223778   3.827   1.988  14.593  0.1975 -0.1464 -0.2706
  788TIP3    H123779   3.822   2.047  14.668 -1.9178 -1.4869  0.7435
  788TIP3    H223780   3.918   1.994  14.564  1.7235 -1.1185  3.6918
  789TIP3   OH223781   1.248   3.921   2.828 -0.0685  0.3152 -0.2923
  789TIP3    H123782   1.278   3.923   2.919  2.6557  2.6727 -1.0874
  789TIP3    H223783   1.245   3.828   2.806  0.0591 -0.2806  1.9286
  790TIP3   OH223784   1.948   1.337   1.355  0.5493 -0.5444  0.1465
  790TIP3    H123785   2.013   1.314   1.420 -0.4649  0.2011  1.4788
  790TIP3    H223786   1.967   1.428   1.333 -0.0421 -0.3101  0.5717
  791TIP3   OH223787   1.918   1.061   2.253 -0.1983 -0.4318 -0.4109
  791TIP3    H123788   1.903   1.044   2.346 -0.2801 -1.4602 -0.5932
  791TIP3    H223789   1.884   1.149   2.239  0.7939  0.1768  0.7512
  792TIP3   OH223790   5.752   5.240  16.165 -0.4717 -0.1318 -0.1232
  792TIP3    H123791   5.754   5.147  16.140 -0.1917 -0.3064  0.5350
  792TIP3    H223792   5.818   5.248  16.234  0.5656  0.8522 -1.1773
  793TIP3   OH223793   2.927   6.107   5.366 -0.9288 -0.0669  0.2944
  793TIP3    H123794   2.986   6.145   5.301 -2.1069  1.4817  0.0523
  793TIP3    H223795   2.877   6.041   5.319  0.3817 -1.2176  0.4440
  794TIP3   OH223796   4.865   3.505  13.321  0.2383  0.1672  0.4077
  794TIP3    H123797   4.844   3.549  13.239 -1.3996 -1.8428 -0.3411
  794TIP3    H223798   4.959   3.518  13.332  0.6956 -0.2691 -2.2829
  795TIP3   OH223799   5.676   5.723  12.983 -0.4365  0.2486  0.1619
  795TIP3    H123800   5.616   5.743  12.910  0.3605 -1.7744 -1.1477
  795TIP3    H223801   5.763   5.741  12.948 -0.0488 -0.6374  0.6237
  796TIP3   OH223802   5.414   6.332  12.448  0.0463 -0.4770 -0.2827
  796TIP3    H123803   5.338   6.373  12.407 -1.3564 -1.6107  1.0552
  796TIP3    H223804   5.483   6.336  12.381 -0.1633  3.3163 -0.4799
  797TIP3   OH223805   1.609   4.843   4.657  0.4746  0.7536  0.5950
  797TIP3    H123806   1.696   4.809   4.638 -0.9077 -2.2623 -1.1353
  797TIP3    H223807   1.610   4.863   4.751  2.2675 -1.8512  1.2387
  798TIP3   OH223808   6.087   6.229  15.822  0.1088  0.4327  0.1424
  798TIP3    H123809   6.107   6.207  15.731  1.9052  0.4789  0.4792
  798TIP3    H223810   6.157   6.289  15.848 -1.1449  1.5239  1.1556
  799TIP3   OH223811   3.731   5.533   1.692  0.1394 -0.2838 -0.1076
  799TIP3    H123812   3.666   5.480   1.739  1.9705 -0.6846  2.2218
  799TIP3    H223813   3.722   5.621   1.729  1.2219 -0.4677  0.6501
  800TIP3   OH223814   2.751   2.176  11.332 -0.1268  0.0022  0.3011
  800TIP3    H123815   2.702   2.138  11.259  0.3324  0.4537 -0.2441
  800TIP3    H223816   2.800   2.102  11.369 -0.4209 -0.2421  0.2038
  801TIP3   OH223817   4.124   3.046  11.536  0.4177  0.1302  0.1786
  801TIP3    H123818   4.169   2.965  11.560  1.1092  0.6986  0.8163
  801TIP3    H223819   4.184   3.116  11.561  0.2615  0.8222 -1.3033
  802TIP3   OH223820   6.069   3.974   3.741  0.2882  0.5010 -0.2213
  802TIP3    H123821   6.130   4.048   3.739  0.1230  0.6096 -1.6050
  802TIP3    H223822   6.105   3.911   3.678 -1.9758  1.3672 -2.5329
  803TIP3   OH223823   1.002   2.344   0.744  0.1450  0.1614  0.3433
  803TIP3    H123824   0.915   2.369   0.774  0.3894 -0.1847  1.3900
  803TIP3    H223825   0.995   2.341   0.648 -1.1243 -0.3487  0.4372
  804TIP3   OH223826   0.183   2.683  14.677 -0.1816  0.0557  0.3837
  804TIP3    H123827   0.149   2.598  14.649  2.1289 -0.6456 -0.5586
  804TIP3    H223828   0.166   2.742  14.603  0.8137 -0.3591 -0.1971
  805TIP3   OH223829   1.281   5.775  16.083 -0.5018  0.1075 -0.1566
  805TIP3    H123830   1.265   5.839  16.153 -0.0824 -1.4308  1.4284
  805TIP3    H223831   1.314   5.827  16.010 -1.9643  1.9211  0.3878
  806TIP3   OH223832   1.667   5.241  13.315 -1.0255  0.0788  0.0459
  806TIP3    H123833   1.665   5.279  13.402  0.1856 -0.9883  0.5674
  806TIP3    H223834   1.614   5.162  13.321 -1.6700  0.4575 -0.4405
  807TIP3   OH223835   1.115   4.152  14.391  0.4194 -0.1475 -0.0418
  807TIP3    H123836   1.096   4.193  14.475  3.3372 -1.6825  1.5345
  807TIP3    H223837   1.075   4.065  14.397  0.5389 -0.2180 -0.2669
  808TIP3   OH223838   5.503   3.661  15.632 -0.1614 -1.0723 -0.4046
  808TIP3    H123839   5.462   3.659  15.718  1.2606 -1.1131  0.2878
  808TIP3    H223840   5.576   3.723  15.641  1.1705 -2.4950 -1.0276
  809TIP3   OH223841   2.752   0.102   4.396  0.0421 -0.1583 -0.4607
  809TIP3    H123842   2.793   0.079   4.479  0.0486  0.3727 -0.3151
  809TIP3    H223843   2.665   0.063   4.400  0.5443 -1.3778 -0.8120
  810TIP3   OH223844   3.234   2.346   2.307  0.0189  0.2450 -0.1143
  810TIP3    H123845   3.232   2.295   2.388 -0.0350  1.2616  0.5400
  810TIP3    H223846   3.148   2.389   2.304  0.9504  2.2942  0.6758
  811TIP3   OH223847   1.617   5.934   3.072  0.2928 -0.2689 -0.0764
  811TIP3    H123848   1.681   5.863   3.069  2.0411  1.2503 -1.1715
  811TIP3    H223849   1.655   6.002   3.016 -1.5703  1.3148  0.4887
  812TIP3   OH223850   0.572   5.001   3.989 -0.3060  0.5100 -0.6101
  812TIP3    H123851   0.561   5.096   3.984 -0.0222  0.5810  0.0315
  812TIP3    H223852   0.598   4.975   3.901  2.3615  1.3863 -0.1574
  813TIP3   OH223853   0.308   4.852  13.542  0.1866  0.4839 -0.4499
  813TIP3    H123854   0.309   4.838  13.636  0.0608 -0.9862 -0.6406
  813TIP3    H223855   0.381   4.801  13.508 -1.3055 -1.1743 -1.3736
  814TIP3   OH223856   6.239   4.846  12.670 -0.3731  0.4027  0.6926
  814TIP3    H123857   6.220   4.754  12.654  0.8773 -0.3404  2.9887
  814TIP3    H223858   6.263   4.881  12.584  0.6740 -1.8101  0.0173
  815TIP3   OH223859   1.477   0.791  16.208 -0.2026 -0.0819  0.4850
  815TIP3    H123860   1.486   0.885  16.224 -1.6511 -0.0125  1.1193
  815TIP3    H223861   1.465   0.753  16.295 -2.0032 -0.5268  0.0878
  816TIP3   OH223862   1.581   0.677   1.032  0.1543 -0.1202  0.5153
  816TIP3    H123863   1.653   0.689   1.094  0.9147 -1.3142 -0.1032
  816TIP3    H223864   1.613   0.612   0.969 -1.4029 -0.5773  0.1350
  817TIP3   OH223865   3.840   2.351   2.405  0.2701 -0.2582  0.0450
  817TIP3    H123866   3.843   2.339   2.500 -0.6910 -1.8926 -0.0960
  817TIP3    H223867   3.752   2.323   2.380 -0.3947  2.4760 -1.0664
  818TIP3   OH223868   5.469   3.108  12.817  0.2899 -0.1155 -0.1016
  818TIP3    H123869   5.474   3.022  12.859  0.3189 -0.4780 -0.8156
  818TIP3    H223870   5.528   3.100  12.742  0.2111  0.4967 -0.2316
  819TIP3   OH223871   3.615   1.191  11.055  0.7385  0.0102  0.1482
  819TIP3    H123872   3.575   1.128  10.996  0.3492 -0.5378  0.9864
  819TIP3    H223873   3.643   1.140  11.131  0.8769  0.7641  0.6203
  820TIP3   OH223874   4.962   4.800   0.622 -0.4410  0.2208 -0.5811
  820TIP3    H123875   4.913   4.809   0.704 -0.5543  0.1048 -0.6345
  820TIP3    H223876   5.001   4.713   0.627 -1.3869 -0.2607 -1.1440
  821TIP3   OH223877   4.588   4.968  16.117 -0.0336 -0.1982 -1.0742
  821TIP3    H123878   4.653   5.038  16.109  2.3861 -2.3405 -1.5671
  821TIP3    H223879   4.554   4.956  16.028 -0.7815  0.5808 -0.9102
  822TIP3   OH223880   2.306   3.837   2.617 -0.4658 -0.1535  0.1075
  822TIP3    H123881   2.281   3.781   2.691 -1.3626  0.2797  0.1470
  822TIP3    H223882   2.315   3.925   2.656 -1.5830  0.2038 -0.3938
  823TIP3   OH223883   6.585   5.011   4.161  0.0232 -0.1506 -0.2106
  823TIP3    H123884   6.543   4.981   4.080 -1.2485 -0.1113  0.4094
  823TIP3    H223885   6.517   5.004   4.228  0.5954  1.2322  0.5646
  824TIP3   OH223886   3.742   4.418  12.898  0.0841  0.0341 -0.0277
  824TIP3    H123887   3.836   4.439  12.901  0.1404 -0.2718  0.5390
  824TIP3    H223888   3.729   4.379  12.812  0.0866  1.8403 -0.8897
  825TIP3   OH223889   2.485   1.841  16.058 -0.0594 -0.1746  0.4892
  825TIP3    H123890   2.494   1.898  15.981  0.3314 -0.4428  0.3309
  825TIP3    H223891   2.391   1.829  16.068 -0.1095 -2.1338 -1.4396
  826TIP3   OH223892   2.733   1.809  15.579  0.2154 -0.5842  0.4191
  826TIP3    H123893   2.732   1.892  15.627  0.1155  0.0405 -0.6225
  826TIP3    H223894   2.825   1.790  15.565  0.2632 -1.0466  1.3028
  827TIP3   OH223895   3.320   0.620  14.614  0.3459 -0.0020  0.2084
  827TIP3    H123896   3.385   0.557  14.585  0.0276 -0.9317  1.4259
  827TIP3    H223897   3.236   0.583  14.584  0.1294 -0.3451  1.1993
  828TIP3   OH223898   6.721   0.489   5.195 -0.2759 -0.1986  0.1780
  828TIP3    H123899   6.779   0.415   5.212  1.2656  0.6940 -0.9479
  828TIP3    H223900   6.635   0.449   5.185  0.6869 -2.0644 -1.7065
  829TIP3   OH223901   1.972   4.379  14.744  0.4123  0.2422 -0.1342
  829TIP3    H123902   2.049   4.333  14.712  1.6435  1.1772  1.3522
  829TIP3    H223903   2.004   4.465  14.770 -1.4892  1.3229 -1.1583
  830TIP3   OH223904   1.642   0.413   5.372  0.2239  0.2485  0.4851
  830TIP3    H123905   1.702   0.365   5.430 -0.6036 -1.5606 -0.0715
  830TIP3    H223906   1.631   0.355   5.297  1.2210  2.5080 -1.5183
  831TIP3   OH223907   0.108   4.636   6.044 -0.6607 -0.3788  0.0537
  831TIP3    H123908   0.154   4.577   6.103  0.8543  2.8865  2.4128
  831TIP3    H223909   0.080   4.709   6.099  0.2601  2.6185 -3.0715
  832TIP3   OH223910   5.744   0.387  12.443  0.2908  0.4606  0.1453
  832TIP3    H123911   5.667   0.371  12.389 -0.2014 -0.0322  0.9779
  832TIP3    H223912   5.757   0.482  12.439 -0.3221  0.5399 -0.0455
  833TIP3   OH223913   5.289   1.817  16.275 -0.5776  0.4159 -0.4731
  833TIP3    H123914   5.253   1.729  16.264 -0.5293  0.2280  0.7459
  833TIP3    H223915   5.214   1.871  16.303 -0.1113  0.1576  1.4476
  834TIP3   OH223916   1.596   0.534  16.198 -0.2331  0.5308  0.3360
  834TIP3    H123917   1.637   0.559  16.115  2.7509 -0.7253  1.2941
  834TIP3    H223918   1.539   0.607  16.220 -0.5431  1.2278 -2.4202
  835TIP3   OH223919   0.393   5.959  15.163  0.5151  0.2680 -0.0851
  835TIP3    H123920   0.324   5.896  15.142  1.3194 -0.5356 -0.4011
  835TIP3    H223921   0.357   6.012  15.233 -0.0971 -0.7245  0.3713
  836TIP3   OH223922   2.719   0.944   3.242 -0.6827 -0.0663 -0.0706
  836TIP3    H123923   2.635   0.964   3.284  0.1688  2.1048  0.7381
  836TIP3    H223924   2.784   0.988   3.297  0.9490 -1.1214 -1.0641
  837TIP3   OH223925   1.980   1.714  13.374 -0.2534  0.3652 -0.4468
  837TIP3    H123926   2.053   1.727  13.312  0.0361  0.9681  0.0080
  837TIP3    H223927   1.981   1.621  13.393  2.0042  0.7041  1.4631
  838TIP3   OH223928   0.127   5.047  13.669  0.0313  0.8307  0.1642
  838TIP3    H123929   0.047   4.999  13.692 -1.0922  2.4682 -0.1239
  838TIP3    H223930   0.176   4.987  13.614 -0.4360 -0.6508  1.2977
  839TIP3   OH223931   0.258   1.348  13.733 -0.2539 -0.1879 -0.3309
  839TIP3    H123932   0.238   1.360  13.826  2.1228 -0.0077  0.2124
  839TIP3    H223933   0.184   1.389  13.688 -0.0786  2.3967  1.4956
  840TIP3   OH223934   1.181   2.086  13.901  0.3269  0.1716  0.4833
  840TIP3    H123935   1.247   2.124  13.960 -2.5683  0.5410  3.7942
  840TIP3    H223936   1.120   2.158  13.883  0.1913 -0.4055 -1.7179
  841TIP3   OH223937   6.463   4.476   3.305 -0.2471  0.0237 -0.2290
  841TIP3    H123938   6.428   4.564   3.318 -0.4221  0.4088 -2.8857
  841TIP3    H223939   6.553   4.481   3.337 -0.5761  0.8374  0.6205
  842TIP3   OH223940   6.036   3.166  11.805  0.6427 -0.2487 -0.1800
  842TIP3    H123941   6.036   3.107  11.880  0.7840 -0.1725 -0.1192
  842TIP3    H223942   5.945   3.193  11.796  0.9447  1.5043  1.3658
  843TIP3   OH223943   4.613   3.388  13.379 -0.1973  0.4255  0.1977
  843TIP3    H123944   4.600   3.340  13.298  0.7845 -0.1594  0.3653
  843TIP3    H223945   4.700   3.428  13.369 -0.0202  0.2587  0.9934
  844TIP3   OH223946   5.656   1.370   3.648  1.0280  0.0453  0.0068
  844TIP3    H123947   5.601   1.292   3.639 -1.0414  1.4183  0.2626
  844TIP3    H223948   5.654   1.391   3.741 -0.2099  1.6016 -0.3375
  845TIP3   OH223949   4.628   1.820   4.438  0.1252  0.6846 -0.9073
  845TIP3    H123950   4.534   1.842   4.440 -0.1852 -0.6395  0.4059
  845TIP3    H223951   4.631   1.731   4.404  0.8474  0.4055 -0.1282
  846TIP3   OH223952   3.490   1.327   0.849 -0.3636 -0.0100 -0.0747
  846TIP3    H123953   3.506   1.326   0.755 -1.3304 -1.8086 -0.2537
  846TIP3    H223954   3.448   1.412   0.865 -1.3217 -0.1896 -1.4664
  847TIP3   OH223955   2.204   5.391  13.326  0.2424  0.3508  0.0527
  847TIP3    H123956   2.252   5.450  13.384  3.7058 -3.3983  1.4564
  847TIP3    H223957   2.163   5.328  13.386 -2.6141  0.6698 -1.4019
  848TIP3   OH223958   0.337   0.528  14.947  0.5309  0.0346 -0.0108
  848TIP3    H123959   0.292   0.550  15.028  0.2912  1.0594 -0.4186
  848TIP3    H223960   0.430   0.547  14.965  0.4149  0.7231 -0.1352
  849TIP3   OH223961   6.012   6.119   5.489  0.0442  0.1647  0.1616
  849TIP3    H123962   6.044   6.032   5.464  0.3307  0.1095  0.7228
  849TIP3    H223963   6.090   6.174   5.489 -0.3083  0.7082 -1.3769
  850TIP3   OH223964   4.809   4.900   5.046  0.0949 -0.0972  0.4138
  850TIP3    H123965   4.764   4.921   5.128  2.4388  2.4069  1.2256
  850TIP3    H223966   4.801   4.980   4.994  2.4419 -0.0014  0.1113
  851TIP3   OH223967   0.264   2.775  11.867 -0.4085  0.5843  0.1650
  851TIP3    H123968   0.231   2.692  11.833 -1.2090 -0.9635  4.1352
  851TIP3    H223969   0.211   2.842  11.824 -1.8541 -1.1669 -0.9142
  852TIP3   OH223970   0.351   4.152  11.386 -0.5198 -0.0826  0.1246
  852TIP3    H123971   0.338   4.079  11.325 -2.0932  0.9797 -0.8767
  852TIP3    H223972   0.372   4.227  11.330  1.0627  0.2730  1.1412
  853TIP3   OH223973   0.324   1.622   5.381 -0.9226 -0.0979  0.4179
  853TIP3    H123974   0.414   1.618   5.412 -0.2912 -0.1055 -1.3163
  853TIP3    H223975   0.315   1.546   5.323 -1.5637  0.6971 -0.5655
  854TIP3   OH223976   0.508   3.573   3.215 -0.2159  0.0495  0.0538
  854TIP3    H123977   0.428   3.619   3.190  0.2932  1.0442  0.2169
  854TIP3    H223978   0.529   3.519   3.138 -1.9959 -1.6129  0.6607
  855TIP3   OH223979   5.997   2.389  14.198  0.0929  0.0476  0.1404
  855TIP3    H123980   6.071   2.359  14.144 -1.1905 -3.3290  0.0234
  855TIP3    H223981   5.978   2.316  14.256 -1.3240  1.9676  2.2902
  856TIP3   OH223982   4.513   5.617   4.715 -0.2844  0.1998 -0.6334
  856TIP3    H123983   4.437   5.671   4.738 -1.3494 -2.1778  1.9035
  856TIP3    H223984   4.495   5.588   4.626 -2.2902 -0.1311 -0.1647
  857TIP3   OH223985   4.362   0.354  15.366  0.1894 -0.7762 -0.0672
  857TIP3    H123986   4.294   0.388  15.307 -0.9600 -2.2517  0.3562
  857TIP3    H223987   4.315   0.297  15.426  1.6205 -0.7374  1.1410
  858TIP3   OH223988   0.268   5.375  13.210 -0.3013  0.9100  0.1431
  858TIP3    H123989   0.343   5.324  13.179 -1.5752 -1.4663  0.6837
  858TIP3    H223990   0.203   5.368  13.140 -1.1058  0.3183  0.9123
  859TIP3   OH223991   0.084   2.849   4.025  0.2701 -0.3085 -0.1694
  859TIP3    H123992   0.033   2.885   4.098  0.2058  0.3298 -0.5175
  859TIP3    H223993   0.137   2.780   4.065  1.4954  1.1438  0.8478
  860TIP3   OH223994   1.004   5.766  14.857  0.8530  0.0594 -0.2199
  860TIP3    H123995   0.926   5.741  14.906  1.2297 -1.7310 -0.4582
  860TIP3    H223996   1.070   5.702  14.882  1.4031 -0.2044 -2.1694
  861TIP3   OH223997   2.198   4.636  17.031  0.2489 -0.1509  0.2235
  861TIP3    H123998   2.243   4.709  16.989 -1.8129  0.7302 -0.5698
  861TIP3    H223999   2.227   4.558  16.983 -1.3067  0.7226 -2.3014
  862TIP3   OH224000   5.825   0.038  17.149 -0.2072  0.2377 -0.2903
  862TIP3    H124001   5.820   0.114  17.207  0.5896  0.7770 -0.9132
  862TIP3    H224002   5.885  -0.022  17.195  2.6446  1.7745 -1.7053
  863TIP3   OH224003   1.246   2.804  15.572 -0.3397 -0.5120 -1.1102
  863TIP3    H124004   1.192   2.781  15.497 -1.5811 -0.3079 -0.3057
  863TIP3    H224005   1.184   2.828  15.640  0.5688 -3.0094  0.7922
  864TIP3   OH224006   0.058   1.804  15.862  0.2078 -0.1308 -0.8346
  864TIP3    H124007   0.005   1.790  15.783 -1.1158 -0.2894  0.0430
  864TIP3    H224008   0.003   1.860  15.917  0.6607 -0.8783  0.4010
  865TIP3   OH224009   3.415   1.182  14.447  0.0921 -0.1518 -0.3059
  865TIP3    H124010   3.334   1.164  14.401  0.4621  0.2433 -1.1233
  865TIP3    H224011   3.394   1.167  14.539 -0.4661 -1.6547 -0.6507
  866TIP3   OH224012   0.598   6.151  11.528  0.8732  0.2018  0.4662
  866TIP3    H124013   0.522   6.130  11.474  1.4171 -1.3759  0.2647
  866TIP3    H224014   0.561   6.191  11.607 -0.1772 -0.5307  0.3663
  867TIP3   OH224015   2.058   0.012  16.740  0.6615 -0.3482  0.4712
  867TIP3    H124016   1.978   0.035  16.786  1.1914  1.7697  0.4375
  867TIP3    H224017   2.076   0.087  16.683  0.8917 -2.1909 -2.0603
  868TIP3   OH224018   0.519   6.393  10.538  0.2083  0.3751 -0.3117
  868TIP3    H124019   0.538   6.306  10.504  0.0973 -0.2164  1.0644
  868TIP3    H224020   0.426   6.392  10.558  0.5885  0.0031  1.7597
  869TIP3   OH224021   6.068   0.602  11.359 -0.0649 -0.4644  0.1919
  869TIP3    H124022   6.145   0.653  11.384 -0.1775  0.3241 -1.0056
  869TIP3    H224023   6.098   0.511  11.363  1.1879 -0.1406 -1.0542
  870TIP3   OH224024   0.406   1.030  11.569  0.0780 -0.0616 -0.3562
  870TIP3    H124025   0.342   1.069  11.508 -0.0185 -0.4032 -0.4765
  870TIP3    H224026   0.441   0.955  11.521 -0.1496 -0.4563  0.0951
  871TIP3   OH224027   0.428   0.158  10.934  0.1258 -0.3061  0.2033
  871TIP3    H124028   0.446   0.198  10.849 -1.4476  0.7471  0.3133
  871TIP3    H224029   0.501   0.185  10.990  0.5824 -0.0462 -0.5056
  872TIP3   OH224030   2.608   4.321   4.491  0.0026  0.4437 -0.1385
  872TIP3    H124031   2.673   4.320   4.421 -0.1923 -0.0463 -0.3098
  872TIP3    H224032   2.560   4.403   4.478  1.8511  1.8225  1.1627
  873TIP3   OH224033   3.502   6.096  12.011  0.1485 -0.0147 -0.4542
  873TIP3    H124034   3.575   6.077  12.070  1.6436 -0.0047 -2.2116
  873TIP3    H224035   3.483   6.189  12.027  1.0019  0.1730 -0.4398
  874TIP3   OH224036   1.751   6.412  10.725 -0.1728 -0.5433 -0.0834
  874TIP3    H124037   1.772   6.333  10.776  1.2225 -0.2293 -0.1323
  874TIP3    H224038   1.660   6.430  10.747  0.2793 -0.5770  2.1340
  875TIP3   OH224039   1.553   4.196  14.094 -0.5160  0.2586  0.0483
  875TIP3    H124040   1.614   4.250  14.144  1.0881  0.3338 -1.8630
  875TIP3    H224041   1.588   4.108  14.101 -0.6878  0.1574 -0.3578
  876TIP3   OH224042   4.634   5.043   3.493 -0.8204  0.1440 -0.0534
  876TIP3    H124043   4.612   5.119   3.439 -0.4149  0.8106  0.7173
  876TIP3    H224044   4.649   4.973   3.429 -1.5840  0.5921 -0.7554
  877TIP3   OH224045   2.834   1.197  15.360 -0.4208  0.3838 -0.2114
  877TIP3    H124046   2.813   1.136  15.430 -2.5004 -1.7951 -2.5285
  877TIP3    H224047   2.927   1.183  15.342  0.1084  0.8506  1.8459
  878TIP3   OH224048   5.642   0.569   2.528 -0.1777  0.4031  0.7569
  878TIP3    H124049   5.609   0.484   2.497 -1.7562  0.1179  2.9829
  878TIP3    H224050   5.714   0.589   2.469  0.7365 -2.8388  0.5808
  879TIP3   OH224051   3.430   4.480   5.455  0.3678  0.0848 -0.5436
  879TIP3    H124052   3.422   4.480   5.550 -3.7807 -1.3295 -0.6962
  879TIP3    H224053   3.349   4.520   5.424  0.5090 -1.6371 -3.4639
  880TIP3   OH224054   2.491   6.100  13.085  0.2102 -0.3497  0.0332
  880TIP3    H124055   2.578   6.129  13.110  0.2262 -0.5937  0.2653
  880TIP3    H224056   2.446   6.085  13.168 -0.0179 -0.3240 -0.0854
  881TIP3   OH224057   0.023   1.404  15.954 -0.0158  0.1080 -0.0431
  881TIP3    H124058  -0.040   1.332  15.952  1.5943 -1.3592 -0.3330
  881TIP3    H224059   0.031   1.432  15.863  0.0627  0.0143 -0.0648
  882TIP3   OH224060   3.857   2.170   5.879 -0.6171  0.2266  0.5706
  882TIP3    H124061   3.882   2.149   5.789  1.8070  1.0869  0.9683
  882TIP3    H224062   3.884   2.094   5.930  0.6604  0.8928  0.9210
  883TIP3   OH224063   1.662   0.021  11.668 -0.5320  0.1218 -0.8010
  883TIP3    H124064   1.730   0.013  11.735 -2.3959 -1.4373  1.0545
  883TIP3    H224065   1.605   0.091  11.700 -0.3883  0.7187 -1.8093
  884TIP3   OH224066   5.339   0.618   2.848  0.0246 -0.3430  0.5546
  884TIP3    H124067   5.337   0.633   2.942  2.1506 -0.0316  0.5975
  884TIP3    H224068   5.351   0.704   2.809  0.9826 -0.6498  0.1299
  885TIP3   OH224069   4.023   3.971  13.797  0.2601 -0.2758 -0.2821
  885TIP3    H124070   4.082   3.923  13.855  1.3291 -0.1180 -1.2238
  885TIP3    H224071   3.976   3.903  13.749  1.1801 -0.4020 -1.0220
  886TIP3   OH224072   5.246   2.957  13.356  0.6609 -0.4372  0.1100
  886TIP3    H124073   5.314   3.004  13.308  0.2514  0.6096  0.5278
  886TIP3    H224074   5.167   3.010  13.344  0.4731 -0.3280  1.6678
  887TIP3   OH224075   2.186   5.248  13.824  0.3031 -0.2454 -0.1127
  887TIP3    H124076   2.211   5.159  13.849 -0.3250  0.0700  1.8258
  887TIP3    H224077   2.266   5.299  13.836  0.5868 -0.4682 -0.9485
  888TIP3   OH224078   1.719   1.524  15.369 -0.5161 -0.0431  0.1227
  888TIP3    H124079   1.662   1.470  15.423 -2.1557 -0.4409 -1.9027
  888TIP3    H224080   1.754   1.464  15.303 -0.7664  0.9594 -0.9457
  889TIP3   OH224081   5.987   0.130  16.308  0.1342 -0.4058  0.8266
  889TIP3    H124082   5.964   0.037  16.305 -0.6157 -0.2232  0.7739
  889TIP3    H224083   6.057   0.135  16.373 -0.9136 -0.7993  2.0273
  890TIP3   OH224084   5.705   3.605  14.251 -0.0623  0.0200 -0.1856
  890TIP3    H124085   5.654   3.653  14.316 -0.3956  0.7139 -0.9327
  890TIP3    H224086   5.796   3.617  14.277 -0.1161  1.3821 -0.5531
  891TIP3   OH224087   4.736   6.504  11.262 -0.3186 -0.0646  0.1831
  891TIP3    H124088   4.764   6.563  11.193  0.2368  0.4742  0.8643
  891TIP3    H224089   4.641   6.497  11.250 -0.2048 -0.1625 -0.7665
  892TIP3   OH224090   0.759   0.552   3.629  0.0242 -0.0344  0.3762
  892TIP3    H124091   0.670   0.581   3.650  0.3094  0.3443  1.0911
  892TIP3    H224092   0.747   0.464   3.593 -0.6997  0.2881 -0.2150
  893TIP3   OH224093   1.624   6.141   3.852 -0.3966  0.6288 -0.1747
  893TIP3    H124094   1.627   6.048   3.872  0.2572  0.7335  0.2605
  893TIP3    H224095   1.588   6.146   3.763  1.7400 -0.1991 -1.1558
  894TIP3   OH224096   3.174   3.534  14.449  0.0031  0.1137 -0.5875
  894TIP3    H124097   3.117   3.527  14.371 -0.4493 -2.8517 -0.1162
  894TIP3    H224098   3.113   3.529  14.523  0.6842 -1.6833 -0.0873
  895TIP3   OH224099   0.606   0.308   1.203  0.1676  0.2127 -0.1882
  895TIP3    H124100   0.560   0.355   1.134  1.0213 -2.6519 -2.9189
  895TIP3    H224101   0.696   0.342   1.200  0.3533 -0.3440 -0.9136
  896TIP3   OH224102   4.992   0.621  12.818  0.5638 -0.1084 -0.5145
  896TIP3    H124103   4.967   0.546  12.871 -2.1546  1.5072  0.7056
  896TIP3    H224104   5.080   0.645  12.849  0.1399 -0.8274  1.3485
  897TIP3   OH224105   5.609   4.358  10.861  0.0045 -0.0560  0.0818
  897TIP3    H124106   5.626   4.434  10.804 -1.0921  0.4205  0.3657
  897TIP3    H224107   5.585   4.288  10.801  0.7185 -0.1058 -0.1610
  898TIP3   OH224108   6.702   4.637  14.851  0.6527 -0.0076  0.0378
  898TIP3    H124109   6.774   4.610  14.795  0.0537 -0.3808 -0.5685
  898TIP3    H224110   6.726   4.606  14.938  0.5224 -1.4960 -0.4286
  899TIP3   OH224111   1.463   1.795  12.274 -0.2933  0.1519 -0.2406
  899TIP3    H124112   1.459   1.849  12.195  0.2589  0.8027  0.1599
  899TIP3    H224113   1.553   1.762  12.275 -1.2097 -2.7856 -1.7468
  900TIP3   OH224114   2.599   5.980  12.307 -0.3055  0.2715 -0.2418
  900TIP3    H124115   2.657   5.971  12.231  1.6661  2.4046  0.8797
  900TIP3    H224116   2.657   6.004  12.379 -2.3475  0.2697  1.5093
  901TIP3   OH224117   5.330   4.388   5.124  0.2085  0.1536 -0.2353
  901TIP3    H124118   5.278   4.462   5.156  0.2157  0.7865 -1.5740
  901TIP3    H224119   5.412   4.394   5.172 -0.4297 -0.0173  0.8971
  902TIP3   OH224120   3.943   3.141   0.953 -0.4845 -0.1744  0.2180
  902TIP3    H124121   3.936   3.168   1.045 -0.3616 -0.0061  0.1785
  902TIP3    H224122   3.897   3.210   0.904 -0.6461 -0.3209  0.1631
  903TIP3   OH224123   0.363   0.276  13.980 -0.3251 -0.4500 -0.5474
  903TIP3    H124124   0.303   0.246  14.048  0.7150  0.6719  0.9328
  903TIP3    H224125   0.447   0.236  14.003 -0.1331 -0.7504 -1.6928
  904TIP3   OH224126   5.854   0.982   0.157  0.7174  0.4928 -0.2186
  904TIP3    H124127   5.852   0.886   0.154  2.2496  0.3326  1.6203
  904TIP3    H224128   5.769   1.009   0.124 -0.1316 -1.5537  0.1459
  905TIP3   OH224129   6.123   4.612   1.663 -0.2181  0.5311  0.7149
  905TIP3    H124130   6.048   4.627   1.721 -0.4867  1.0496  0.2391
  905TIP3    H224131   6.095   4.647   1.578  0.1795 -0.2063  0.2724
  906TIP3   OH224132   5.371   3.173   4.435 -0.5428 -0.0755 -0.1107
  906TIP3    H124133   5.385   3.160   4.342 -0.4697 -1.3589  0.0646
  906TIP3    H224134   5.441   3.233   4.462 -0.1907 -0.1981 -0.7469
  907TIP3   OH224135   2.530   1.002  11.153 -0.6344 -0.1971  0.4985
  907TIP3    H124136   2.503   1.094  11.157 -0.6742 -0.1240 -0.9044
  907TIP3    H224137   2.450   0.953  11.172 -0.8509  0.0589  0.2625
  908TIP3   OH224138   5.632   4.025  12.898 -0.3438 -0.2972 -0.2391
  908TIP3    H124139   5.575   4.022  12.975 -0.1208  1.3054  0.0113
  908TIP3    H224140   5.697   4.092  12.919  0.6663 -0.9460 -1.1945
  909TIP3   OH224141   1.189   2.633   5.181  0.1380 -0.0560 -0.1404
  909TIP3    H124142   1.257   2.692   5.213  0.0018  1.0825 -1.8534
  909TIP3    H224143   1.194   2.638   5.086 -0.6130 -2.0007 -0.3374
  910TIP3   OH224144   0.612   1.957  11.373  0.6399 -0.0884  0.2386
  910TIP3    H124145   0.685   1.894  11.370 -0.0289 -1.0585  2.6395
  910TIP3    H224146   0.548   1.922  11.311  0.8829 -0.9832  0.4770
  911TIP3   OH224147   3.792   2.206  17.233 -0.0133  0.2167 -0.0497
  911TIP3    H124148   3.885   2.191  17.250  0.1529  0.7228 -0.4853
  911TIP3    H224149   3.755   2.118  17.219  0.5758  0.0776 -0.7497
  912TIP3   OH224150   3.094   0.302   6.216  0.5719 -0.3655  0.4986
  912TIP3    H124151   3.029   0.360   6.256  2.0467  0.3158  2.0173
  912TIP3    H224152   3.063   0.290   6.127 -1.2963  0.4465  0.9838
  913TIP3   OH224153   0.011   1.531  14.274  0.2962 -0.2883  0.0428
  913TIP3    H124154  -0.005   1.507  14.183  0.4399  1.1465 -0.3837
  913TIP3    H224155  -0.066   1.499  14.321 -0.1602 -0.3228 -0.7128
  914TIP3   OH224156   0.386   1.566   1.353  0.7458 -0.0387 -0.6157
  914TIP3    H124157   0.393   1.661   1.342 -1.3340  0.4073  1.1688
  914TIP3    H224158   0.413   1.550   1.443  1.2184 -1.1932 -0.9477
  915TIP3   OH224159   2.160   3.217  12.230  0.2305  0.0182 -0.5830
  915TIP3    H124160   2.183   3.293  12.283 -1.1029 -1.2483  2.0116
  915TIP3    H224161   2.069   3.233  12.204 -0.2764 -0.9340  0.5355
  916TIP3   OH224162   0.633   3.186   0.848  0.5226 -0.4208  0.4086
  916TIP3    H124163   0.579   3.262   0.872 -0.9551 -0.8461 -1.3747
  916TIP3    H224164   0.572   3.124   0.809  1.9584 -1.9298  0.4495
  917TIP3   OH224165   3.959   5.769  15.010  0.2632  0.2383 -0.4363
  917TIP3    H124166   3.913   5.706  14.954  0.3422  0.9988 -1.3936
  917TIP3    H224167   3.905   5.776  15.089  1.6332 -3.0555  0.9520
  918TIP3   OH224168   2.559   5.211   3.269  0.0631  0.7174  0.0316
  918TIP3    H124169   2.485   5.167   3.228  0.0495  1.7626 -1.1159
  918TIP3    H224170   2.540   5.208   3.362 -0.3873 -0.8544 -0.0790
  919TIP3   OH224171   3.515   1.861   2.070 -0.5904  0.3393 -0.7519
  919TIP3    H124172   3.497   1.839   2.162  1.4791  0.4457 -0.2760
  919TIP3    H224173   3.437   1.831   2.023 -1.7235  0.3183  1.0262
  920TIP3   OH224174   0.969   0.764  14.515  0.0801  0.1003  0.0390
  920TIP3    H124175   0.900   0.829  14.528  1.0501  0.7156  2.6306
  920TIP3    H224176   1.047   0.804  14.553  1.7299 -0.9103 -2.0835
  921TIP3   OH224177   2.666   0.454  10.460  0.0998 -0.7662  0.3597
  921TIP3    H124178   2.623   0.500  10.388  3.0605 -1.5882 -2.1436
  921TIP3    H224179   2.724   0.518  10.499  0.5964 -1.0821  0.1416
  922TIP3   OH224180   2.652   2.578  13.559  0.5870 -0.1832 -0.1010
  922TIP3    H124181   2.573   2.631  13.551  0.7333  0.1803  0.7105
  922TIP3    H224182   2.625   2.502  13.611  0.7343 -0.1381  0.0420
  923TIP3   OH224183   4.757   3.652   4.043 -0.2544  0.6119 -0.0999
  923TIP3    H124184   4.806   3.579   4.082 -1.1584 -0.1079 -0.2699
  923TIP3    H224185   4.666   3.632   4.062 -0.6679  0.6874 -1.8288
  924TIP3   OH224186   3.606   6.445  16.119  0.0858 -0.1820  0.2313
  924TIP3    H124187   3.551   6.517  16.149 -0.1223 -0.6742  1.0836
  924TIP3    H224188   3.652   6.479  16.042 -3.2927 -0.4884 -2.1675
  925TIP3   OH224189   5.068   6.024  15.833 -0.4090 -0.3465 -0.0534
  925TIP3    H124190   5.105   5.985  15.912 -1.5939  0.9980  1.2059
  925TIP3    H224191   4.976   6.039  15.854  0.0415  3.6128 -0.2063
  926TIP3   OH224192   3.947   1.710  12.756 -0.5349 -0.1863 -0.2655
  926TIP3    H124193   4.032   1.688  12.718  0.3735 -0.8768  2.0271
  926TIP3    H224194   3.921   1.633  12.806 -1.2735  0.9258  1.1594
  927TIP3   OH224195   5.847   3.236   4.639 -0.3479 -0.8061  0.3210
  927TIP3    H124196   5.772   3.267   4.587 -0.0226  1.4327  1.0636
  927TIP3    H224197   5.891   3.316   4.666  1.8082 -2.0524  0.6923
  928TIP3   OH224198   1.348   5.499   1.188 -0.5816 -0.2278 -0.2973
  928TIP3    H124199   1.329   5.414   1.149  1.8586 -1.3263  0.6939
  928TIP3    H224200   1.355   5.481   1.282 -3.0982  1.7172  0.3649
  929TIP3   OH224201   1.297   3.726  15.656  0.0580 -0.0865  0.1875
  929TIP3    H124202   1.291   3.732  15.560 -2.7538 -0.5826  0.2448
  929TIP3    H224203   1.338   3.808  15.683  2.3170 -0.5485 -1.4618
  930TIP3   OH224204   3.054   5.492   4.932  0.0436  0.2658  0.1504
  930TIP3    H124205   3.149   5.485   4.937  0.0489  0.7549  0.9592
  930TIP3    H224206   3.022   5.402   4.934  0.5019  0.0655 -0.8090
  931TIP3   OH224207   5.659   2.940   1.905 -0.0509  0.0209 -0.4643
  931TIP3    H124208   5.686   2.862   1.953  1.9570  0.3357 -0.9621
  931TIP3    H224209   5.597   2.908   1.840 -0.3888 -0.9121  0.3024
  932TIP3   OH224210   5.673   0.814   4.524  1.0730  0.5027  0.1030
  932TIP3    H124211   5.755   0.850   4.489  1.4684  0.5998  1.0886
  932TIP3    H224212   5.619   0.891   4.543  0.1146  0.4030 -1.9506
  933TIP3   OH224213   5.219   4.527  14.769  0.5817  0.6087  0.5840
  933TIP3    H124214   5.253   4.498  14.854 -1.8596 -0.5643  1.2370
  933TIP3    H224215   5.210   4.447  14.718  1.0940  1.1930 -0.4581
  934TIP3   OH224216   1.254   3.283  13.533 -0.7847  0.0295 -0.5597
  934TIP3    H124217   1.342   3.264  13.500  0.0779  0.7671  1.1966
  934TIP3    H224218   1.215   3.196  13.546  0.1657 -0.3586 -0.1696
  935TIP3   OH224219   3.753   6.607  15.208  0.5912 -0.1478 -0.3838
  935TIP3    H124220   3.777   6.652  15.127  0.5565  3.2762  1.3283
  935TIP3    H224221   3.834   6.603  15.259  0.2713 -0.7892  0.1035
  936TIP3   OH224222   1.348   6.135  11.797 -0.1500  0.2095  0.0049
  936TIP3    H124223   1.335   6.163  11.707 -0.4715 -3.1836 -1.1771
  936TIP3    H224224   1.443   6.129  11.807 -0.1198 -0.1039 -0.4096
  937TIP3   OH224225   3.593   1.451   3.903 -0.4480 -0.4333 -0.3069
  937TIP3    H124226   3.554   1.417   3.822 -3.7320  0.9380  0.5457
  937TIP3    H224227   3.550   1.401   3.972  0.6817 -0.0546  0.6962
  938TIP3   OH224228   0.022   6.026  13.524  0.0616  0.0938  0.1723
  938TIP3    H124229  -0.041   6.043  13.454  1.2535  0.6423 -0.8188
  938TIP3    H224230  -0.025   5.973  13.587 -1.4799  0.7617 -0.3779
  939TIP3   OH224231   2.287   5.777  16.958  0.1587  0.1464  0.0220
  939TIP3    H124232   2.239   5.730  17.027  0.3034  2.1040  1.5523
  939TIP3    H224233   2.245   5.749  16.877  0.3248 -2.6750  0.7978
  940TIP3   OH224234   5.224   2.397  11.737  0.5966 -0.0008  0.1402
  940TIP3    H124235   5.217   2.305  11.710  2.0759 -0.4958  1.2878
  940TIP3    H224236   5.135   2.422  11.759 -0.1414 -0.5594 -1.9425
  941TIP3   OH224237   0.267   4.899   3.019  0.4577 -0.4635 -0.6074
  941TIP3    H124238   0.295   4.901   3.110  2.0423  0.0666 -1.0805
  941TIP3    H224239   0.216   4.979   3.007 -1.3624 -1.4255  0.2536
  942TIP3   OH224240   0.374   2.717  14.063  0.2331  0.3586 -0.6994
  942TIP3    H124241   0.450   2.701  14.120 -0.5301  0.9561  0.5314
  942TIP3    H224242   0.399   2.795  14.013 -0.5055  2.1387  1.5456
  943TIP3   OH224243   6.744   5.634  11.686  0.1386  0.1963 -0.1147
  943TIP3    H124244   6.789   5.687  11.620 -0.4036 -0.8336 -1.3455
  943TIP3    H224245   6.657   5.620  11.650 -0.3796  0.1254  1.1199
  944TIP3   OH224246   2.667   1.748  12.490  0.5023  0.2521 -0.1002
  944TIP3    H124247   2.687   1.657  12.468  0.8793  0.3890 -0.3267
  944TIP3    H224248   2.747   1.796  12.471  0.0428  0.7727 -0.7745
  945TIP3   OH224249   3.188   3.406   2.753 -0.0191  0.0919  0.1710
  945TIP3    H124250   3.098   3.404   2.785  0.3521  1.3498  1.3681
  945TIP3    H224251   3.228   3.482   2.795  1.8978 -0.9846  0.4451
  946TIP3   OH224252   3.144   5.067  14.657 -0.6525  0.0461  0.2992
  946TIP3    H124253   3.079   5.114  14.709  0.8115  1.3505  1.0092
  946TIP3    H224254   3.167   4.991  14.710 -0.2957  0.5468  0.8734
  947TIP3   OH224255   1.111   0.919   4.249  0.1064 -0.1081 -0.2623
  947TIP3    H124256   1.061   0.970   4.186  2.6741  1.0853 -1.4836
  947TIP3    H224257   1.142   0.842   4.200 -0.6362 -0.9472  0.5314
  948TIP3   OH224258   4.020   4.391  12.888  0.6988 -0.4076 -0.4945
  948TIP3    H124259   4.114   4.412  12.884  0.4305  0.7413 -1.9073
  948TIP3    H224260   4.017   4.296  12.903  2.0643 -0.3436  0.3527
  949TIP3   OH224261   0.838   3.452  12.220 -0.4809 -0.9003 -0.1032
  949TIP3    H124262   0.796   3.372  12.252 -1.0390  0.1106  1.8166
  949TIP3    H224263   0.819   3.518  12.287  1.9096  0.2893 -0.5069
  950TIP3   OH224264   5.290   2.697  12.692 -0.2938 -0.0666 -0.3598
  950TIP3    H124265   5.240   2.682  12.773 -0.3507  0.2949 -0.3239
  950TIP3    H224266   5.379   2.671  12.714 -0.0012  1.3251  0.2736
  951TIP3   OH224267   1.123   1.948  16.253  0.0069 -0.4865  0.6508
  951TIP3    H124268   1.048   1.893  16.280 -0.1196 -1.2602 -1.1563
  951TIP3    H224269   1.094   1.990  16.172  1.7361 -1.3142 -0.4529
  952TIP3   OH224270   3.112   0.907   2.686  0.2130 -0.3710 -0.5336
  952TIP3    H124271   3.195   0.892   2.640  0.8408 -0.2069  0.5101
  952TIP3    H224272   3.134   0.898   2.779 -0.7035  0.7159 -0.1853
  953TIP3   OH224273   3.439   3.843  11.513 -0.1494  0.2891 -0.2659
  953TIP3    H124274   3.360   3.801  11.547  0.1482  0.5848  0.8338
  953TIP3    H224275   3.418   3.936  11.513 -0.2794  0.2756 -1.2965
  954TIP3   OH224276   2.519   0.701  14.042  0.0346  0.2458  0.4233
  954TIP3    H124277   2.441   0.755  14.054 -0.0962  0.3136 -0.6401
  954TIP3    H224278   2.583   0.738  14.103 -0.6618  0.3711  1.0935
  955TIP3   OH224279   3.497   3.058   4.604  0.8136 -0.2500 -0.0003
  955TIP3    H124280   3.572   3.101   4.563  0.4968 -0.0743 -0.4026
  955TIP3    H224281   3.456   3.009   4.533 -0.7035  1.3647 -0.3040
  956TIP3   OH224282   0.418   1.758   1.031 -0.3704 -1.0269 -0.1392
  956TIP3    H124283   0.342   1.798   0.989 -0.6456 -1.2441  0.1506
  956TIP3    H224284   0.461   1.710   0.960  0.4412  0.4461 -0.6944
  957TIP3   OH224285   4.166   1.040  14.420 -0.1606  0.3224 -0.3841
  957TIP3    H124286   4.222   1.112  14.391 -1.4275  2.2803  1.7449
  957TIP3    H224287   4.085   1.051  14.370 -0.5472  0.7004  0.3200
  958TIP3   OH224288   0.587   3.592  14.143  0.2739  0.4444  0.2197
  958TIP3    H124289   0.515   3.584  14.205 -0.9045 -0.2447 -1.1714
  958TIP3    H224290   0.610   3.685  14.145 -0.2512  0.5680  1.1023
  959TIP3   OH224291   2.123   5.460  14.338 -0.4379 -0.0378 -0.5327
  959TIP3    H124292   2.099   5.469  14.430  0.0875 -0.7492 -0.3168
  959TIP3    H224293   2.042   5.435  14.294 -0.5745 -0.2240 -0.1785
  960TIP3   OH224294   0.891   1.601   6.703  0.4016 -0.0717 -0.5345
  960TIP3    H124295   0.882   1.514   6.664  0.7617  0.6947 -2.4426
  960TIP3    H224296   0.803   1.624   6.731 -0.1539 -0.1370 -2.1370
  961TIP3   OH224297   5.516   1.239  14.252 -0.1660  0.7183  0.0236
  961TIP3    H124298   5.442   1.225  14.192 -1.0022  1.9471  0.7185
  961TIP3    H224299   5.509   1.169  14.317 -1.7643  1.7832  1.0582
  962TIP3   OH224300   5.217   2.132  12.548  0.4037  0.2449 -0.3883
  962TIP3    H124301   5.162   2.173  12.614 -0.3378 -0.3668 -0.6147
  962TIP3    H224302   5.199   2.038  12.556  1.6707 -0.0111 -0.2357
  963TIP3   OH224303   4.029   6.172   0.266 -0.2089  0.0472  0.3631
  963TIP3    H124304   4.000   6.184   0.175  1.6879  0.1403 -0.2900
  963TIP3    H224305   3.972   6.228   0.318 -2.0115 -0.7887 -0.6159
  964TIP3   OH224306   0.660   5.347   0.938  0.0630 -0.1843  0.5291
  964TIP3    H124307   0.606   5.296   0.998 -0.4023  1.4910  1.6125
  964TIP3    H224308   0.597   5.394   0.883  0.4640 -0.3999 -0.1184
  965TIP3   OH224309   0.591   6.374   3.455 -0.2976 -0.3496 -0.6259
  965TIP3    H124310   0.679   6.397   3.425 -1.4305  1.7351 -2.6513
  965TIP3    H224311   0.597   6.377   3.551  2.2942 -2.4112 -0.6123
  966TIP3   OH224312   0.181   3.254   0.098  0.0482 -0.3421  0.7244
  966TIP3    H124313   0.274   3.232   0.100 -0.0984 -1.0844 -0.1008
  966TIP3    H224314   0.150   3.234   0.186 -0.0073 -3.2990  0.1411
  967TIP3   OH224315   3.441   5.076  12.078 -0.0294  0.1016 -0.4803
  967TIP3    H124316   3.399   5.130  12.145 -0.9514 -0.6997 -0.3837
  967TIP3    H224317   3.372   5.061  12.013 -0.1632 -1.8730  0.0497
  968TIP3   OH224318   3.602   6.538   1.068  0.2874 -0.4453  0.1338
  968TIP3    H124319   3.514   6.571   1.048  0.3978 -0.1690  0.0990
  968TIP3    H224320   3.614   6.554   1.161 -0.4681 -2.3008  0.6083
  969TIP3   OH224321   1.271   1.954  12.385  0.0353 -0.0455  0.2328
  969TIP3    H124322   1.246   1.891  12.452  0.6484 -0.4377  0.1019
  969TIP3    H224323   1.341   1.911  12.336  2.1951  1.6176  1.6439
  970TIP3   OH224324   2.371   5.730  12.179  0.6032 -0.1647  0.3935
  970TIP3    H124325   2.360   5.648  12.130 -0.3043 -0.4838  1.1106
  970TIP3    H224326   2.465   5.747  12.174  1.0107 -1.8912  1.1944
  971TIP3   OH224327   4.581   0.100  12.516 -0.3963  0.1254 -0.7145
  971TIP3    H124328   4.506   0.157  12.503  1.3893  2.0662 -3.7908
  971TIP3    H224329   4.607   0.113  12.607 -2.7243  0.6762 -0.0862
  972TIP3   OH224330   1.424   2.538   5.509 -0.3432  0.2376 -0.3361
  972TIP3    H124331   1.331   2.545   5.487 -0.5979 -0.2697  0.5221
  972TIP3    H224332   1.427   2.469   5.575  0.6162  0.4433 -0.1603
  973TIP3   OH224333   5.833   4.801  15.755  0.0567  0.0590 -0.7632
  973TIP3    H124334   5.870   4.781  15.669  0.2743 -2.6225 -0.1421
  973TIP3    H224335   5.817   4.715  15.795 -0.8684  1.2035  1.5364
  974TIP3   OH224336   0.501   2.202  11.490  0.5225 -0.1835  0.2434
  974TIP3    H124337   0.551   2.125  11.461  0.0493  0.0194 -1.1882
  974TIP3    H224338   0.415   2.192  11.448  0.5373  1.2555 -0.1805
  975TIP3   OH224339   0.732   4.051   6.273 -0.2277  0.1670  0.3808
  975TIP3    H124340   0.701   4.060   6.363 -0.0640 -0.3345  0.4901
  975TIP3    H224341   0.811   3.998   6.280 -0.5935 -0.4650 -0.1272
  976TIP3   OH224342   0.823   0.495   2.528 -0.3684  0.1153  0.0237
  976TIP3    H124343   0.859   0.459   2.609 -0.9872 -1.5524 -0.3966
  976TIP3    H224344   0.899   0.532   2.482  0.0457  0.7446  1.1689
  977TIP3   OH224345   3.460   0.970  10.917  0.7012 -0.2455  0.2165
  977TIP3    H124346   3.395   0.991  10.983 -0.9246  0.5329 -1.5393
  977TIP3    H224347   3.434   0.884  10.884  2.7575 -1.6436  1.9691
  978TIP3   OH224348   0.181   6.594   5.084  0.3729 -0.2794  0.3067
  978TIP3    H124349   0.117   6.536   5.125  0.6933  0.3242  1.7221
  978TIP3    H224350   0.149   6.682   5.102  0.9581  0.0082 -0.0376
  979TIP3   OH224351   3.727   4.591  16.426 -0.6572  0.3638  0.3058
  979TIP3    H124352   3.783   4.520  16.394 -3.1681 -1.0219 -1.4498
  979TIP3    H224353   3.715   4.572  16.519 -0.4486 -0.9339  0.0909
  980TIP3   OH224354   6.000   2.428   5.093 -0.1005 -0.0856  0.3587
  980TIP3    H124355   6.041   2.407   5.177  1.0366 -0.5256 -0.2924
  980TIP3    H224356   5.970   2.519   5.104 -0.2663 -0.2446  1.3467
  981TIP3   OH224357   6.100   3.819   4.486  0.4931  0.1653 -0.0410
  981TIP3    H124358   6.114   3.889   4.422 -0.1388 -0.1654 -0.5635
  981TIP3    H224359   6.010   3.832   4.516 -0.4245 -1.6330 -1.7337
  982TIP3   OH224360   4.333   1.845   6.193  0.0257 -0.3604  0.1439
  982TIP3    H124361   4.344   1.940   6.194 -0.5376 -0.2849 -0.0396
  982TIP3    H224362   4.416   1.810   6.223  0.0179  0.2113  0.8531
  983TIP3   OH224363   2.659   3.690  10.578 -0.4567  0.2389  0.1857
  983TIP3    H124364   2.704   3.622  10.528 -0.3724  0.9078 -0.6569
  983TIP3    H224365   2.728   3.749  10.607 -0.8307  1.7376 -1.8259
  984TIP3   OH224366   0.107   2.511  15.724  0.0711 -0.0310  0.3786
  984TIP3    H124367   0.201   2.528  15.734  0.3851 -1.7657  0.7577
  984TIP3    H224368   0.088   2.443  15.789 -0.9232 -1.3740 -1.2367
  985TIP3   OH224369   1.909   5.925  16.077 -0.1467 -0.3406  0.3378
  985TIP3    H124370   1.957   5.855  16.032  0.6238  0.0481  0.5295
  985TIP3    H224371   1.817   5.903  16.066 -0.0978  0.5747 -2.8169
  986TIP3   OH224372   5.558   5.402  11.877  0.5734 -0.0332 -0.0729
  986TIP3    H124373   5.568   5.347  11.799 -0.0670  0.3013 -0.3982
  986TIP3    H224374   5.543   5.490  11.843 -0.4778 -0.0148  0.4089
  987TIP3   OH224375   0.162   2.977   0.693  0.2715  0.2038  0.0423
  987TIP3    H124376   0.089   2.948   0.749  1.0569 -0.2103  0.8803
  987TIP3    H224377   0.124   3.046   0.638 -0.4178  0.9458  1.3976
  988TIP3   OH224378   6.232   0.047  15.000  0.3717 -0.0447 -0.1437
  988TIP3    H124379   6.303  -0.017  15.001 -0.0707 -0.5506  0.7796
  988TIP3    H224380   6.250   0.102  14.925  1.1986 -0.7749 -0.4989
  989TIP3   OH224381   3.243   4.970   4.004  0.4069  0.0501 -0.2235
  989TIP3    H124382   3.234   4.878   4.030 -0.5113 -0.3455 -1.7665
  989TIP3    H224383   3.333   4.977   3.971  0.0498 -0.6871 -1.4140
  990TIP3   OH224384   1.522   3.847   4.967  0.4954 -0.2060 -0.1513
  990TIP3    H124385   1.529   3.918   5.030 -1.4332  3.0297 -3.2260
  990TIP3    H224386   1.436   3.808   4.985 -0.5923  1.4983 -1.3579
  991TIP3   OH224387   0.446   1.315  11.654 -0.3371 -0.3413  0.0869
  991TIP3    H124388   0.366   1.363  11.632 -0.4314  0.5909  2.2950
  991TIP3    H224389   0.431   1.227  11.620 -1.2370  0.4459 -1.7291
  992TIP3   OH224390   5.639   1.052  15.935  0.0789 -0.7165 -0.5005
  992TIP3    H124391   5.670   1.130  15.980 -0.4090 -0.8890  0.1394
  992TIP3    H224392   5.625   1.081  15.844  1.6076 -0.5185 -0.6928
  993TIP3   OH224393   6.073   0.783  12.771  0.1275 -0.1156  0.3041
  993TIP3    H124394   6.142   0.820  12.716  0.5052 -0.4978  0.5196
  993TIP3    H224395   6.083   0.689  12.763  0.5775 -0.1876  1.5039
  994TIP3   OH224396   5.212   6.505  12.353  0.0914 -0.3542  0.1030
  994TIP3    H124397   5.236   6.558  12.429 -3.2464  0.5539  0.6758
  994TIP3    H224398   5.197   6.568  12.283 -2.9469 -0.4537  0.5188
  995TIP3   OH224399   3.090   2.345   0.053 -0.6824  0.0182  0.1733
  995TIP3    H124400   3.095   2.440   0.056 -1.2044  0.0504  0.1724
  995TIP3    H224401   3.109   2.322  -0.038  3.7882 -0.1899  0.9667
  996TIP3   OH224402   1.788   4.540  13.215  0.4497 -0.6247  0.2866
  996TIP3    H124403   1.852   4.537  13.286  1.0418 -1.1251 -0.2509
  996TIP3    H224404   1.777   4.448  13.189 -2.1443 -0.8416  1.8006
  997TIP3   OH224405   4.140   3.344   0.783  0.1816 -0.0917  0.0450
  997TIP3    H124406   4.179   3.260   0.805 -0.2254 -0.5957 -1.1018
  997TIP3    H224407   4.072   3.324   0.719 -0.3109  1.0457  0.1818
  998TIP3   OH224408   6.437   5.648  13.596  0.4213 -0.3112 -0.2835
  998TIP3    H124409   6.378   5.710  13.639  1.4989 -0.5148  1.6016
  998TIP3    H224410   6.401   5.562  13.618  0.4214 -0.3964 -0.6207
  999TIP3   OH224411   5.561   6.252  17.272  0.8679 -0.0083 -0.3022
  999TIP3    H124412   5.508   6.172  17.268  1.0803 -0.1649 -0.0540
  999TIP3    H224413   5.580   6.273  17.181 -1.8255  1.5464 -0.6051
 1000TIP3   OH224414   4.855   1.150  16.281  0.2574  0.3597  0.1938
 1000TIP3    H124415   4.861   1.121  16.372  1.4731  0.1115  0.0483
 1000TIP3    H224416   4.882   1.074  16.229  0.2121  0.7056 -0.3506
 1001TIP3   OH224417   3.912   0.515   3.758  0.2918 -0.8278  0.0261
 1001TIP3    H124418   3.876   0.597   3.793 -0.1017 -0.5110 -1.0411
 1001TIP3    H224419   4.005   0.532   3.749  0.0222  0.0714 -1.5402
 1002TIP3   OH224420   0.649   3.556  11.934  0.1766  0.3319 -0.1221
 1002TIP3    H124421   0.633   3.553  11.840 -1.4903 -1.1491  0.1645
 1002TIP3    H224422   0.715   3.489  11.950  0.1120  0.2510 -0.1933
 1003TIP3   OH224423   2.817   1.094  11.303 -0.3530  0.9249  0.5763
 1003TIP3    H124424   2.760   1.098  11.380 -1.8067  2.5645 -0.5221
 1003TIP3    H224425   2.758   1.108  11.229  1.2901  1.2547 -0.7140
 1004TIP3   OH224426   1.334   2.174  14.823 -0.1911  0.1384  0.0821
 1004TIP3    H124427   1.271   2.245  14.825 -1.5237 -0.9543 -1.1734
 1004TIP3    H224428   1.405   2.203  14.880 -1.5791  1.6175  1.1200
 1005TIP3   OH224429   0.103   3.648   3.914 -0.2512  0.4192  0.2623
 1005TIP3    H124430   0.020   3.628   3.870  0.1269  0.4213 -0.4584
 1005TIP3    H224431   0.089   3.620   4.004 -2.4826  4.0027  1.2616
 1006TIP3   OH224432   2.782   0.826  13.951  0.1336 -0.1025 -0.2316
 1006TIP3    H124433   2.773   0.774  14.031 -0.7564  1.0621  0.4682
 1006TIP3    H224434   2.824   0.907  13.979 -0.2125  0.3342 -0.9297
 1007TIP3   OH224435   4.371   4.829   5.214 -0.1460  0.0945  0.2650
 1007TIP3    H124436   4.299   4.892   5.212  0.8765  1.2680 -1.3342
 1007TIP3    H224437   4.328   4.745   5.229 -1.9288  0.6900 -1.1161
 1008TIP3   OH224438   1.774   3.473  15.752 -0.2514  0.2567  0.1984
 1008TIP3    H124439   1.830   3.397  15.768 -0.7676  0.0666  1.1884
 1008TIP3    H224440   1.759   3.472  15.658 -0.6685 -1.1905  0.2500
 1009TIP3   OH224441   0.685   1.434   5.637 -0.0057 -0.4351  0.2011
 1009TIP3    H124442   0.734   1.379   5.576 -0.3689 -0.0962 -0.4052
 1009TIP3    H224443   0.710   1.402   5.723  0.7361 -0.7378 -0.1150
 1010TIP3   OH224444   5.330   0.346  16.991  0.0749  0.0948  0.4297
 1010TIP3    H124445   5.343   0.266  17.042  1.1178  0.6767  1.1002
 1010TIP3    H224446   5.370   0.327  16.906 -1.3838 -0.7605 -0.1074
 1011TIP3   OH224447   5.864   1.319  11.698  0.0028 -0.4941  0.4469
 1011TIP3    H124448   5.933   1.299  11.635  0.3402  1.5580  0.0857
 1011TIP3    H224449   5.812   1.388  11.656 -0.9756 -0.4776  1.6118
 1012TIP3   OH224450   5.788   2.626  16.272 -0.1145  0.5098 -0.0463
 1012TIP3    H124451   5.823   2.565  16.206 -0.3262 -0.4804  0.7270
 1012TIP3    H224452   5.718   2.672  16.227 -0.6477 -0.5733 -0.3721
 1013TIP3   OH224453   1.561   4.983  14.200  0.0104  0.2847 -0.3147
 1013TIP3    H124454   1.628   4.991  14.132  0.2338  1.7250  0.0549
 1013TIP3    H224455   1.607   4.943  14.274  0.0859 -0.0741 -0.5484
 1014TIP3   OH224456   1.075   4.775  12.669  0.6434  0.3276  0.0258
 1014TIP3    H124457   1.159   4.819  12.684  1.3848 -1.5387  1.9536
 1014TIP3    H224458   1.099   4.690  12.632 -0.4953  0.2182 -0.5057
 1015TIP3   OH224459   0.500   4.262   5.472  0.5447 -0.2460  0.2717
 1015TIP3    H124460   0.496   4.170   5.499 -0.3120 -0.2199  0.2433
 1015TIP3    H224461   0.557   4.304   5.536  1.2041 -0.8581  0.1000
 1016TIP3   OH224462   6.602   6.361   1.515  0.0657  0.5327 -0.2486
 1016TIP3    H124463   6.657   6.294   1.555 -1.1669  0.3241  1.2086
 1016TIP3    H224464   6.622   6.356   1.421  1.2234 -0.7139  0.0330
 1017TIP3   OH224465   2.825   1.515  16.547  0.1776  0.0945 -0.1862
 1017TIP3    H124466   2.808   1.473  16.463  0.0566  0.5185 -0.3764
 1017TIP3    H224467   2.752   1.488  16.603 -0.6438  1.1294 -0.7111
 1018TIP3   OH224468   3.429   5.748  14.118  0.4091 -0.0818  0.1106
 1018TIP3    H124469   3.409   5.811  14.188  0.6013  0.3881 -0.2497
 1018TIP3    H224470   3.437   5.802  14.040  1.5031 -0.4393 -0.0364
 1019TIP3   OH224471   3.031   1.982  12.739 -0.0015 -0.2526  0.3639
 1019TIP3    H124472   3.107   1.950  12.788  0.6083  0.4922 -0.0840
 1019TIP3    H224473   3.025   2.075  12.761  1.4171  0.5852 -2.3460
 1020TIP3   OH224474   5.674   4.311  12.943 -0.2180 -0.3851 -0.7500
 1020TIP3    H124475   5.593   4.309  12.892 -0.7342 -0.4936  0.0639
 1020TIP3    H224476   5.720   4.389  12.911 -0.5241 -0.4537 -1.3796
 1021TIP3   OH224477   4.479   4.468   6.341  0.1013 -0.1742  0.4713
 1021TIP3    H124478   4.447   4.536   6.281  0.6701 -0.0418  0.3120
 1021TIP3    H224479   4.403   4.444   6.393 -0.6872 -1.0120 -0.9824
 1022TIP3   OH224480   2.979   5.340   6.195  0.8057  0.2597  0.6023
 1022TIP3    H124481   2.938   5.264   6.237  1.5068  0.6039  1.9588
 1022TIP3    H224482   2.990   5.313   6.104  1.7392 -1.5865  1.2135
 1023TIP3   OH224483   4.677   4.762   4.810 -0.1448 -0.4679 -0.4920
 1023TIP3    H124484   4.616   4.801   4.873  1.1404  0.4201  0.2408
 1023TIP3    H224485   4.652   4.801   4.726 -1.2559 -0.9338 -0.3963
 1024TIP3   OH224486   6.363   0.390   3.464  0.4525  0.3283  0.0108
 1024TIP3    H124487   6.428   0.349   3.521 -0.1833 -0.2508  0.3347
 1024TIP3    H224488   6.412   0.455   3.415  0.9515  1.0701  1.4458
 1025TIP3   OH224489   6.299   3.590  11.770  0.2093  0.0278  0.2816
 1025TIP3    H124490   6.354   3.643  11.827 -0.7430  1.4238 -0.0510
 1025TIP3    H224491   6.209   3.608  11.799 -0.1668 -0.9532 -0.2268
 1026TIP3   OH224492   5.995   6.704   2.435  0.2419  0.3856  0.6893
 1026TIP3    H124493   5.934   6.637   2.466  0.8492  0.2991  1.7483
 1026TIP3    H224494   6.000   6.767   2.507  0.1942  1.2279 -0.0285
 1027TIP3   OH224495   1.205   0.825  16.580 -0.2110 -0.2757  0.0016
 1027TIP3    H124496   1.297   0.808  16.561  0.3644  2.2622  0.2014
 1027TIP3    H224497   1.204   0.913  16.618 -2.7921  0.0444 -0.6162
 1028TIP3   OH224498   2.095   6.615   0.522  0.1031  0.2507  0.2483
 1028TIP3    H124499   2.093   6.572   0.436  1.4987 -0.0978  0.3673
 1028TIP3    H224500   2.103   6.708   0.502  0.9406  0.1281 -0.0073
 1029TIP3   OH224501   2.695   3.354  16.569  0.0906 -0.4702  0.0920
 1029TIP3    H124502   2.611   3.389  16.537  0.1363  2.0479  2.4186
 1029TIP3    H224503   2.761   3.404  16.521  0.2764 -1.4267 -0.6739
 1030TIP3   OH224504   2.058   6.208  11.418  0.1213 -0.2182  0.6065
 1030TIP3    H124505   2.121   6.138  11.398 -0.2685 -0.7347  1.1349
 1030TIP3    H224506   2.005   6.172  11.489 -0.5744  0.3307  0.3725
 1031TIP3   OH224507   1.565   0.715  13.781  0.1136  0.6892 -0.0359
 1031TIP3    H124508   1.569   0.811  13.775  0.1094  0.7443  0.7165
 1031TIP3    H224509   1.509   0.689  13.709  0.2246  1.2479 -0.3287
 1032TIP3   OH224510   3.991   6.386   5.116  0.0040 -0.7545  0.3984
 1032TIP3    H124511   3.916   6.443   5.136  0.1056 -0.8582  1.0840
 1032TIP3    H224512   3.986   6.316   5.181  0.9466 -0.5278  0.7328
 1033TIP3   OH224513   2.126   6.475  13.048 -0.2481  0.3625 -0.2075
 1033TIP3    H124514   2.055   6.520  13.095 -2.3941 -2.4401 -0.5283
 1033TIP3    H224515   2.155   6.539  12.982 -1.3143  2.1758  0.9760
 1034TIP3   OH224516   3.337   0.591  15.554 -0.1560  0.5080 -0.7375
 1034TIP3    H124517   3.355   0.606  15.647 -2.4793  1.2804 -0.3615
 1034TIP3    H224518   3.298   0.503  15.551 -0.6870  0.7455 -0.8851
 1035TIP3   OH224519   1.069   1.892  15.254 -0.6606 -0.1511 -0.3105
 1035TIP3    H124520   1.004   1.846  15.307 -2.8009  1.3720 -1.4751
 1035TIP3    H224521   1.093   1.968  15.306 -0.5032 -0.2338 -0.2631
 1036TIP3   OH224522   1.272   5.563  16.533  0.2008  0.6291  0.1035
 1036TIP3    H124523   1.260   5.651  16.497  2.0521  0.1913 -1.7767
 1036TIP3    H224524   1.185   5.538  16.564 -0.9394  2.1600 -1.6436
 1037TIP3   OH224525   6.495   6.513   0.969  0.1722  0.1293 -0.0611
 1037TIP3    H124526   6.430   6.465   1.020  0.4659  0.8393  1.0014
 1037TIP3    H224527   6.443   6.562   0.905 -0.1928 -0.7873 -0.4956
 1038TIP3   OH224528   0.086   2.030  12.334 -0.3067  0.4322 -0.0765
 1038TIP3    H124529  -0.002   1.995  12.343 -0.8682  1.4066 -1.5094
 1038TIP3    H224530   0.126   1.977  12.265  0.6834 -0.7724  1.3328
 1039TIP3   OH224531   3.270   6.428   3.279  0.8595 -0.9082  0.2037
 1039TIP3    H124532   3.311   6.355   3.232  1.0018  0.0547 -1.2419
 1039TIP3    H224533   3.184   6.436   3.238  0.8392 -0.2714  0.3668
 1040TIP3   OH224534   2.852   6.034   6.131 -0.0859 -0.1702 -0.0088
 1040TIP3    H124535   2.858   6.038   6.036  0.9135  0.3188  0.0531
 1040TIP3    H224536   2.929   5.982   6.157 -0.0569  0.1488  0.5517
 1041TIP3   OH224537   5.114   1.171   3.060 -0.2465 -0.2877  0.0315
 1041TIP3    H124538   5.042   1.166   3.123 -0.3939  0.9676  0.0019
 1041TIP3    H224539   5.180   1.224   3.104 -0.1547  0.1953 -0.6661
 1042TIP3   OH224540   6.225   4.117  12.349  0.3985 -0.0738  0.2173
 1042TIP3    H124541   6.302   4.065  12.371  0.7449  1.1785  2.3003
 1042TIP3    H224542   6.223   4.186  12.416 -2.5859 -0.1115  0.2987
 1043TIP3   OH224543   5.732   6.769  12.720 -0.4660 -0.2883  0.1373
 1043TIP3    H124544   5.736   6.863  12.701  2.5671 -0.4524 -0.5531
 1043TIP3    H224545   5.706   6.764  12.812 -1.6718  1.1690 -0.0956
 1044TIP3   OH224546   0.185   6.214   0.375 -0.4880  0.4024  0.1052
 1044TIP3    H124547   0.188   6.182   0.465 -1.0188  2.1320  0.8036
 1044TIP3    H224548   0.235   6.296   0.378 -1.1638  0.8720 -0.9721
 1045TIP3   OH224549   1.084   3.547   5.344 -0.0996 -0.2273 -0.2386
 1045TIP3    H124550   1.031   3.505   5.276  0.5655 -2.3234  0.4579
 1045TIP3    H224551   1.029   3.618   5.377 -1.3414 -0.6007 -1.4108
 1046TIP3   OH224552   0.752   1.399  12.415 -0.1047  0.4022  0.0709
 1046TIP3    H124553   0.701   1.321  12.397  0.3783 -0.0495  0.6247
 1046TIP3    H224554   0.835   1.385  12.369 -0.4203  1.0722 -0.7197
 1047TIP3   OH224555   3.139   1.562   4.696  0.4483  0.3362 -0.0357
 1047TIP3    H124556   3.174   1.638   4.742  2.2577  1.3079 -2.7585
 1047TIP3    H224557   3.129   1.495   4.764  1.0360  2.2533  2.0478
 1048TIP3   OH224558   6.022   1.693   1.353  0.2443  0.0596  0.3734
 1048TIP3    H124559   5.974   1.771   1.382 -0.8354 -0.7017  0.6944
 1048TIP3    H224560   6.017   1.697   1.257 -2.1396 -0.9567  0.3846
 1049TIP3   OH224561   5.472   1.511  14.318 -0.3058  0.3980 -0.0029
 1049TIP3    H124562   5.416   1.540  14.246 -0.3343  0.9733  0.2414
 1049TIP3    H224563   5.499   1.423  14.294  1.2058  1.2450 -1.6435
 1050TIP3   OH224564   2.334   4.054   3.351 -0.0017  0.1941 -0.5239
 1050TIP3    H124565   2.389   4.110   3.297 -1.2545 -1.8258 -4.2010
 1050TIP3    H224566   2.258   4.108   3.373  0.4337  1.0016 -0.9829
 1051TIP3   OH224567   2.170   5.495  14.908 -0.0258 -0.1460 -0.2967
 1051TIP3    H124568   2.165   5.589  14.926 -0.3786 -0.0205 -1.0412
 1051TIP3    H224569   2.091   5.459  14.946  0.6418 -0.3151  0.9787
 1052TIP3   OH224570   2.834   4.184   2.930  0.2492  0.8287 -0.1945
 1052TIP3    H124571   2.919   4.224   2.949  1.5665 -1.5127 -0.7837
 1052TIP3    H224572   2.830   4.181   2.834 -0.3090  0.5506 -0.1664
 1053TIP3   OH224573   3.573   4.645  14.929 -0.2327 -0.5566  0.1504
 1053TIP3    H124574   3.652   4.623  14.881 -0.4099 -0.3447 -0.2478
 1053TIP3    H224575   3.603   4.668  15.017  0.6196  3.2022 -0.9709
 1054TIP3   OH224576   6.286   5.101  13.516 -0.1834  0.0428  0.2530
 1054TIP3    H124577   6.366   5.142  13.483 -0.5184  0.5346  0.0464
 1054TIP3    H224578   6.293   5.108  13.611 -0.8844  1.8802  0.2157
 1055TIP3   OH224579   3.478   3.354  13.713  0.1156 -0.0020 -0.5562
 1055TIP3    H124580   3.456   3.262  13.698  1.5799 -0.2207 -1.6380
 1055TIP3    H224581   3.410   3.386  13.772 -0.8021 -1.5952 -0.6951
 1056TIP3   OH224582   1.235   3.231   1.460  0.4361 -0.2084  0.4331
 1056TIP3    H124583   1.169   3.221   1.528 -0.1016 -0.6049 -0.1361
 1056TIP3    H224584   1.252   3.325   1.457 -1.9243  0.2661 -1.0711
 1057TIP3   OH224585   5.991   5.729   1.324 -0.1807  0.2000 -0.6851
 1057TIP3    H124586   5.950   5.736   1.411  2.3476  1.8192  0.4983
 1057TIP3    H224587   6.039   5.647   1.326  2.9128  1.8784  1.0255
 1058TIP3   OH224588   0.029   2.456  11.160  0.4216  0.7464  0.2412
 1058TIP3    H124589   0.061   2.442  11.071 -0.6047  0.5980 -0.1172
 1058TIP3    H224590   0.091   2.410  11.216  0.9299  0.6232 -0.4143
 1059TIP3   OH224591   3.944   3.823   3.742 -0.0983 -0.2644  0.1978
 1059TIP3    H124592   4.035   3.841   3.766 -0.6352  0.7862  1.5721
 1059TIP3    H224593   3.930   3.732   3.769  0.5718 -0.4954 -0.1889
 1060TIP3   OH224594   4.122   0.852   1.372  0.1690  0.0284  0.0346
 1060TIP3    H124595   4.096   0.797   1.298  1.0587  1.7734 -1.6489
 1060TIP3    H224596   4.045   0.908   1.388 -1.4961 -2.7259  2.9881
 1061TIP3   OH224597   5.709   4.857   6.056 -0.0110 -0.2588  0.4688
 1061TIP3    H124598   5.692   4.884   5.966 -0.2763  1.3169  0.9649
 1061TIP3    H224599   5.661   4.775   6.066 -0.1077 -0.3656 -0.7725
 1062TIP3   OH224600   3.896   0.602  14.718  0.1711  0.3683  0.4370
 1062TIP3    H124601   3.820   0.645  14.680  0.4192 -0.4239 -1.0467
 1062TIP3    H224602   3.940   0.561  14.643  0.2453 -1.9699  1.6421
 1063TIP3   OH224603   5.619   1.524   3.178 -0.4938  0.2830 -0.0484
 1063TIP3    H124604   5.689   1.500   3.116 -0.3754  1.2635 -0.3010
 1063TIP3    H224605   5.657   1.505   3.264  0.0727  0.7723 -0.1853
 1064TIP3   OH224606   2.497   5.836  11.626 -0.4007 -0.4828 -0.0807
 1064TIP3    H124607   2.588   5.853  11.603 -0.2083 -0.7218  0.4823
 1064TIP3    H224608   2.447   5.865  11.550  0.1702 -0.6950 -0.5434
 1065TIP3   OH224609   4.570   1.014   2.799  0.6274  0.0854 -0.6504
 1065TIP3    H124610   4.588   1.108   2.793 -0.4340  0.3160 -0.3831
 1065TIP3    H224611   4.512   1.006   2.875  0.7058 -0.7910 -0.6799
 1066TIP3   OH224612   0.711   3.340  16.409  0.3034  0.4734 -0.1684
 1066TIP3    H124613   0.658   3.370  16.335 -0.3748 -2.0931 -0.8260
 1066TIP3    H224614   0.739   3.421  16.452 -1.8261  1.9966 -1.4143
 1067TIP3   OH224615   3.015   4.276   1.507 -0.7841  0.0148 -0.4812
 1067TIP3    H124616   2.965   4.282   1.588 -2.0823  1.7020 -1.3369
 1067TIP3    H224617   2.953   4.241   1.443  0.1354 -1.0067 -0.8414
 1068TIP3   OH224618   0.338   4.243  14.219  0.3780  0.3205  0.3884
 1068TIP3    H124619   0.353   4.337  14.210  1.3400  0.2300  0.8601
 1068TIP3    H224620   0.378   4.220  14.303  0.1476 -0.5087  0.2847
 1069TIP3   OH224621   1.479   2.976  15.196 -0.1470 -0.2104 -0.1056
 1069TIP3    H124622   1.393   2.980  15.154  0.5787 -0.7869 -1.7389
 1069TIP3    H224623   1.482   2.890  15.237  0.0763 -0.6603 -1.0484
 1070TIP3   OH224624   4.779   3.527   2.246  0.2065 -0.3779 -0.0298
 1070TIP3    H124625   4.831   3.496   2.171  0.4379 -2.8616  1.0478
 1070TIP3    H224626   4.841   3.577   2.299  1.0103 -1.5785  0.2151
 1071TIP3   OH224627   2.682   5.806   2.988 -0.7908  0.3134  0.3961
 1071TIP3    H124628   2.657   5.867   3.058 -1.4990 -0.4084  0.7988
 1071TIP3    H224629   2.623   5.827   2.916 -1.2764 -0.1169  0.6608
 1072TIP3   OH224630   5.275   0.279  15.862  0.0993 -0.1227  0.2636
 1072TIP3    H124631   5.202   0.327  15.824 -1.0823 -2.1131 -0.1414
 1072TIP3    H224632   5.350   0.300  15.806 -0.5161  0.7164 -0.2599
 1073TIP3   OH224633   3.268   5.541   0.568  0.1340 -0.1427 -0.0472
 1073TIP3    H124634   3.321   5.541   0.489  0.8522 -0.7332  0.4207
 1073TIP3    H224635   3.285   5.455   0.608  0.4148  0.4576  1.1662
 1074TIP3   OH224636   5.949   6.087  11.397  0.1654 -0.2173  0.2974
 1074TIP3    H124637   5.980   6.160  11.343  0.4554 -1.0390 -0.6699
 1074TIP3    H224638   6.027   6.034  11.412 -0.2541 -0.9258  0.0347
 1075TIP3   OH224639   6.510   0.424   0.973 -0.0250 -0.0342 -0.4811
 1075TIP3    H124640   6.450   0.444   0.901 -1.4044 -1.8294  0.0785
 1075TIP3    H224641   6.572   0.362   0.936  2.0609  2.3722 -1.2625
 1076TIP3   OH224642   0.809   4.807  12.347  0.0288 -0.1108  0.1500
 1076TIP3    H124643   0.822   4.801  12.252  2.1871 -1.3080  0.4576
 1076TIP3    H224644   0.855   4.887  12.372 -0.9616  0.4730  0.1555
 1077TIP3   OH224645   2.164   1.431   1.858 -0.0057 -0.2242  0.2038
 1077TIP3    H124646   2.103   1.372   1.814 -0.3092 -0.5468  1.0441
 1077TIP3    H224647   2.218   1.374   1.912  1.6379 -0.0546 -1.1544
 1078TIP3   OH224648   0.865   1.772  13.348  0.5891 -0.3607 -0.1927
 1078TIP3    H124649   0.801   1.734  13.408  1.6056  1.5354  2.2579
 1078TIP3    H224650   0.949   1.759  13.391  1.5070 -0.0380 -1.8320
 1079TIP3   OH224651   0.654   0.525  11.719  0.3031  0.6246  0.0989
 1079TIP3    H124652   0.653   0.449  11.778 -0.9624 -0.3238 -1.0935
 1079TIP3    H224653   0.715   0.586  11.761  2.1922 -1.4500  0.5563
 1080TIP3   OH224654   0.870   4.856  16.972  0.2680 -0.5131 -0.6987
 1080TIP3    H124655   0.840   4.795  17.040  1.4015  0.3634  0.6670
 1080TIP3    H224656   0.914   4.801  16.907  0.8580 -1.2165  0.2671
 1081TIP3   OH224657   3.938   1.135  14.790  0.0375  0.3020 -0.3621
 1081TIP3    H124658   4.002   1.086  14.841 -1.6104 -1.5995  0.0328
 1081TIP3    H224659   3.934   1.089  14.706  0.3950  1.4253 -1.0050
 1082TIP3   OH224660   4.217   1.544   3.103  0.0118 -0.4499 -0.0546
 1082TIP3    H124661   4.266   1.472   3.064 -2.2666 -0.8653 -2.4686
 1082TIP3    H224662   4.217   1.612   3.035 -1.5392  0.0501  0.4136
 1083TIP3   OH224663   3.615   2.020   2.820 -0.7223  0.0748  0.2091
 1083TIP3    H124664   3.557   2.047   2.890 -1.4947  0.0526 -0.4079
 1083TIP3    H224665   3.591   1.930   2.801 -0.0802 -0.1322  0.3445
 1084TIP3   OH224666   5.368   3.812  12.098  0.0522 -0.2261  0.5942
 1084TIP3    H124667   5.297   3.776  12.045  0.2730 -1.3409  1.0214
 1084TIP3    H224668   5.338   3.800  12.188  0.2435  0.4541  0.7488
 1085TIP3   OH224669   5.046   3.641  17.024 -0.5341  0.2599 -0.3158
 1085TIP3    H124670   4.984   3.714  17.014 -0.6989  0.0226 -1.0613
 1085TIP3    H224671   5.130   3.678  16.999 -0.5197  0.3523 -0.1296
 1086TIP3   OH224672   2.327   3.706   1.234  0.2772  0.2901 -0.0083
 1086TIP3    H124673   2.323   3.644   1.161 -0.7557 -0.6123  0.7921
 1086TIP3    H224674   2.405   3.759   1.215  0.0063  0.1260 -1.7841
 1087TIP3   OH224675   0.839   3.554   6.007  0.7698  0.4923 -0.0384
 1087TIP3    H124676   0.810   3.472   5.965  0.1906  1.0543 -0.7708
 1087TIP3    H224677   0.899   3.526   6.075 -0.9754 -0.6985  1.0987
 1088TIP3   OH224678   1.448   6.128   0.816  0.1262  0.4158  0.2374
 1088TIP3    H124679   1.446   6.215   0.856 -0.4869  0.5040  0.0254
 1088TIP3    H224680   1.510   6.079   0.870 -0.1732  0.7351  0.8854
 1089TIP3   OH224681   1.578   6.226  11.627  0.0779 -0.5445 -0.1202
 1089TIP3    H124682   1.512   6.256  11.565  0.3116  0.1533 -0.0474
 1089TIP3    H224683   1.643   6.297  11.628  0.9169 -1.2929 -0.3276
 1090TIP3   OH224684   4.054   0.935   3.457 -0.1438 -0.1355 -0.0781
 1090TIP3    H124685   4.026   0.926   3.366  0.3858 -0.6993 -0.1978
 1090TIP3    H224686   4.109   0.858   3.472 -0.4958 -0.2202  0.8206
 1091TIP3   OH224687   4.766   5.192   0.099 -0.1084 -0.1015  0.2130
 1091TIP3    H124688   4.805   5.125   0.156 -2.3941 -0.4206  1.5373
 1091TIP3    H224689   4.774   5.156   0.011  2.8524  0.0543  0.3463
 1092TIP3   OH224690   5.965   2.563   1.936 -0.1469 -0.2424  0.3965
 1092TIP3    H124691   6.010   2.502   1.878 -2.7675 -0.9509 -1.0540
 1092TIP3    H224692   5.961   2.518   2.021  0.1943 -0.9680  0.0347
 1093TIP3   OH224693   2.992   4.593  17.277 -0.0424 -0.2772  1.0291
 1093TIP3    H124694   2.987   4.517  17.219 -0.7899  0.1615  0.4925
 1093TIP3    H224695   3.012   4.666  17.219 -0.5972  0.1386  1.3534
 1094TIP3   OH224696   2.703   3.897  14.055 -0.0477 -0.0371 -0.0996
 1094TIP3    H124697   2.679   3.988  14.036  3.2343  0.9019 -0.3900
 1094TIP3    H224698   2.721   3.858  13.970 -0.3059 -0.6079  0.1049
 1095TIP3   OH224699   4.136   0.535   2.958 -0.3695 -0.0102  0.1057
 1095TIP3    H124700   4.056   0.496   2.992  0.7408 -2.2154  0.3805
 1095TIP3    H224701   4.143   0.502   2.868 -0.1196  0.7549 -0.1701
 1096TIP3   OH224702   1.770   6.491  17.018 -0.5765 -0.2430  0.2234
 1096TIP3    H124703   1.788   6.575  17.060  2.6002 -0.2844 -0.7926
 1096TIP3    H224704   1.689   6.461  17.059 -0.1589  1.8360  2.8699
 1097TIP3   OH224705   3.108   2.205   2.502 -0.0166  0.1157 -0.1914
 1097TIP3    H124706   3.146   2.119   2.483  0.3234  0.1137  0.4777
 1097TIP3    H224707   3.123   2.218   2.595  0.0194  0.9430 -0.3004
 1098TIP3   OH224708   6.128   4.306  15.434 -0.2307 -0.6650  0.2858
 1098TIP3    H124709   6.111   4.386  15.484 -1.2030 -0.8733  0.3100
 1098TIP3    H224710   6.217   4.317  15.401 -0.4153  0.5096  0.1293
 1099TIP3   OH224711   1.876   4.154  16.632 -0.6712  0.0550  0.3912
 1099TIP3    H124712   1.893   4.093  16.704 -1.9653 -0.7894  0.0101
 1099TIP3    H224713   1.822   4.105  16.571 -0.4987  1.1163 -0.6456
 1100TIP3   OH224714   1.810   4.435  15.878 -0.4153 -0.5662  0.1255
 1100TIP3    H124715   1.787   4.342  15.875  0.8331 -0.8686 -1.7243
 1100TIP3    H224716   1.748   4.477  15.818  0.5810 -0.6373 -1.0052
 1101TIP3   OH224717   6.556   0.799   0.792  0.1750  0.3277 -0.3496
 1101TIP3    H124718   6.467   0.813   0.826  0.3002  1.1492 -0.3451
 1101TIP3    H224719   6.612   0.848   0.851  0.5860  0.2045 -0.6344
 1102TIP3   OH224720   6.067   2.194  13.812  0.1555 -0.2810 -0.7813
 1102TIP3    H124721   6.137   2.201  13.748 -0.0171 -0.7927 -1.0309
 1102TIP3    H224722   6.112   2.193  13.897  0.6911 -3.1386 -0.9995
 1103TIP3   OH224723   1.804   0.283  12.253 -0.0871 -0.1451  0.4372
 1103TIP3    H124724   1.781   0.319  12.339 -1.5855  1.2212 -0.4678
 1103TIP3    H224725   1.757   0.199  12.249 -0.2261 -0.0902  0.8571
 1104TIP3   OH224726   5.611   2.247   5.951  0.1922  0.4130  0.4764
 1104TIP3    H124727   5.661   2.185   5.897  1.6842  2.5210 -0.7137
 1104TIP3    H224728   5.573   2.193   6.020 -1.9018 -2.4972 -2.5877
 1105TIP3   OH224729   1.135   0.864   0.567  0.1869 -0.1526 -0.0531
 1105TIP3    H124730   1.094   0.814   0.496 -0.1458 -0.0499  0.0645
 1105TIP3    H224731   1.063   0.884   0.626  0.5080 -0.4709  0.4524
 1106TIP3   OH224732   1.115   4.506   5.789 -0.4178 -0.4698  0.0955
 1106TIP3    H124733   1.112   4.482   5.696 -1.0787  0.8055 -0.2316
 1106TIP3    H224734   1.153   4.429   5.832  1.2251 -0.5599 -1.4003
 1107TIP3   OH224735   3.435   2.085   3.031 -0.0878  0.1557 -0.1884
 1107TIP3    H124736   3.339   2.090   3.029 -0.1431  0.2553  1.6664
 1107TIP3    H224737   3.458   2.084   3.124  1.7467  0.5557 -0.5939
 1108TIP3   OH224738   0.350   0.299   2.554 -0.7061 -0.1836  0.6895
 1108TIP3    H124739   0.434   0.292   2.599  0.5918  1.4553 -1.2979
 1108TIP3    H224740   0.355   0.233   2.484 -0.7547  0.4244  0.1081
 1109TIP3   OH224741   4.157   1.253   0.401  0.2158  0.2424 -0.0943
 1109TIP3    H124742   4.109   1.309   0.340  0.3906 -2.4368 -2.9722
 1109TIP3    H224743   4.246   1.251   0.368  0.3520 -1.1825  0.2692
 1110TIP3   OH224744   0.646   4.226  15.760  0.2751 -0.0147 -0.0234
 1110TIP3    H124745   0.580   4.157  15.773  1.3751 -1.3112 -1.0174
 1110TIP3    H224746   0.725   4.178  15.736  0.8504  1.6359 -1.6028
 1111TIP3   OH224747   4.626   6.678  10.984 -0.3335 -0.4461  0.1691
 1111TIP3    H124748   4.633   6.750  10.920  1.3013 -0.3645  0.3844
 1111TIP3    H224749   4.708   6.683  11.033 -1.5997 -0.4366  2.3863
 1112TIP3   OH224750   4.759   3.717  11.528 -0.7071  0.1080  0.3718
 1112TIP3    H124751   4.843   3.719  11.573  0.3688 -0.0216 -1.5102
 1112TIP3    H224752   4.758   3.634  11.481 -1.4314  0.5367 -0.4239
 1113TIP3   OH224753   4.448   3.711   0.015 -0.0598 -0.1616 -0.2131
 1113TIP3    H124754   4.394   3.765   0.072 -0.7104 -1.4932  0.4714
 1113TIP3    H224755   4.401   3.709  -0.068 -0.5292 -0.4763  0.0612
 1114TIP3   OH224756   4.498   0.363  12.690  0.5746 -0.0007  0.1664
 1114TIP3    H124757   4.533   0.414  12.618  1.0255  0.3977  0.6591
 1114TIP3    H224758   4.547   0.393  12.767 -0.0721 -0.2249  0.6800
 1115TIP3   OH224759   3.588   0.347   2.625  0.3093  0.1975  0.2761
 1115TIP3    H124760   3.542   0.404   2.563 -1.0068 -0.3604  0.7019
 1115TIP3    H224761   3.678   0.380   2.626 -0.0920  1.3810 -0.5218
 1116TIP3   OH224762   1.553   2.601   3.477  0.0880  0.1101  0.6641
 1116TIP3    H124763   1.643   2.573   3.462  0.5479  0.2265  2.8108
 1116TIP3    H224764   1.562   2.683   3.526 -1.2004  0.6464  0.0414
 1117TIP3   OH224765   5.675   6.594   4.458  0.3165 -0.0057  0.1325
 1117TIP3    H124766   5.588   6.584   4.420  0.2445 -0.9630  0.5426
 1117TIP3    H224767   5.714   6.666   4.408 -0.5928  0.2353 -0.2522
 1118TIP3   OH224768   5.605   0.166  11.108 -0.0302  0.1747 -0.1813
 1118TIP3    H124769   5.558   0.163  11.024  0.8840 -0.7466 -0.6907
 1118TIP3    H224770   5.694   0.193  11.085  0.5520 -1.2044  0.2931
 1119TIP3   OH224771   4.914   6.465  14.904  0.5649  0.1509 -0.0514
 1119TIP3    H124772   4.861   6.531  14.949  0.0014  0.5880 -1.3125
 1119TIP3    H224773   4.960   6.419  14.975 -1.1035  0.0845  1.0438
 1120TIP3   OH224774   0.361   3.773   5.070  0.4247 -0.1736 -0.3517
 1120TIP3    H124775   0.400   3.815   4.993  1.3023  0.4080  0.4015
 1120TIP3    H224776   0.429   3.776   5.137 -0.2345 -0.9237  0.3797
 1121TIP3   OH224777   6.280   3.137   0.692 -0.0442  0.3810  0.1701
 1121TIP3    H124778   6.256   3.053   0.730 -1.7418  1.0166  0.6484
 1121TIP3    H224779   6.229   3.201   0.743  0.7310  1.6293 -0.5665
 1122TIP3   OH224780   2.586   0.301  11.613  0.4083  0.1793 -0.2749
 1122TIP3    H124781   2.560   0.213  11.638 -0.9569 -0.0894 -2.3976
 1122TIP3    H224782   2.677   0.293  11.587  1.2061  0.0516  2.2640
 1123TIP3   OH224783   0.228   0.385   3.843  0.1894 -0.2315  0.3380
 1123TIP3    H124784   0.201   0.429   3.923  1.2600 -0.3617  0.7860
 1123TIP3    H224785   0.153   0.331   3.819  0.0615 -0.6437  1.5858
 1124TIP3   OH224786   2.633   2.243  13.354  0.2212  0.1417 -0.0331
 1124TIP3    H124787   2.617   2.282  13.440 -0.4240  0.1844 -0.1668
 1124TIP3    H224788   2.554   2.263  13.304  0.7403  0.4152 -0.7454
 1125TIP3   OH224789   2.160   0.090   0.461  0.3622 -0.6660 -0.4233
 1125TIP3    H124790   2.179   0.077   0.368 -0.8727  2.2344 -1.2262
 1125TIP3    H224791   2.184   0.182   0.477 -0.8314 -0.6626  1.7182
 1126TIP3   OH224792   6.364   4.265  13.515  0.5654 -0.1015 -0.2662
 1126TIP3    H124793   6.366   4.306  13.429  0.1130  0.5333  0.0115
 1126TIP3    H224794   6.344   4.173  13.498  2.8972 -0.5253 -0.9995
 1127TIP3   OH224795   5.343   6.737   3.907  0.1730 -0.3362  0.2249
 1127TIP3    H124796   5.408   6.691   3.960 -1.3767 -2.2567  0.5676
 1127TIP3    H224797   5.271   6.755   3.968  0.6130  2.4656  0.0637
 1128TIP3   OH224798   3.414   0.543   5.319 -0.4163 -0.4726  0.0944
 1128TIP3    H124799   3.432   0.559   5.412 -0.2011 -0.3175  0.0292
 1128TIP3    H224800   3.379   0.627   5.288 -3.9636 -1.5092  0.8298
 1129TIP3   OH224801   3.510   6.563   3.880 -0.2702 -0.5885 -1.1354
 1129TIP3    H124802   3.517   6.487   3.938  0.5322  0.1364 -0.2376
 1129TIP3    H224803   3.567   6.541   3.806  1.3173 -0.2157 -0.0925
 1130TIP3   OH224804   1.097   5.849   3.443  0.1577  0.0360 -0.2492
 1130TIP3    H124805   1.067   5.850   3.533  2.1340  0.8109  0.4560
 1130TIP3    H224806   1.102   5.756   3.420  0.7357 -0.2271  0.8568
 1131TIP3   OH224807   2.392   6.164  12.179  0.0518 -0.1551  0.1084
 1131TIP3    H124808   2.453   6.238  12.182 -0.7383  0.5622 -0.9167
 1131TIP3    H224809   2.438   6.094  12.226  1.9329  0.1575 -1.1278
 1132TIP3   OH224810   6.726   5.435  13.604  0.1127 -0.1917 -0.5576
 1132TIP3    H124811   6.738   5.364  13.541  0.2019 -1.0110  0.3690
 1132TIP3    H224812   6.739   5.515  13.552 -0.0948 -0.8351 -1.6349
 1133TIP3   OH224813   6.555   5.628   2.318  0.4735 -0.0253  0.1208
 1133TIP3    H124814   6.614   5.647   2.391  0.5296  0.6281 -0.0847
 1133TIP3    H224815   6.602   5.564   2.265  0.2292 -0.8743  0.8999
 1134TIP3   OH224816   1.053   3.868  10.661  0.5201  0.2830 -0.2042
 1134TIP3    H124817   1.008   3.803  10.607 -1.4015  1.2065  0.1669
 1134TIP3    H224818   0.983   3.907  10.713  2.3230 -1.0837  3.6008
 1135TIP3   OH224819   1.866   2.698   3.317 -0.2713 -0.1865  0.2409
 1135TIP3    H124820   1.960   2.682   3.330  0.1033  2.0310  0.5560
 1135TIP3    H224821   1.839   2.744   3.397 -1.7871 -1.3163  0.4115
 1136TIP3   OH224822   1.758   2.182  15.971  0.3914  0.4751  0.4221
 1136TIP3    H124823   1.772   2.087  15.972  1.1397  0.5451 -0.9663
 1136TIP3    H224824   1.846   2.219  15.979  0.2860  1.0154 -0.7019
 1137TIP3   OH224825   2.462   1.699  16.302  0.2825  0.6045  0.0881
 1137TIP3    H124826   2.476   1.622  16.246 -2.5139  0.3548 -0.4152
 1137TIP3    H224827   2.499   1.772  16.252 -0.9028  0.1813 -1.4829
 1138TIP3   OH224828   3.861   3.626   0.367  0.2757  0.4998 -0.2051
 1138TIP3    H124829   3.837   3.626   0.274  1.0309  1.7623 -0.4319
 1138TIP3    H224830   3.804   3.692   0.407  0.2768  0.2964  0.1354
 1139TIP3   OH224831   4.889   6.351   2.065 -0.0029 -0.2426  0.7274
 1139TIP3    H124832   4.899   6.258   2.082 -0.3221 -0.7114 -1.3764
 1139TIP3    H224833   4.964   6.373   2.009 -0.3425  0.5980  0.5841
 1140TIP3   OH224834   4.276   3.753   4.826  0.0811  0.0335  0.1097
 1140TIP3    H124835   4.259   3.813   4.899  0.3462 -1.6501  1.6401
 1140TIP3    H224836   4.190   3.718   4.804  0.0285  0.3967 -0.2794
 1141TIP3   OH224837   2.944   2.367  17.007  0.3322  0.2136  0.2631
 1141TIP3    H124838   2.889   2.409  17.073  0.3818  0.6655  0.0206
 1141TIP3    H224839   2.898   2.286  16.984 -0.7200  1.0339 -0.6208
 1142TIP3   OH224840   0.187   4.154   5.196  0.0570 -0.3789  0.3128
 1142TIP3    H124841   0.177   4.062   5.219 -1.4454 -0.1565  0.6430
 1142TIP3    H224842   0.282   4.169   5.200  0.1994 -1.4314  2.1513
 1143TIP3   OH224843   4.045   6.373  11.542 -0.5032 -0.1457 -0.0087
 1143TIP3    H124844   4.099   6.444  11.508 -1.2249  2.8027  4.1665
 1143TIP3    H224845   4.108   6.308  11.574  0.2712 -0.0082 -1.1870
 1144TIP3   OH224846   2.352   4.559   1.778 -0.0171 -0.5235  0.3884
 1144TIP3    H124847   2.359   4.511   1.695  2.8685  0.1804  0.1153
 1144TIP3    H224848   2.442   4.579   1.802 -0.8304  0.1731  3.2293
 1145TIP3   OH224849   4.911   6.647  13.493 -0.0587 -0.9681  0.3881
 1145TIP3    H124850   4.839   6.701  13.461  2.1080  1.3200 -1.0124
 1145TIP3    H224851   4.890   6.559  13.464 -1.6471 -0.1509 -1.1200
 1146TIP3   OH224852   1.385   6.187   0.522  0.0147  0.7865  0.6528
 1146TIP3    H124853   1.369   6.138   0.603  1.7862 -0.7832  0.1034
 1146TIP3    H224854   1.303   6.181   0.474 -0.3733 -0.0891  1.4006
 1147TIP3   OH224855   2.785   4.430  14.015 -0.3005 -0.1185 -0.0795
 1147TIP3    H124856   2.780   4.376  13.936 -0.7257  0.2123 -0.2800
 1147TIP3    H224857   2.704   4.413  14.062  0.3830 -1.0796  0.7977
 1148TIP3   OH224858   2.506   2.717   3.460 -0.1269  0.0460  0.2107
 1148TIP3    H124859   2.461   2.787   3.413 -0.2976  0.1807  0.5781
 1148TIP3    H224860   2.436   2.657   3.486 -0.2886  1.0060  2.0942
 1149TIP3   OH224861   5.348   2.510   1.453 -0.2762  0.2819 -0.1353
 1149TIP3    H124862   5.377   2.426   1.419  1.2077  0.3831  0.7896
 1149TIP3    H224863   5.280   2.488   1.517  0.5525 -0.2791  0.5678
 1150TIP3   OH224864   6.506   1.085   0.234  0.3942  0.2399  0.3767
 1150TIP3    H124865   6.419   1.088   0.195  0.8196 -0.1091 -0.6295
 1150TIP3    H224866   6.511   0.999   0.276 -0.1628  0.7217  1.4692
 1151TIP3   OH224867   5.292   2.218  16.871 -0.4486  0.0723  0.3882
 1151TIP3    H124868   5.206   2.181  16.891 -1.2743  1.8001  0.2391
 1151TIP3    H224869   5.320   2.172  16.792 -0.2565 -1.9662  1.5605
 1152TIP3   OH224870   6.253   1.158   4.150  0.7592 -0.0473 -0.2546
 1152TIP3    H124871   6.161   1.130   4.153  0.5111  0.5121 -1.8986
 1152TIP3    H224872   6.290   1.125   4.232 -1.3772  1.4574  1.4403
 1153TIP3   OH224873   1.283   0.271   3.627 -0.2221 -0.0930  0.7322
 1153TIP3    H124874   1.238   0.221   3.695  0.7132 -1.7686  0.1784
 1153TIP3    H224875   1.351   0.212   3.595  1.6060  1.9009  0.7001
 1154TIP3   OH224876   5.542   3.144   0.017  0.0696 -0.2754  0.0822
 1154TIP3    H124877   5.576   3.056   0.035  1.7874  0.7144  2.0725
 1154TIP3    H224878   5.451   3.140   0.043 -0.5184 -1.9965 -1.8864
 1155TIP3   OH224879   2.734   3.560  11.683  0.0687 -0.5833 -0.1558
 1155TIP3    H124880   2.801   3.592  11.743  1.9365 -1.9063 -1.4484
 1155TIP3    H224881   2.655   3.554  11.737  0.6645  1.9515  1.1649
 1156TIP3   OH224882   5.255   2.471  12.039  0.2380  0.1073 -0.1938
 1156TIP3    H124883   5.201   2.442  11.966 -0.0768  0.4305 -0.0959
 1156TIP3    H224884   5.338   2.426  12.028  0.0690 -0.1164 -0.5514
 1157TIP3   OH224885   1.146   1.080  13.884  0.3935 -0.7433  0.1873
 1157TIP3    H124886   1.212   1.137  13.845 -1.2753 -0.3169 -2.2209
 1157TIP3    H224887   1.072   1.138  13.903  0.1602 -1.4421  1.5974
 1158TIP3   OH224888   0.872   4.654   3.619  0.2904 -0.8182 -0.6864
 1158TIP3    H124889   0.843   4.709   3.693  0.5770 -1.8405  0.2145
 1158TIP3    H224890   0.792   4.609   3.591  0.3802 -1.2377 -0.2846
 1159TIP3   OH224891   2.794   1.603   2.368  0.2912  0.0835 -0.1488
 1159TIP3    H124892   2.744   1.625   2.290  1.4928  0.5660 -0.8102
 1159TIP3    H224893   2.772   1.512   2.387 -1.0786  0.3833 -0.2132
 1160TIP3   OH224894   2.040   2.363  15.451  0.1911 -0.2315 -0.4604
 1160TIP3    H124895   2.031   2.404  15.365  0.0368 -1.6028 -1.1327
 1160TIP3    H224896   1.950   2.345  15.479  0.2850 -2.7391 -1.5400
 1161TIP3   OH224897   1.362   6.561   0.440 -0.3756  0.8152  0.3488
 1161TIP3    H124898   1.315   6.644   0.437  1.0212  1.6572 -3.4589
 1161TIP3    H224899   1.452   6.584   0.417  0.6519 -1.4999  1.6577
 1162TIP3   OH224900   3.445   0.454  11.880 -0.1983  0.4808 -0.3620
 1162TIP3    H124901   3.488   0.465  11.795 -1.3820 -0.2450 -1.0674
 1162TIP3    H224902   3.366   0.404  11.862 -0.6674  0.6249  1.1193
 1163TIP3   OH224903   2.600   4.454   2.229  0.1944  0.2180 -0.2879
 1163TIP3    H124904   2.631   4.364   2.216  1.5303  0.5805  0.1679
 1163TIP3    H224905   2.572   4.457   2.321  1.4236  0.5970  0.0937
 1164TIP3   OH224906   1.096   2.988   3.623  0.1932 -0.2288  0.2738
 1164TIP3    H124907   1.048   2.957   3.700  1.3692 -0.6424  0.8721
 1164TIP3    H224908   1.136   2.909   3.587 -0.8853 -0.1457 -1.1813
 1165TIP3   OH224909   0.476   0.426  13.379 -0.0732  0.1172  0.3069
 1165TIP3    H124910   0.567   0.415  13.352 -0.5795 -0.1340 -1.4504
 1165TIP3    H224911   0.474   0.401  13.471  1.7386  0.7175  0.5513
 1166TIP3   OH224912   0.158   5.513   6.676  0.3059 -0.0408 -0.6405
 1166TIP3    H124913   0.142   5.599   6.636  0.3026  0.0809 -0.3819
 1166TIP3    H224914   0.143   5.527   6.770 -1.4734 -0.7488 -0.7788
 1167TIP3   OH224915   0.665   1.668   4.514  0.4460  0.1654  0.3550
 1167TIP3    H124916   0.748   1.715   4.503  0.3477  0.3040  0.1962
 1167TIP3    H224917   0.608   1.730   4.559  0.5244 -0.0387  0.7336
 1168TIP3   OH224918   2.758   5.753  14.288  0.4983  0.5886  0.0120
 1168TIP3    H124919   2.803   5.837  14.291 -1.0163  1.5468 -2.0123
 1168TIP3    H224920   2.794   5.709  14.212 -0.7390  0.6525 -0.6273
 1169TIP3   OH224921   6.553   1.547  15.028  0.6529  0.5740 -0.2995
 1169TIP3    H124922   6.506   1.504  15.100  1.7587  0.4030  0.3394
 1169TIP3    H224923   6.638   1.569  15.065  1.3271  0.2864 -1.6355
 1170TIP3   OH224924   4.932   5.227   3.541 -0.1192  0.2661  0.1468
 1170TIP3    H124925   4.876   5.262   3.471  0.6395  0.8107 -0.1967
 1170TIP3    H224926   4.921   5.288   3.613 -1.6261 -0.7875  0.8856
 1171TIP3   OH224927   1.725   6.265   3.204 -0.0916 -0.0229  0.6471
 1171TIP3    H124928   1.667   6.209   3.151 -1.7546 -0.8996  3.2065
 1171TIP3    H224929   1.807   6.216   3.208  0.7480  0.8880 -2.4347
 1172TIP3   OH224930   0.316   0.963   6.169  0.0216 -0.2618  0.1626
 1172TIP3    H124931   0.338   1.040   6.115  0.0814  1.0441  1.9599
 1172TIP3    H224932   0.356   0.982   6.254 -1.5076 -1.4594  1.1892
 1173TIP3   OH224933   3.940   6.229   1.447 -0.2068  0.1854  0.4181
 1173TIP3    H124934   4.021   6.199   1.405 -1.0555  0.2449 -1.3685
 1173TIP3    H224935   3.951   6.323   1.457  0.1994  0.1007  0.7974
 1174TIP3   OH224936   2.396   3.713  10.502 -0.1734  0.4087 -0.4574
 1174TIP3    H124937   2.395   3.774  10.428 -0.8585  0.8985 -0.0543
 1174TIP3    H224938   2.488   3.705  10.526 -0.0280  0.8755 -0.8483
 1175TIP3   OH224939   2.625   2.954   0.396  0.0569 -0.3256  0.4412
 1175TIP3    H124940   2.635   2.927   0.487  2.2557 -0.1358  0.3014
 1175TIP3    H224941   2.628   2.872   0.347 -0.3613 -0.3639  0.4737
 1176TIP3   OH224942   0.051   4.406  13.171 -0.3044  0.4059  0.3047
 1176TIP3    H124943   0.092   4.460  13.103 -1.2326  1.0582  0.2417
 1176TIP3    H224944  -0.034   4.447  13.186 -1.6376 -1.8019 -0.6967
 1177TIP3   OH224945   2.135   4.876   4.035  0.0208 -0.5706 -0.3701
 1177TIP3    H124946   2.199   4.901   3.968  0.1814 -1.6975 -0.6701
 1177TIP3    H224947   2.062   4.936   4.023  0.3174 -0.3533 -1.1509
 1178TIP3   OH224948   6.550   6.681  11.902 -0.2265  0.4169  0.2505
 1178TIP3    H124949   6.538   6.766  11.860  0.6003 -0.5902 -2.2019
 1178TIP3    H224950   6.639   6.655  11.877 -1.1962 -2.0828 -0.9321
 1179TIP3   OH224951   5.349   1.360  13.916  0.5704 -0.1953  0.1608
 1179TIP3    H124952   5.305   1.370  13.831 -0.3833 -0.0148  0.6602
 1179TIP3    H224953   5.420   1.423  13.914 -0.5326  1.0901  0.1837
 1180TIP3   OH224954   2.655   4.037  15.284  0.0944 -0.1122 -0.3973
 1180TIP3    H124955   2.671   4.116  15.232 -0.8085  0.0185 -0.4965
 1180TIP3    H224956   2.560   4.034  15.295  0.2114 -0.5176  0.6641
 1181TIP3   OH224957   1.792   3.100   0.607  0.1070 -0.1155  0.4342
 1181TIP3    H124958   1.871   3.046   0.600  0.6299  0.5082  1.2049
 1181TIP3    H224959   1.729   3.045   0.653  0.1155 -0.5966 -0.1227
 1182TIP3   OH224960   1.078   6.084  16.170 -0.5055 -0.0554  0.1578
 1182TIP3    H124961   1.162   6.057  16.205 -1.5730 -1.1912  2.0027
 1182TIP3    H224962   1.014   6.024  16.210 -2.3522  1.6493 -0.0425
 1183TIP3   OH224963   4.566   6.629   1.681 -0.1792  0.0918 -0.0504
 1183TIP3    H124964   4.612   6.693   1.626 -1.0360  1.1206  0.4199
 1183TIP3    H224965   4.612   6.632   1.764 -0.2509  0.1308 -0.0123
 1184TIP3   OH224966   3.833   3.168  10.773 -0.3130 -0.4235  0.3903
 1184TIP3    H124967   3.926   3.182  10.785 -0.4540 -1.1880  2.8723
 1184TIP3    H224968   3.797   3.255  10.755  0.7953 -0.0594 -0.1340
 1185TIP3   OH224969   5.441   2.157   0.889 -0.3886 -0.3309 -0.3980
 1185TIP3    H124970   5.532   2.169   0.917  0.1311  0.4036 -2.2568
 1185TIP3    H224971   5.437   2.200   0.803 -2.1433 -1.5334 -0.9609
 1186TIP3   OH224972   6.480   5.841   4.208 -0.3115  0.1538 -0.2773
 1186TIP3    H124973   6.519   5.754   4.217 -0.3521 -0.0818 -1.9993
 1186TIP3    H224974   6.391   5.825   4.178 -0.8613  0.7677  0.9807
 1187TIP3   OH224975   4.534   1.722  11.081  0.3921 -0.4771  0.2339
 1187TIP3    H124976   4.570   1.784  11.144  1.7196 -0.7535 -0.2246
 1187TIP3    H224977   4.560   1.757  10.995 -1.8067  0.1637 -0.2374
 1188TIP3   OH224978   2.111   2.651   4.973 -0.5619  0.3938 -0.4654
 1188TIP3    H124979   2.176   2.607   4.919 -0.0106  0.1192  0.3953
 1188TIP3    H224980   2.041   2.675   4.912  0.8707  1.7879 -1.6594
 1189TIP3   OH224981   3.199   5.394  17.252 -0.1251  0.0475  0.2386
 1189TIP3    H124982   3.163   5.324  17.306 -0.9481 -0.0588 -0.4364
 1189TIP3    H224983   3.183   5.474  17.302 -0.2315 -0.1241  0.4787
 1190TIP3   OH224984   2.194   5.523  10.796 -0.0036  0.1475 -1.0769
 1190TIP3    H124985   2.130   5.595  10.797 -1.4124 -1.0363 -1.9674
 1190TIP3    H224986   2.244   5.537  10.715  1.7612  1.7602  0.2070
 1191TIP3   OH224987   4.616   2.290  16.509  0.3969  0.4472  0.5125
 1191TIP3    H124988   4.650   2.340  16.583  1.9971 -1.2153  0.9842
 1191TIP3    H224989   4.526   2.320  16.499  0.3363  1.1922  2.7141
 1192TIP3   OH224990   1.740   3.085  16.689 -0.0282  0.0224  0.4137
 1192TIP3    H124991   1.800   3.024  16.646 -0.9896 -0.0649 -0.8388
 1192TIP3    H224992   1.717   3.041  16.771  1.1540 -0.1912  0.6627
 1193TIP3   OH224993   5.240   6.149  11.729 -0.7008  0.3984  0.5662
 1193TIP3    H124994   5.247   6.245  11.729  2.3348  0.3228 -1.3045
 1193TIP3    H224995   5.227   6.126  11.820 -1.1564  2.5502  1.1166
 1194TIP3   OH224996   0.564   1.527   1.740  0.1526 -0.1469 -0.2570
 1194TIP3    H124997   0.495   1.466   1.712  0.3511 -0.6794  0.3985
 1194TIP3    H224998   0.546   1.607   1.691 -1.1150 -0.1822  0.1062
 1195TIP3   OH224999   1.255   3.694  17.082  0.5503  0.0580 -0.0069
 1195TIP3    H125000   1.295   3.607  17.073  0.4745  0.1763 -1.7944
 1195TIP3    H225001   1.224   3.715  16.995  3.3342  3.2394 -0.4442
 1196TIP3   OH225002   1.921   4.530  12.483 -0.3709  0.2905 -0.3040
 1196TIP3    H125003   1.939   4.573  12.399  1.1217  0.9840  0.3505
 1196TIP3    H225004   1.845   4.576  12.518  0.2275  1.3247 -0.3520
 1197TIP3   OH225005   0.451   1.101  12.536  0.8102  0.0898 -0.1579
 1197TIP3    H125006   0.418   1.179  12.491 -0.6836 -0.1011  0.5610
 1197TIP3    H225007   0.536   1.085  12.496  1.1296  2.0458 -0.3789
 1198TIP3   OH225008   6.033   1.329  15.897 -0.0247  0.2549 -0.2455
 1198TIP3    H125009   6.117   1.373  15.906 -0.6763  2.6877 -3.8494
 1198TIP3    H225010   6.051   1.254  15.841  0.2570 -1.5076  2.0580
 1199TIP3   OH225011   2.104   2.467  14.812 -0.5674  0.7635 -0.6371
 1199TIP3    H125012   2.071   2.394  14.865  0.3129  0.6158 -0.2632
 1199TIP3    H225013   2.199   2.451  14.807 -0.4201  1.6813 -0.8664
 1200TIP3   OH225014   4.159   5.098   0.799  0.0825 -0.2905 -0.1266
 1200TIP3    H125015   4.092   5.166   0.807  0.8694  0.4396  0.4188
 1200TIP3    H225016   4.207   5.102   0.882  1.8961  0.3736 -1.1624
 1201TIP3   OH225017   5.675   1.223   0.198 -0.0741 -0.2967 -0.1338
 1201TIP3    H125018   5.609   1.236   0.266  0.5599 -0.5347  0.5376
 1201TIP3    H225019   5.753   1.266   0.231  0.3419 -0.7077 -0.5584
 1202TIP3   OH225020   2.129   3.290  13.343  0.5921 -0.2669 -0.8725
 1202TIP3    H125021   2.170   3.280  13.429 -1.3970  1.2596  0.3394
 1202TIP3    H225022   2.089   3.205  13.325 -2.3600  0.4468  1.6526
 1203TIP3   OH225023   0.595   3.600  14.706  0.9459  0.1405 -0.4340
 1203TIP3    H125024   0.524   3.664  14.706  2.0492  1.4347 -1.1635
 1203TIP3    H225025   0.639   3.614  14.790  0.1873 -0.8641  0.1457
 1204TIP3   OH225026   5.985   4.105   6.250  0.0836  0.3952  0.2428
 1204TIP3    H125027   5.983   4.199   6.265 -2.4283  0.3031  1.0092
 1204TIP3    H225028   5.930   4.069   6.320 -1.0504 -1.4024 -1.4947
 1205TIP3   OH225029   1.796   0.352   0.622  0.4136  0.5676 -0.3591
 1205TIP3    H125030   1.851   0.333   0.699  3.5772  2.8010 -1.8423
 1205TIP3    H225031   1.741   0.274   0.612  2.1613 -1.1654  2.2646
 1206TIP3   OH225032   2.059   4.594  12.253 -0.4824 -0.3892  0.6598
 1206TIP3    H125033   2.115   4.659  12.295  1.0162 -1.4272  0.3519
 1206TIP3    H225034   2.072   4.607  12.159 -1.2393 -0.2511  0.5684
 1207TIP3   OH225035   3.370   1.262  15.930 -0.1423  0.1461  0.0542
 1207TIP3    H125036   3.377   1.341  15.983  0.2891  0.5887 -0.6329
 1207TIP3    H225037   3.330   1.292  15.848  0.4484 -0.2463 -0.3924
 1208TIP3   OH225038   1.226   6.462  13.066  0.0154 -0.4871 -0.1129
 1208TIP3    H125039   1.186   6.379  13.038 -3.0281  0.6814  0.4422
 1208TIP3    H225040   1.305   6.469  13.012  0.2191 -3.5370 -0.4277
 1209TIP3   OH225041   3.738   5.287  14.524  0.0547 -0.2313 -0.6849
 1209TIP3    H125042   3.762   5.373  14.558 -0.8189 -0.8386  1.6835
 1209TIP3    H225043   3.673   5.305  14.456 -1.3453  0.9706  0.8862
 1210TIP3   OH225044   5.244   2.242   5.105 -0.4033  0.5882  0.3686
 1210TIP3    H125045   5.339   2.248   5.108 -0.3098 -0.9892  1.3297
 1210TIP3    H225046   5.214   2.298   5.177 -0.2633  1.7346 -0.4408
 1211TIP3   OH225047   4.582   0.599   0.663  0.0943  0.0815 -0.0953
 1211TIP3    H125048   4.603   0.598   0.756 -0.6669 -1.9088  0.0987
 1211TIP3    H225049   4.555   0.509   0.643 -1.6036  0.9051 -1.8149
 1212TIP3   OH225050   1.754   3.089   3.856  0.1228 -0.0445 -0.2536
 1212TIP3    H125051   1.710   3.098   3.941 -0.3567  0.8297 -0.5806
 1212TIP3    H225052   1.830   3.034   3.874 -1.6645 -2.5674  0.1156
 1213TIP3   OH225053   5.698   6.682  13.232  0.5726 -0.4685  0.4575
 1213TIP3    H125054   5.648   6.608  13.267 -0.9740 -0.0681 -0.8025
 1213TIP3    H225055   5.701   6.745  13.304 -0.6739 -0.5498  0.5998
 1214TIP3   OH225056   5.687   5.792  16.850  0.1059 -0.1524  0.2854
 1214TIP3    H125057   5.764   5.830  16.809  0.0634 -1.5907 -1.2533
 1214TIP3    H225058   5.617   5.855  16.834  0.3173 -0.2225 -1.0049
 1215TIP3   OH225059   0.323   5.693   2.218 -0.4278 -0.5310 -0.3785
 1215TIP3    H125060   0.365   5.739   2.291 -2.4784  0.6386  0.1308
 1215TIP3    H225061   0.390   5.631   2.188  1.5413  1.0319  0.5286
 1216TIP3   OH225062   5.085   3.479   1.347  0.0539  0.0983  0.2256
 1216TIP3    H125063   5.154   3.433   1.394  0.2524 -0.6231 -0.7429
 1216TIP3    H225064   5.007   3.426   1.361  0.2578 -0.4890 -0.7968
 1217TIP3   OH225065   5.822   1.355  13.375  0.0050 -0.5439  0.3934
 1217TIP3    H125066   5.916   1.374  13.369 -0.0879 -0.2414 -0.1620
 1217TIP3    H225067   5.780   1.427  13.328 -0.5949  0.0805  1.8504
 1218TIP3   OH225068   4.837   5.484  10.934  0.2137 -0.5150  0.2491
 1218TIP3    H125069   4.769   5.439  10.884  0.7547 -1.5456  0.4169
 1218TIP3    H225070   4.897   5.518  10.867 -0.1831 -0.0438  0.1237
 1219TIP3   OH225071   0.172   2.250  12.152  0.2264 -0.0878 -0.2366
 1219TIP3    H125072   0.138   2.179  12.207 -0.3548 -0.9024 -1.5940
 1219TIP3    H225073   0.150   2.330  12.200  1.5817 -0.7842  1.7211
 1220TIP3   OH225074   1.273   0.451  17.050 -0.2959 -0.6503 -0.3692
 1220TIP3    H125075   1.352   0.462  16.997 -0.3404 -0.8462 -0.4743
 1220TIP3    H225076   1.304   0.416  17.134 -0.2734 -0.7307 -0.4121
 1221TIP3   OH225077   2.099   3.787  16.036  0.1534  0.0687 -0.1785
 1221TIP3    H125078   2.112   3.719  16.101 -1.8826  1.0997  1.4229
 1221TIP3    H225079   2.019   3.761  15.989  1.4933 -0.5745 -2.2281
 1222TIP3   OH225080   1.909   2.645   4.754 -0.0041 -0.3629  0.4876
 1222TIP3    H125081   1.940   2.612   4.670 -1.4534 -0.6813  0.0592
 1222TIP3    H225082   1.877   2.567   4.800  0.6132 -0.1672  1.2713
 1223TIP3   OH225083   1.795   3.106  14.084 -0.3290  0.6310 -0.3051
 1223TIP3    H125084   1.831   3.157  14.157 -0.3702  1.4141 -0.8164
 1223TIP3    H225085   1.740   3.168  14.037  1.1465  0.6821 -2.0769
 1224TIP3   OH225086   4.927   1.734   4.277 -0.3111  0.0834  0.6148
 1224TIP3    H125087   4.852   1.716   4.334 -0.9606  1.5562  0.2774
 1224TIP3    H225088   4.994   1.767   4.337 -1.3662  2.7081  0.4963
 1225TIP3   OH225089   4.361   0.177  16.684  0.0999 -0.0721 -0.1893
 1225TIP3    H125090   4.329   0.090  16.659 -0.7951  0.4456 -0.9302
 1225TIP3    H225091   4.414   0.204  16.609 -0.3130  0.3518 -0.3346
 1226TIP3   OH225092   4.355   5.158   5.341  0.1817  0.1274 -0.3067
 1226TIP3    H125093   4.440   5.172   5.297 -0.2006  0.2954 -1.0086
 1226TIP3    H225094   4.376   5.099   5.414  0.7224 -0.7534 -1.1371
 1227TIP3   OH225095   0.637   4.697  14.392  0.2898 -0.1051  0.1667
 1227TIP3    H125096   0.675   4.730  14.311 -0.6448  0.5747 -0.0079
 1227TIP3    H225097   0.636   4.772  14.452 -2.5852  0.5293 -0.4982
 1228TIP3   OH225098   2.557   1.240   0.953 -0.1959  0.3909 -0.3812
 1228TIP3    H125099   2.633   1.213   1.004  0.5054 -1.5993 -2.3066
 1228TIP3    H225100   2.593   1.295   0.883 -0.8151  1.0523 -0.1950
 1229TIP3   OH225101   5.789   3.062   3.957  0.7106  0.3867  0.0245
 1229TIP3    H125102   5.843   3.047   3.880  1.0331  1.4266  0.0273
 1229TIP3    H225103   5.707   3.015   3.940  0.8431  0.4779 -0.8735
 1230TIP3   OH225104   5.276   3.624   1.795 -0.4906  0.5670 -0.0822
 1230TIP3    H125105   5.329   3.547   1.774  1.1671  1.4166  0.7924
 1230TIP3    H225106   5.274   3.626   1.890 -1.0176  1.2838 -0.1059
 1231TIP3   OH225107   3.262   1.522  11.930  0.5176 -0.4157 -0.9535
 1231TIP3    H125108   3.267   1.574  11.849  0.7995 -0.3223 -0.8790
 1231TIP3    H225109   3.335   1.555  11.984  1.6435 -1.8999 -1.4955
 1232TIP3   OH225110   5.437   1.584  15.340  0.3596  0.4657  0.1106
 1232TIP3    H125111   5.356   1.534  15.344  2.0868 -2.5480  0.7814
 1232TIP3    H225112   5.417   1.666  15.385 -2.3672 -0.0110 -0.0814
 1233TIP3   OH225113   2.163   4.715  16.271  0.2828 -0.1559  0.3819
 1233TIP3    H125114   2.071   4.716  16.245  0.3282  0.5352  0.2325
 1233TIP3    H225115   2.195   4.629  16.242 -0.1488 -0.1404 -0.1475
 1234TIP3   OH225116   2.171   6.100  17.007  0.3287  0.3002  0.7182
 1234TIP3    H125117   2.110   6.121  17.077 -1.4089  4.7282 -1.7226
 1234TIP3    H225118   2.130   6.027  16.960 -2.0919  1.7245  0.4416
 1235TIP3   OH225119   0.464   2.041  12.751  0.5635 -0.4394  0.5144
 1235TIP3    H125120   0.499   1.980  12.817 -0.2120  1.0654  2.3912
 1235TIP3    H225121   0.490   2.127  12.782  1.4181  0.2672 -1.9690
 1236TIP3   OH225122   1.179   2.077  14.238  0.1504 -0.2405  0.2871
 1236TIP3    H125123   1.251   2.015  14.224  1.7802  1.7414 -0.6530
 1236TIP3    H225124   1.219   2.150  14.286 -1.2991  0.8024 -0.0107
 1237TIP3   OH225125   0.882   4.208  12.562 -0.2867 -0.0144 -0.6850
 1237TIP3    H125126   0.937   4.136  12.592 -1.9698 -0.4950  1.4149
 1237TIP3    H225127   0.818   4.167  12.504 -2.3139 -0.6057  1.8379
 1238TIP3   OH225128   5.061   1.049  12.968  0.0197 -0.2276  0.2780
 1238TIP3    H125129   5.022   1.011  12.890 -0.2442  0.6090 -0.0108
 1238TIP3    H225130   5.034   1.141  12.966  1.6002  0.2689  0.3252
 1239TIP3   OH225131   2.057   0.648  11.588 -0.3437  0.0515  0.3480
 1239TIP3    H125132   1.967   0.682  11.588 -0.0674  0.8233 -0.4555
 1239TIP3    H225133   2.052   0.568  11.641 -1.5093  0.0621  0.2953
 1240TIP3   OH225134   5.744   5.185  13.714 -0.1385  0.2411 -0.2549
 1240TIP3    H125135   5.824   5.231  13.740  0.6163 -1.8815  1.4398
 1240TIP3    H225136   5.698   5.169  13.796  0.0889 -2.7442 -0.6061
 1241TIP3   OH225137   0.780   2.125   1.587  0.3084  0.0606  0.2771
 1241TIP3    H125138   0.701   2.179   1.585  0.5009  0.4165  1.4499
 1241TIP3    H225139   0.747   2.035   1.595  0.0145  0.1729  0.3501
 1242TIP3   OH225140   2.242   3.206   4.446  0.4902 -0.0969  0.2926
 1242TIP3    H125141   2.308   3.264   4.408  0.7720 -0.6971 -0.1704
 1242TIP3    H225142   2.167   3.213   4.387  0.2041  0.4513  0.7199
 1243TIP3   OH225143   1.484   1.079   5.511  0.2964  0.0763 -0.7577
 1243TIP3    H125144   1.469   1.173   5.519 -0.1740 -0.0783  0.2718
 1243TIP3    H225145   1.568   1.064   5.554 -0.4409 -0.2072  0.6344
 1244TIP3   OH225146   5.928   4.680   2.105  0.0051 -0.3560  0.0533
 1244TIP3    H125147   5.934   4.771   2.136 -1.2131 -0.4542  0.6616
 1244TIP3    H225148   5.949   4.685   2.012 -1.0987  0.7465 -0.1714
 1245TIP3   OH225149   3.737   2.089  12.609 -0.5455  0.3387  0.2922
 1245TIP3    H125150   3.798   2.045  12.668 -1.7761 -3.4206 -0.9732
 1245TIP3    H225151   3.793   2.141  12.552  0.9679  1.0632  2.2924
 1246TIP3   OH225152   3.246   5.668   4.598 -0.2378  0.4064 -0.4323
 1246TIP3    H125153   3.283   5.756   4.605  0.8671  0.2839 -3.3412
 1246TIP3    H225154   3.305   5.613   4.649 -0.2345  1.1384  0.3880
 1247TIP3   OH225155   3.874   0.690  13.864 -0.7734  0.2144 -0.8209
 1247TIP3    H125156   3.885   0.717  13.773 -0.7285  0.8330 -0.6347
 1247TIP3    H225157   3.908   0.601  13.867  1.3979  0.9716 -0.9252
 1248TIP3   OH225158   3.749   5.385  16.672  0.0573  0.2055 -0.7441
 1248TIP3    H125159   3.825   5.442  16.680  0.2191  0.2032 -2.0443
 1248TIP3    H225160   3.770   5.309  16.727  0.4222  0.7761 -0.0765
 1249TIP3   OH225161   5.038   1.938  14.077 -0.4393 -0.5646 -0.5439
 1249TIP3    H125162   5.055   1.939  14.171 -1.1695  2.9302 -0.3485
 1249TIP3    H225163   5.122   1.912  14.038  0.4749 -0.0563  0.9961
 1250TIP3   OH225164   1.043   3.667  16.085  0.5327 -0.0050 -0.0298
 1250TIP3    H125165   1.119   3.687  16.140  0.5859  1.6923 -0.6468
 1250TIP3    H225166   1.074   3.686  15.996  0.0277 -1.3734 -0.5117
 1251TIP3   OH225167   0.949   2.229  17.075 -0.3658 -0.5490  0.1476
 1251TIP3    H125168   0.979   2.140  17.052  2.3501  0.8062 -2.3052
 1251TIP3    H225169   0.885   2.250  17.007 -0.8747 -0.5293  0.6256
 1252TIP3   OH225170   5.942   3.848   4.903  0.0439  0.5087  0.0940
 1252TIP3    H125171   6.033   3.823   4.886 -0.3554  0.8105 -3.1597
 1252TIP3    H225172   5.946   3.908   4.977  2.1216 -1.6366  1.8528
 1253TIP3   OH225173   0.991   2.023  11.846 -0.1101  0.2938  0.1394
 1253TIP3    H125174   0.988   1.927  11.845 -0.2203  0.1179  3.6202
 1253TIP3    H225175   1.064   2.045  11.788  0.1987 -1.9147 -0.4105
 1254TIP3   OH225176   4.593   3.363   5.885  0.5015 -0.0572 -0.2621
 1254TIP3    H125177   4.688   3.376   5.882  0.4075  1.0998  0.8527
 1254TIP3    H225178   4.580   3.271   5.863  1.9659 -0.4916  0.5554
 1255TIP3   OH225179   0.724   0.488  15.890  0.8986  0.5699 -0.1730
 1255TIP3    H125180   0.659   0.433  15.935 -0.0756  1.5924 -0.2803
 1255TIP3    H225181   0.745   0.439  15.811  0.4088  0.1233 -0.0380
 1256TIP3   OH225182   6.760   1.113  15.869  0.1465  0.6552 -0.0701
 1256TIP3    H125183   6.675   1.083  15.838  0.4557 -1.7625  1.1523
 1256TIP3    H225184   6.820   1.094  15.796  0.2383 -1.3842  0.4734
 1257TIP3   OH225185   3.407   3.487  11.948 -0.3490 -0.0651 -0.6185
 1257TIP3    H125186   3.453   3.476  12.031 -0.2705  0.7638 -0.5440
 1257TIP3    H225187   3.412   3.401  11.906  2.3789  0.2643 -1.1860
 1258TIP3   OH225188   4.426   6.563  15.882  0.0675 -0.1671  0.0288
 1258TIP3    H125189   4.490   6.590  15.948 -0.4921 -0.7458  0.8235
 1258TIP3    H225190   4.344   6.554  15.930 -0.5222  0.1395 -0.8999
 1259TIP3   OH225191   2.200   2.397  13.100  0.1216  0.0286 -0.5580
 1259TIP3    H125192   2.151   2.368  13.177  3.2752 -0.5910  1.3926
 1259TIP3    H225193   2.145   2.464  13.061 -2.4075 -0.8620  1.1932
 1260TIP3   OH225194   0.426   4.188   0.142 -0.1209  0.0860 -1.2253
 1260TIP3    H125195   0.449   4.250   0.073 -1.7396 -0.4040 -2.2447
 1260TIP3    H225196   0.330   4.188   0.143 -0.1409  0.0421  1.0065
 1261TIP3   OH225197   4.666   2.801  16.900  0.3517 -0.0562 -0.8640
 1261TIP3    H125198   4.726   2.833  16.832 -0.4219  0.3389 -1.3764
 1261TIP3    H225199   4.589   2.773  16.851  0.4967 -1.5093 -0.3122
 1262TIP3   OH225200   2.347   2.723  15.629 -0.5379  0.0971  0.2528
 1262TIP3    H125201   2.318   2.664  15.559  0.6076 -0.3999  0.1718
 1262TIP3    H225202   2.395   2.667  15.690  1.6655  1.0863 -0.4544
 1263TIP3   OH225203   5.000   4.798   1.232 -0.0633 -0.1785 -0.1509
 1263TIP3    H125204   4.977   4.865   1.167 -0.3969  1.7549  1.8157
 1263TIP3    H225205   4.916   4.765   1.264  0.0248  0.3883  0.7128
 1264TIP3   OH225206   0.854   0.755   0.184  0.2295  0.5563 -0.0151
 1264TIP3    H125207   0.809   0.788   0.262  0.8139 -0.9182  1.0029
 1264TIP3    H225208   0.784   0.726   0.127 -0.2067  1.5916 -0.0331
 1265TIP3   OH225209   5.179   1.758   6.286 -0.0124  0.1019  0.2562
 1265TIP3    H125210   5.224   1.743   6.370  0.4566 -0.1288 -0.0297
 1265TIP3    H225211   5.176   1.672   6.245 -0.6297  0.1403  0.2242
 1266TIP3   OH225212   0.330   6.459  15.253  0.1624  0.1745 -0.5744
 1266TIP3    H125213   0.363   6.390  15.311 -1.5582 -1.3918 -1.3538
 1266TIP3    H225214   0.292   6.411  15.179  0.1632  2.0387 -1.8312
 1267TIP3   OH225215   4.314   3.253   5.768 -0.2729 -0.0320 -0.3401
 1267TIP3    H125216   4.395   3.203   5.783 -0.0576  0.4823  0.2312
 1267TIP3    H225217   4.339   3.344   5.782 -1.0579  0.0932  0.2656
 1268TIP3   OH225218   5.841   6.038   3.079  0.6749  0.3151  0.0314
 1268TIP3    H125219   5.782   5.965   3.100 -1.5531  1.9853 -0.1221
 1268TIP3    H225220   5.794   6.089   3.013  2.3024  1.7705 -0.0814
 1269TIP3   OH225221   5.517   3.243  15.648 -0.3818 -0.5679 -0.3116
 1269TIP3    H125222   5.567   3.297  15.588  1.1323 -1.3127  0.2362
 1269TIP3    H225223   5.553   3.263  15.735  0.9088 -3.0810 -0.1635
 1270TIP3   OH225224   5.850   4.922   2.226 -0.6315 -0.2079  0.4526
 1270TIP3    H125225   5.883   4.877   2.304 -0.9589  0.5331  1.0347
 1270TIP3    H225226   5.816   5.005   2.259 -0.5308  0.2370 -0.5228
 1271TIP3   OH225227   0.953   1.037   1.292 -0.5928 -0.2075 -0.3814
 1271TIP3    H125228   1.004   0.961   1.319 -0.5353  0.3510  1.1705
 1271TIP3    H225229   1.001   1.072   1.216  0.0940 -0.9646 -0.3101
 1272TIP3   OH225230   5.281   5.767  11.634  0.1130  0.3978 -0.7060
 1272TIP3    H125231   5.356   5.713  11.608 -0.7928 -0.3895 -1.8018
 1272TIP3    H225232   5.277   5.836  11.568  0.5986  1.1977  0.0691
 1273TIP3   OH225233   4.960   3.792  13.665  0.5139 -0.2773 -0.0202
 1273TIP3    H125234   4.967   3.743  13.747 -0.6993  1.1016  0.9557
 1273TIP3    H225235   5.050   3.817  13.644  0.7577 -0.0222  1.2868
 1274TIP3   OH225236   1.312   4.506   2.470 -0.3936  0.1946  0.4647
 1274TIP3    H125237   1.276   4.419   2.453 -1.7464  0.8096  0.0961
 1274TIP3    H225238   1.245   4.567   2.440  1.1062  1.4084 -0.6030
 1275TIP3   OH225239   3.356   0.762   6.244  0.1611 -0.0752  0.7273
 1275TIP3    H125240   3.282   0.719   6.286  0.2702 -1.2307 -0.2178
 1275TIP3    H225241   3.408   0.795   6.318 -0.1911 -1.1291  1.4827
 1276TIP3   OH225242   6.033   5.669  11.140  0.1037 -0.1881  0.5428
 1276TIP3    H125243   5.980   5.652  11.219 -0.3698  0.3060  0.3395
 1276TIP3    H225244   6.070   5.584  11.118 -0.2725 -0.4624  0.9357
 1277TIP3   OH225245   5.020   3.155  14.217 -0.1275  0.2898 -0.3459
 1277TIP3    H125246   5.038   3.157  14.312  0.7707  0.1120 -0.5038
 1277TIP3    H225247   4.979   3.070  14.202 -0.1315  0.2544 -0.1417
 1278TIP3   OH225248   6.047   0.123  13.598  0.2971  0.0314 -0.3961
 1278TIP3    H125249   6.121   0.063  13.588 -0.8875 -1.8433  1.3077
 1278TIP3    H225250   6.010   0.130  13.510  1.5294 -0.3029 -0.9640
 1279TIP3   OH225251   3.892   0.756  10.444 -0.8574  0.2077  0.0480
 1279TIP3    H125252   3.811   0.804  10.463 -1.2045  0.1979 -1.3223
 1279TIP3    H225253   3.938   0.811  10.381  0.1710  0.1543  0.7231
 1280TIP3   OH225254   3.766   0.515   5.824 -0.3129 -0.4525  0.3271
 1280TIP3    H125255   3.799   0.547   5.908 -0.7945 -0.7846  0.6492
 1280TIP3    H225256   3.807   0.572   5.759  1.2969 -1.1584  0.6604
 1281TIP3   OH225257   2.569   2.570   5.526  0.2878  0.0047  0.9888
 1281TIP3    H125258   2.543   2.631   5.594  1.5764  0.8425  0.7487
 1281TIP3    H225259   2.633   2.617   5.474  0.4541 -1.1541  0.1002
 1282TIP3   OH225260   5.372   5.257   2.066  0.0988 -0.2770  0.0771
 1282TIP3    H125261   5.307   5.208   2.117  0.1365 -0.8312 -0.3975
 1282TIP3    H225262   5.433   5.291   2.131 -0.7751  0.4337  0.5601
 1283TIP3   OH225263   0.667   1.546   3.167  0.7038  0.2833 -0.0901
 1283TIP3    H125264   0.596   1.602   3.137  0.7835 -0.1221 -1.1113
 1283TIP3    H225265   0.743   1.575   3.117  0.8789 -0.3335 -0.1941
 1284TIP3   OH225266   2.947   2.102   3.360  0.2532  0.7067 -0.5374
 1284TIP3    H125267   3.025   2.062   3.399 -0.9750  1.8503  3.5171
 1284TIP3    H225268   2.983   2.165   3.296  2.6180  0.4919  0.4669
 1285TIP3   OH225269   0.934   3.560  13.963  0.3127  0.2615 -0.7701
 1285TIP3    H125270   0.912   3.512  14.042  1.7737 -3.5287 -2.3966
 1285TIP3    H225271   0.914   3.651  13.983 -0.6138 -0.6685  3.4214
 1286TIP3   OH225272   5.509   3.727   3.273  0.0357 -0.3754 -0.1152
 1286TIP3    H125273   5.541   3.690   3.190 -0.9065 -0.6096 -0.3817
 1286TIP3    H225274   5.462   3.655   3.315 -2.7279  0.7058 -1.1206
 1287TIP3   OH225275   0.251   0.234   4.248  0.4661  0.3697  0.2191
 1287TIP3    H125276   0.239   0.231   4.153 -2.0176 -0.1244  0.4813
 1287TIP3    H225277   0.294   0.151   4.269  0.8232  0.3783 -0.4321
 1288TIP3   OH225278   0.041   5.103   3.763 -0.1123 -0.5640 -0.0086
 1288TIP3    H125279   0.090   5.183   3.781 -0.2720 -0.4930  0.1129
 1288TIP3    H225280   0.090   5.060   3.693  0.3770 -0.7204  0.4232
 1289TIP3   OH225281   1.622   2.234  12.878  0.0685  0.1275  0.8729
 1289TIP3    H125282   1.623   2.328  12.856  1.1967  0.1302  0.8632
 1289TIP3    H225283   1.530   2.211  12.878 -0.1549  0.3809 -2.8138
 1290TIP3   OH225284   6.318   6.629   4.536 -0.5173  0.1091 -0.5082
 1290TIP3    H125285   6.251   6.593   4.477 -0.4734  0.7008 -0.9341
 1290TIP3    H225286   6.276   6.706   4.575 -0.1004  0.4503 -0.7329
 1291TIP3   OH225287   0.187   4.308  12.133 -0.0797  0.0001  0.6357
 1291TIP3    H125288   0.201   4.384  12.075 -0.5306 -0.8507 -0.6295
 1291TIP3    H225289   0.136   4.343  12.206  1.8808  1.4587  1.4009
 1292TIP3   OH225290   3.612   6.668   0.193 -0.4156  0.6080  0.1420
 1292TIP3    H125291   3.650   6.675   0.280 -1.2442  2.4862  0.3981
 1292TIP3    H225292   3.581   6.577   0.188  2.9136 -0.6542  0.3408
 1293TIP3   OH225293   6.392   5.061   4.355 -0.0856 -0.1093 -0.4591
 1293TIP3    H125294   6.301   5.044   4.380 -0.4488  2.8178  0.5465
 1293TIP3    H225295   6.434   5.092   4.435  1.0343  1.2139 -1.5120
 1294TIP3   OH225296   6.625   2.303   3.864 -0.7164 -0.2085 -0.3585
 1294TIP3    H125297   6.655   2.232   3.921 -3.1386  0.1699  1.5536
 1294TIP3    H225298   6.618   2.379   3.922  1.4200  1.5820 -2.2721
 1295TIP3   OH225299   3.281   6.229  13.206  0.0075  0.4100  0.1611
 1295TIP3    H125300   3.313   6.252  13.293  0.1309 -0.5275  0.3840
 1295TIP3    H225301   3.270   6.312  13.161 -0.5243  0.9344  1.2307
 1296TIP3   OH225302   3.290   4.409  14.743  0.3734 -0.0970 -0.3433
 1296TIP3    H125303   3.355   4.426  14.675  0.2175  0.0009 -0.4694
 1296TIP3    H225304   3.224   4.354  14.701 -1.7818  3.0491 -1.5194
 1297TIP3   OH225305   4.938   3.153  13.592  0.0293 -0.3253 -0.4007
 1297TIP3    H125306   4.862   3.112  13.551 -0.8938 -0.5288  1.4287
 1297TIP3    H225307   4.999   3.167  13.520 -1.6439 -0.3500 -1.8896
 1298TIP3   OH225308   1.193   2.346  16.513 -0.2532  0.0015  0.2442
 1298TIP3    H125309   1.258   2.399  16.559  1.7622 -2.6551  0.7122
 1298TIP3    H225310   1.242   2.269  16.482 -2.3160 -0.1660 -3.1293
 1299TIP3   OH225311   5.334   6.725  11.210 -0.5923 -0.2878 -0.3298
 1299TIP3    H125312   5.337   6.780  11.132 -0.8535  1.0059  0.5240
 1299TIP3    H225313   5.359   6.638  11.180 -3.1783 -0.4330 -2.3259
 1300TIP3   OH225314   6.306   5.908  16.173 -0.4952  0.2157 -0.1422
 1300TIP3    H125315   6.295   5.993  16.131 -0.2516  0.1630 -0.3086
 1300TIP3    H225316   6.381   5.868  16.129 -1.1642 -0.4691 -0.6956
 1301TIP3   OH225317   4.466   3.408   3.931 -0.2970  0.3568 -0.2975
 1301TIP3    H125318   4.535   3.345   3.907 -1.2144 -1.2405  1.0372
 1301TIP3    H225319   4.396   3.391   3.868 -0.6501 -0.1726  0.2279
 1302TIP3   OH225320   2.325   3.794   1.599 -0.4652 -0.2718 -0.7587
 1302TIP3    H125321   2.317   3.712   1.647 -2.2560  0.7983  0.9003
 1302TIP3    H225322   2.381   3.772   1.524  0.8782 -2.4590  0.7680
 1303TIP3   OH225323   3.166   3.449   0.501  0.7147  0.9786 -0.1634
 1303TIP3    H125324   3.214   3.439   0.584  0.9814  0.3721 -0.3808
 1303TIP3    H225325   3.075   3.431   0.524  0.8429  0.4223 -0.0686
 1304TIP3   OH225326   5.183   0.405  16.700 -0.0375 -0.4801 -0.2973
 1304TIP3    H125327   5.222   0.328  16.742 -0.1770  0.6999  2.2037
 1304TIP3    H225328   5.175   0.381  16.608  0.1733 -3.3361  0.3334
 1305TIP3   OH225329   1.874   3.668  15.924  0.2666  0.4409 -1.1314
 1305TIP3    H125330   1.800   3.713  15.964  0.7669  2.0703 -1.9274
 1305TIP3    H225331   1.837   3.586  15.890 -0.7513  0.3608  0.0854
 1306TIP3   OH225332   1.107   1.488  12.012 -0.0578 -0.3172 -0.2197
 1306TIP3    H125333   1.168   1.487  12.086  0.0550  0.3942 -0.2878
 1306TIP3    H225334   1.044   1.557  12.035 -1.3335 -1.5650  0.2229
 1307TIP3   OH225335   0.455   4.847  12.523 -0.5523 -0.0723 -0.5466
 1307TIP3    H125336   0.526   4.784  12.517 -0.4519  0.0168 -0.3092
 1307TIP3    H225337   0.482   4.908  12.592 -0.2899  0.6944 -1.3048
 1308TIP3   OH225338   5.281   6.355   5.831 -0.6572  0.3150 -0.3433
 1308TIP3    H125339   5.276   6.421   5.762  0.8071  1.5701  0.6712
 1308TIP3    H225340   5.231   6.392   5.904 -0.8479 -0.2611 -0.1722
 1309TIP3   OH225341   4.326   2.050   2.548 -0.3738 -0.1313 -0.1987
 1309TIP3    H125342   4.240   2.019   2.578 -0.5127  0.5031  0.0876
 1309TIP3    H225343   4.317   2.146   2.546  0.0508 -0.1002 -1.0241
 1310TIP3   OH225344   1.725   0.778  15.235 -0.1824  0.2026 -0.2419
 1310TIP3    H125345   1.782   0.713  15.194 -2.5110 -1.1461 -1.5691
 1310TIP3    H225346   1.658   0.797  15.169 -2.0760  0.6114  1.6607
 1311TIP3   OH225347   4.181   2.541  14.274  0.5134 -0.0694 -0.6338
 1311TIP3    H125348   4.129   2.611  14.313  0.6598  0.4057 -1.2545
 1311TIP3    H225349   4.201   2.482  14.346  0.0852  0.3456 -0.1665
 1312TIP3   OH225350   1.966   6.594   0.848 -0.3005 -0.1123 -0.1114
 1312TIP3    H125351   1.983   6.653   0.922 -1.2734 -0.1752  0.1798
 1312TIP3    H225352   1.937   6.651   0.778 -0.9101 -0.2021  0.0623
 1313TIP3   OH225353   1.369   6.356   3.514  0.3072  0.2730  0.1501
 1313TIP3    H125354   1.346   6.390   3.428 -0.5111  0.6621  0.5098
 1313TIP3    H225355   1.311   6.402   3.574  0.7698 -0.1000  0.8963
 1314TIP3   OH225356   0.057   1.100   5.664 -0.3521  0.1108 -0.4051
 1314TIP3    H125357   0.004   1.029   5.629 -1.1357  0.5053 -0.0461
 1314TIP3    H225358   0.060   1.165   5.594  3.1430 -1.5923 -2.0682
 1315TIP3   OH225359   4.227   1.325   1.101  0.4411 -0.2439 -0.5567
 1315TIP3    H125360   4.226   1.374   1.019 -1.5202  2.1900  0.8007
 1315TIP3    H225361   4.192   1.239   1.078  0.7170  0.0934 -2.3852
 1316TIP3   OH225362   2.189   1.019   1.410 -0.0967  0.1093 -0.0688
 1316TIP3    H125363   2.101   1.007   1.446 -0.0875  1.3469  0.4171
 1316TIP3    H225364   2.220   0.930   1.392 -2.1645 -0.3043 -2.0736
 1317TIP3   OH225365   4.899   6.596   2.223  0.1688  0.1878  0.0651
 1317TIP3    H125366   4.901   6.543   2.144  2.1041  1.1583 -0.6001
 1317TIP3    H225367   4.941   6.679   2.198 -2.3927  1.9542  1.1577
 1318TIP3   OH225368   0.575   1.956  17.268 -0.2425  0.3528 -0.4279
 1318TIP3    H125369   0.589   1.928  17.358 -2.0846 -0.9719 -0.5175
 1318TIP3    H225370   0.547   2.047  17.275  0.7802  0.6325  0.2227
 1319TIP3   OH225371   0.256   4.596  11.692  0.5456  0.3656 -0.1435
 1319TIP3    H125372   0.244   4.593  11.597 -0.1968 -1.7276 -0.0401
 1319TIP3    H225373   0.190   4.537  11.726  0.7015  1.1979  1.7190
 1320TIP3   OH225374   4.127   0.319  11.576  0.2281 -0.6333 -0.0503
 1320TIP3    H125375   4.180   0.308  11.497 -1.5793  0.3922 -1.5074
 1320TIP3    H225376   4.037   0.307  11.546 -0.7035  1.9956  1.3401
 1321TIP3   OH225377   1.357   6.046  16.275  0.1691 -0.4571  0.3602
 1321TIP3    H125378   1.346   6.133  16.315  0.5383 -0.3170  0.1599
 1321TIP3    H225379   1.428   6.057  16.212 -1.5639 -0.2194 -1.6536
 1322TIP3   OH225380   1.039   4.163   0.502  0.1490 -0.0483  0.3111
 1322TIP3    H125381   1.134   4.176   0.497  0.0706  0.3919 -0.1224
 1322TIP3    H225382   1.004   4.217   0.431 -0.3869 -0.6604  0.1006
 1323TIP3   OH225383   6.334   6.191  16.103  0.1616 -0.0671 -0.1709
 1323TIP3    H125384   6.255   6.243  16.086 -0.1117 -0.1239  0.8604
 1323TIP3    H225385   6.379   6.187  16.018 -0.9134  0.0038 -0.7587
 1324TIP3   OH225386   0.664   2.251  16.870 -0.3195 -0.4444 -0.2059
 1324TIP3    H125387   0.667   2.314  16.942  2.1647 -0.3734 -0.2770
 1324TIP3    H225388   0.632   2.170  16.910  0.4308 -0.2323  0.8613
 1325TIP3   OH225389   4.336   4.318   6.020 -0.3253  0.4174  0.4507
 1325TIP3    H125390   4.420   4.277   6.043 -0.6182  0.3279  1.4265
 1325TIP3    H225391   4.343   4.407   6.054 -0.5722  0.4557  0.4033
 1326TIP3   OH225392   0.863   3.350  13.486  0.0114 -0.0091 -0.2774
 1326TIP3    H125393   0.898   3.401  13.413  0.7973 -1.0886 -0.6819
 1326TIP3    H225394   0.919   3.372  13.560  1.0200 -1.0251 -0.7004
 1327TIP3   OH225395   2.493   3.769  12.391 -0.3492  0.0619  0.1947
 1327TIP3    H125396   2.560   3.745  12.455 -0.0630  0.7883  0.1801
 1327TIP3    H225397   2.487   3.865  12.398  1.6516  0.5158 -2.7520
 1328TIP3   OH225398   4.215   5.013   2.686 -0.1133 -0.2327  0.6372
 1328TIP3    H125399   4.298   5.048   2.718 -0.5266  1.4123  0.0469
 1328TIP3    H225400   4.158   5.013   2.763 -0.2527  0.9546  0.5618
 1329TIP3   OH225401   4.232   0.461   6.212  0.1652  0.2914  0.4737
 1329TIP3    H125402   4.206   0.505   6.293 -0.6528 -0.9884  0.9445
 1329TIP3    H225403   4.303   0.515   6.177 -0.2343  1.5029  1.4345
 1330TIP3   OH225404   2.310   1.541  16.670  0.3800 -0.2031  0.3878
 1330TIP3    H125405   2.320   1.577  16.582  1.6998 -0.3524  0.4589
 1330TIP3    H225406   2.297   1.617  16.726 -1.4863 -0.1618 -0.0298
 1331TIP3   OH225407   2.940   6.248   4.656 -0.8004 -0.4938 -0.3254
 1331TIP3    H125408   2.882   6.266   4.730  0.7803 -1.2143  1.1546
 1331TIP3    H225409   2.908   6.306   4.586 -1.5132  1.2230  1.3357
 1332TIP3   OH225410   4.965   3.474   2.051  0.1179 -0.1119  0.2938
 1332TIP3    H125411   4.996   3.555   2.011  0.2005  0.0708  0.7322
 1332TIP3    H225412   4.927   3.424   1.977  0.6537  0.0398 -0.0894
 1333TIP3   OH225413   2.459   2.547   0.852  0.1673 -0.1341 -0.1370
 1333TIP3    H125414   2.543   2.583   0.825  0.5774  0.1002  1.3702
 1333TIP3    H225415   2.472   2.452   0.850  0.0315 -0.1430 -1.1887
 1334TIP3   OH225416   1.152   1.707   1.072  0.3354 -0.4715  0.0139
 1334TIP3    H125417   1.135   1.787   1.022 -2.3755 -0.3061  1.0061
 1334TIP3    H225418   1.225   1.730   1.129 -0.3281  1.3239  0.2256
 1335TIP3   OH225419   6.052   6.029   1.557  0.3613  0.4611 -0.6390
 1335TIP3    H125420   6.141   6.050   1.528  0.5475  1.1498  0.3835
 1335TIP3    H225421   6.034   6.092   1.627 -0.8861  0.2398 -0.7456
 1336TIP3   OH225422   0.804   6.107   4.462 -0.1945 -0.2076  0.0622
 1336TIP3    H125423   0.771   6.034   4.514  3.2113 -3.2105 -1.5425
 1336TIP3    H225424   0.739   6.119   4.393 -1.4042 -0.9201  1.0455
 1337TIP3   OH225425   6.758   1.067   4.936  0.3698  0.0422 -0.1225
 1337TIP3    H125426   6.721   0.978   4.940  0.6172 -0.0934 -0.7442
 1337TIP3    H225427   6.773   1.082   4.843 -0.3044  1.0075 -0.0900
 1338TIP3   OH225428   0.582   2.330   2.870 -0.2746  0.6109  0.1772
 1338TIP3    H125429   0.620   2.255   2.915 -0.5702  1.3605  1.7699
 1338TIP3    H225430   0.490   2.308   2.861 -0.5276  1.0847  1.3880
 1339TIP3   OH225431   4.134   6.045   0.665  0.2206  0.7593  0.1798
 1339TIP3    H125432   4.179   6.009   0.742  0.1798  1.0646  0.3484
 1339TIP3    H225433   4.201   6.094   0.618  0.7459 -1.0494 -1.0547
 1340TIP3   OH225434   0.419   0.308   6.875 -0.1731  0.3880 -0.6532
 1340TIP3    H125435   0.484   0.345   6.814 -0.1175  1.5842  0.0824
 1340TIP3    H225436   0.471   0.274   6.947 -0.2406 -1.0098 -1.2279
 1341TIP3   OH225437   3.758   4.293  16.003  0.1364  0.9839 -0.9667
 1341TIP3    H125438   3.672   4.332  15.988 -0.7708 -1.5737 -3.2753
 1341TIP3    H225439   3.800   4.294  15.916  1.6760  0.4958 -0.2628
 1342TIP3   OH225440   1.437   4.191  15.864  0.4533 -0.0734 -0.2082
 1342TIP3    H125441   1.454   4.234  15.780 -1.7105  1.1849 -0.0859
 1342TIP3    H225442   1.432   4.263  15.927 -0.6081 -0.7332  0.4891
 1343TIP3   OH225443   5.964   5.152   6.718  0.0142 -0.7399 -0.2625
 1343TIP3    H125444   6.007   5.066   6.714  0.0769 -0.7934  1.1168
 1343TIP3    H225445   5.975   5.188   6.630  1.0310 -1.6440 -0.5328
 1344TIP3   OH225446   0.826   2.846  14.518  0.5243 -0.3878  0.0944
 1344TIP3    H125447   0.777   2.766  14.538  1.6649 -1.1271  0.0735
 1344TIP3    H225448   0.763   2.903  14.475 -0.1258 -1.5817 -0.5896
 1345TIP3   OH225449   1.593   3.763   5.765 -0.0222  0.2681  0.2315
 1345TIP3    H125450   1.554   3.738   5.681 -1.4020  1.1945  0.5798
 1345TIP3    H225451   1.668   3.704   5.774 -0.5764 -0.6854 -1.0591
 1346TIP3   OH225452   3.282   2.947   3.252  0.2888 -0.2320  0.0031
 1346TIP3    H125453   3.336   2.974   3.177  0.1708 -0.4711 -0.1679
 1346TIP3    H225454   3.339   2.890   3.304 -0.1346 -1.3509 -0.7342
 1347TIP3   OH225455   6.597   2.082   0.465  0.2105 -0.3344  0.0317
 1347TIP3    H125456   6.591   2.004   0.521  0.1385  0.3845  1.0554
 1347TIP3    H225457   6.689   2.109   0.470  0.0090  0.2864  0.6015
 1348TIP3   OH225458   1.573   0.571   2.208  0.3458 -0.0547 -0.3560
 1348TIP3    H125459   1.585   0.660   2.242  0.0329 -0.2249  0.2011
 1348TIP3    H225460   1.480   0.564   2.190 -0.0514 -1.0165  1.7487
 1349TIP3   OH225461   4.838   4.425   5.690  0.0848 -0.4963  0.0767
 1349TIP3    H125462   4.879   4.343   5.717 -0.2761 -0.7377 -0.0891
 1349TIP3    H225463   4.773   4.398   5.624 -1.0179 -0.2427  1.0284
 1350TIP3   OH225464   3.968   2.020  15.268 -0.2398 -0.2478  0.1910
 1350TIP3    H125465   4.049   2.063  15.241 -0.3756 -0.3017 -0.3057
 1350TIP3    H225466   3.986   1.926  15.258  0.0391 -0.3157  1.2248
 1351TIP3   OH225467   4.150   0.519   5.596 -0.2172  0.4277  0.2173
 1351TIP3    H125468   4.153   0.529   5.691  2.4121  0.6647  0.1824
 1351TIP3    H225469   4.209   0.587   5.563  0.9496 -1.2692 -1.3906
 1352TIP3   OH225470   2.618   2.131   0.172  0.8933  0.2441  0.1085
 1352TIP3    H125471   2.647   2.222   0.178  1.2396  0.1350  0.1541
 1352TIP3    H225472   2.647   2.102   0.085 -1.5670  0.9628 -1.0245
 1353TIP3   OH225473   4.667   3.131  15.349  0.3628  0.1111  0.2974
 1353TIP3    H125474   4.671   3.192  15.276  1.1861  0.0940  0.3147
 1353TIP3    H225475   4.670   3.186  15.427 -1.6156  0.2010  0.3547
 1354TIP3   OH225476   3.843   2.571  11.871 -0.5693 -0.4749 -0.4091
 1354TIP3    H125477   3.804   2.570  11.959 -0.0711  0.5180 -0.1655
 1354TIP3    H225478   3.822   2.657  11.836  2.5650  0.7494  0.3118
 1355TIP3   OH225479   1.905   6.132   4.243  0.1640  0.9770  0.5562
 1355TIP3    H125480   1.948   6.130   4.328  1.3540 -2.8304  0.0717
 1355TIP3    H225481   1.820   6.089   4.257  0.9777 -1.0661 -0.3175
 1356TIP3   OH225482   0.461   3.068  17.297  0.0776 -0.1724  0.0964
 1356TIP3    H125483   0.474   3.108  17.383 -1.7165 -0.0493  0.3514
 1356TIP3    H225484   0.455   2.974  17.315 -1.3073 -0.0714  0.2788
 1357TIP3   OH225485   6.084   6.580  17.102  0.0152  0.6918  0.1220
 1357TIP3    H125486   6.095   6.485  17.102  0.8680  0.7836  1.0509
 1357TIP3    H225487   6.159   6.614  17.150  0.6921  1.9735 -1.7296
 1358TIP3   OH225488   1.748   0.689  10.716 -0.2787  0.0054 -0.4603
 1358TIP3    H125489   1.764   0.632  10.640  1.0507  0.0614 -0.2376
 1358TIP3    H225490   1.833   0.695  10.760 -0.5772  1.5279 -0.0346
 1359TIP3   OH225491   5.808   1.500  12.989  0.3368  0.1946 -0.2405
 1359TIP3    H125492   5.759   1.442  12.931 -0.4751 -1.4841  1.9804
 1359TIP3    H225493   5.892   1.457  13.002  0.1583  0.0689  0.5488
 1360TIP3   OH225494   0.330   2.516  11.450 -0.2041  0.1219 -0.3818
 1360TIP3    H125495   0.290   2.454  11.388  0.4474 -1.5548  0.8050
 1360TIP3    H225496   0.385   2.462  11.506  3.0709  2.1871 -1.3155
 1361TIP3   OH225497   2.120   6.735   2.444 -0.6365 -0.5079  0.0987
 1361TIP3    H125498   2.100   6.643   2.434  1.5000 -0.8442 -1.9786
 1361TIP3    H225499   2.215   6.740   2.433 -0.8681  2.1160 -1.7294
 1362TIP3   OH225500   4.696   6.419   3.944 -0.5772  0.6924  0.3938
 1362TIP3    H125501   4.670   6.457   3.860 -0.8070  0.3786  0.3219
 1362TIP3    H225502   4.653   6.474   4.010 -1.8361 -0.1082  0.2675
 1363TIP3   OH225503   0.379   0.129   2.338  0.0047 -0.0210 -0.0016
 1363TIP3    H125504   0.336   0.054   2.296 -0.3647  0.1634  0.0420
 1363TIP3    H225505   0.470   0.125   2.307  0.2921 -1.1561  0.8957
 1364TIP3   OH225506   2.778   1.308   0.107 -0.5342  0.3061  0.1554
 1364TIP3    H125507   2.793   1.389   0.156  1.1292 -0.3823  0.8434
 1364TIP3    H225508   2.801   1.330   0.017  1.7637  0.1765  0.6372
 1365TIP3   OH225509   4.890   2.186  11.752 -0.1284 -0.6519 -0.0583
 1365TIP3    H125510   4.932   2.144  11.677  1.0755  0.4082 -0.0094
 1365TIP3    H225511   4.937   2.268  11.763 -0.3886 -0.7020  1.7591
 1366TIP3   OH225512   1.188   2.666   1.985 -0.4405 -0.4522 -0.2108
 1366TIP3    H125513   1.174   2.743   1.930 -0.2640  0.8823  1.5121
 1366TIP3    H225514   1.169   2.697   2.074  1.6460 -1.8123  0.7879
 1367TIP3   OH225515   5.472   4.705  13.468 -0.0748 -0.5791  0.4314
 1367TIP3    H125516   5.513   4.791  13.456 -1.7305  0.3170  0.9446
 1367TIP3    H225517   5.542   4.651  13.506  1.8422 -0.3041 -2.3761
 1368TIP3   OH225518   3.949   3.046   6.446  0.0931  0.2980 -0.2333
 1368TIP3    H125519   3.859   3.072   6.427 -0.2991 -1.7665 -1.5348
 1368TIP3    H225520   3.970   2.980   6.379  1.6622 -1.1504  1.5494
 1369TIP3   OH225521   3.641   0.441   3.986 -0.3168  0.2575 -0.0324
 1369TIP3    H125522   3.663   0.350   3.963 -0.8872 -0.0733  0.6694
 1369TIP3    H225523   3.691   0.458   4.066 -0.2782  0.5271 -0.1146
 1370TIP3   OH225524   5.549   0.224   4.902 -0.0852  0.1457  0.4418
 1370TIP3    H125525   5.529   0.288   4.834  0.6888  0.7177  0.7308
 1370TIP3    H225526   5.487   0.153   4.888 -0.4770  0.6327 -0.3425
 1371TIP3   OH225527   2.803   3.161  14.645  0.2434 -0.1976  0.1216
 1371TIP3    H125528   2.839   3.234  14.695 -0.9176  0.0719  0.5968
 1371TIP3    H225529   2.720   3.142  14.688  0.1241 -1.2239 -0.5455
 1372TIP3   OH225530   4.092   2.140   6.662  1.0656  0.0751  0.2122
 1372TIP3    H125531   4.180   2.177   6.657  0.7391  0.9085  0.4845
 1372TIP3    H225532   4.035   2.215   6.678  0.2033 -0.3333 -0.7850
 1373TIP3   OH225533   2.727   0.720  15.466  0.0184  0.0339  0.0232
 1373TIP3    H125534   2.741   0.808  15.500  1.1849 -0.0072 -0.3285
 1373TIP3    H225535   2.799   0.668  15.501  0.0800 -0.4731 -0.8171
 1374TIP3   OH225536   5.158   3.268   2.473 -0.1975 -0.0404 -0.3087
 1374TIP3    H125537   5.111   3.284   2.391 -0.5336  1.4101  0.1347
 1374TIP3    H225538   5.103   3.308   2.540  0.9671  0.4158  0.3982
 1375TIP3   OH225539   2.659   5.466  15.845  0.0146 -0.2157 -0.3708
 1375TIP3    H125540   2.610   5.428  15.772  2.5682  0.0750 -2.4200
 1375TIP3    H225541   2.627   5.556  15.851 -1.8192 -0.8802  0.4613
 1376TIP3   OH225542   5.917   5.543   0.554 -0.1858 -0.6691  0.0616
 1376TIP3    H125543   5.877   5.468   0.509  1.3837 -1.3570 -0.2648
 1376TIP3    H225544   5.917   5.613   0.488  0.3294 -1.0670 -0.3682
 1377TIP3   OH225545   4.086   3.117   4.742  0.2967  0.0060 -0.1096
 1377TIP3    H125546   4.059   3.027   4.760 -0.0932  0.2604  0.6067
 1377TIP3    H225547   4.051   3.136   4.655  0.2032 -0.4659 -0.1730
 1378TIP3   OH225548   5.789   4.062   3.101 -0.1668  0.2121 -0.1750
 1378TIP3    H125549   5.765   3.974   3.071  1.0390 -0.5832  1.0663
 1378TIP3    H225550   5.862   4.047   3.161 -0.0121  2.0702  0.1404
 1379TIP3   OH225551   3.054   5.482   0.276 -0.1696 -0.3806 -0.0385
 1379TIP3    H125552   3.055   5.558   0.335 -1.5818 -0.7223  0.4648
 1379TIP3    H225553   2.962   5.467   0.257  0.1727 -1.1596 -1.2217
 1380TIP3   OH225554   4.040   2.294   2.100  0.5481  0.0368 -0.6682
 1380TIP3    H125555   3.950   2.317   2.124  0.6274 -0.7647  0.5314
 1380TIP3    H225556   4.030   2.235   2.025  0.0699  0.0338 -0.6094
 1381TIP3   OH225557   0.529   0.876   4.660  0.5408  0.3417 -0.0450
 1381TIP3    H125558   0.562   0.869   4.570  0.0879  0.3967 -0.2224
 1381TIP3    H225559   0.453   0.934   4.652  0.2599  0.0287  0.3088
 1382TIP3   OH225560   1.115   1.675  12.948 -0.4254  0.2321 -0.2722
 1382TIP3    H125561   1.043   1.614  12.930  0.4571 -2.0669  2.9454
 1382TIP3    H225562   1.194   1.626  12.926  0.2728  0.7252  1.0353
 1383TIP3   OH225563   3.884   4.133   3.030 -0.3601 -0.1715 -0.2151
 1383TIP3    H125564   3.865   4.063   3.094  0.0520 -2.1894 -2.1719
 1383TIP3    H225565   3.978   4.149   3.041 -0.1890 -0.8527 -0.5866
 1384TIP3   OH225566   6.568   4.221  15.520 -0.7328 -0.0585  0.2616
 1384TIP3    H125567   6.573   4.161  15.446  0.0478  0.9123 -0.5051
 1384TIP3    H225568   6.536   4.168  15.593 -1.0385 -1.1481 -0.6483
 1385TIP3   OH225569   2.508   0.580   5.847  0.4016 -0.4335 -0.4240
 1385TIP3    H125570   2.419   0.545   5.841  0.2654 -0.1150 -0.3089
 1385TIP3    H225571   2.498   0.660   5.899  1.1636 -1.8178  2.0478
 1386TIP3   OH225572   3.484   1.365   0.572  0.2827 -0.9919 -0.1511
 1386TIP3    H125573   3.541   1.309   0.519  0.0801 -2.3294  0.9736
 1386TIP3    H225574   3.396   1.330   0.557 -0.0165 -0.1477 -0.4100
 1387TIP3   OH225575   5.245   6.071  12.285 -0.2991 -0.3638 -0.3177
 1387TIP3    H125576   5.216   6.106  12.369  0.8561  1.1009 -0.4937
 1387TIP3    H225577   5.178   6.100  12.223  0.7089  1.7917 -0.4854
 1388TIP3   OH225578   3.831   1.548  11.316 -0.9560 -0.4389 -0.5371
 1388TIP3    H125579   3.771   1.500  11.372 -1.3337  0.3006 -0.2869
 1388TIP3    H225580   3.775   1.588  11.249 -0.9348  1.1940  0.3584
 1389TIP3   OH225581   0.053   6.501  14.791 -0.0464  0.5859  0.1038
 1389TIP3    H125582   0.037   6.427  14.849 -0.5783  1.0087  0.5100
 1389TIP3    H225583   0.146   6.494  14.768  0.1121  0.2790  0.8118
 1390TIP3   OH225584   5.789   5.351  14.988  0.3614  0.4612 -0.0293
 1390TIP3    H125585   5.876   5.380  14.963  0.4746  1.6962  1.6170
 1390TIP3    H225586   5.804   5.290  15.061 -0.0721 -1.0886 -1.1754
 1391TIP3   OH225587   4.149   5.799   1.522  0.1752  0.4640 -0.0363
 1391TIP3    H125588   4.078   5.857   1.550  0.8381  0.8461  0.8826
 1391TIP3    H225589   4.175   5.833   1.436  1.4161  2.3874  1.0167
 1392TIP3   OH225590   4.529   1.639  11.958  0.3324  0.1782  0.2325
 1392TIP3    H125591   4.484   1.617  11.876  0.1512  0.2082  0.3242
 1392TIP3    H225592   4.561   1.729  11.944 -0.3397  0.4583  0.4747
 1393TIP3   OH225593   4.547   0.430  15.828 -0.5082  0.2442 -0.1066
 1393TIP3    H125594   4.601   0.378  15.886  0.4819  0.1172 -1.1097
 1393TIP3    H225595   4.545   0.380  15.746 -1.1180  0.8599 -0.4816
 1394TIP3   OH225596   3.772   5.725  11.561  0.4929  0.3405 -0.1948
 1394TIP3    H125597   3.809   5.641  11.534  1.2327  0.5037  0.3089
 1394TIP3    H225598   3.838   5.789  11.536  1.8458  0.4048  3.1292
 1395TIP3   OH225599   3.956   4.126   4.269 -0.1098 -0.2963 -0.8267
 1395TIP3    H125600   4.046   4.129   4.300  0.5572 -0.1727 -2.6589
 1395TIP3    H225601   3.906   4.093   4.344  1.5923 -1.3446 -0.0832
 1396TIP3   OH225602   6.272   6.075   0.759 -0.2968  0.6562  0.0497
 1396TIP3    H125603   6.198   6.040   0.809  1.7829  0.6225  3.4142
 1396TIP3    H225604   6.299   6.003   0.702 -0.3520 -0.8734  1.8549
 1397TIP3   OH225605   1.876   5.600   1.117 -0.0119 -0.1406 -0.2455
 1397TIP3    H125606   1.910   5.514   1.091  1.1515  0.5436 -1.0819
 1397TIP3    H225607   1.845   5.639   1.036  0.7172  0.7653 -0.1043
 1398TIP3   OH225608   6.165   4.544  11.872  0.3234 -0.5792 -0.2574
 1398TIP3    H125609   6.166   4.511  11.782 -1.1319 -0.0403 -0.4987
 1398TIP3    H225610   6.107   4.621  11.868  2.0210  0.8114  0.6861
 1399TIP3   OH225611   3.733   1.343  11.479 -0.4893 -0.3684 -0.2639
 1399TIP3    H125612   3.798   1.301  11.422 -0.1981 -1.0960  0.5863
 1399TIP3    H225613   3.766   1.330  11.567 -0.8281  0.9344  0.0813
 1400TIP3   OH225614   4.022   6.372  14.415 -0.6976 -0.3652  0.2295
 1400TIP3    H125615   4.000   6.455  14.458 -0.8168 -0.6749  0.7708
 1400TIP3    H225616   4.107   6.347  14.452 -0.6351 -0.4620  0.0261
 1401TIP3   OH225617   2.653   1.105  10.628 -0.2079  0.7343 -0.3211
 1401TIP3    H125618   2.571   1.098  10.677 -0.6553  4.3672 -0.2831
 1401TIP3    H225619   2.719   1.122  10.695  0.0335  0.8657 -0.5907
 1402TIP3   OH225620   2.999   2.280  12.771 -0.3443 -0.2597 -0.2670
 1402TIP3    H125621   2.914   2.312  12.742 -0.7124  1.1672  2.1087
 1402TIP3    H225622   3.062   2.332  12.721 -0.9460  2.4573  1.5861
 1403TIP3   OH225623   4.776   3.382  14.053 -0.2618 -0.2750  0.2444
 1403TIP3    H125624   4.842   3.448  14.076 -0.0952 -0.2871 -0.1900
 1403TIP3    H225625   4.795   3.359  13.962 -0.4876 -0.7290  0.3069
 1404TIP3   OH225626   4.549   1.205  11.067 -0.4139  0.6829  0.0586
 1404TIP3    H125627   4.604   1.193  10.989  2.1651  1.1992  1.7114
 1404TIP3    H225628   4.530   1.116  11.096 -0.5019  0.4988 -0.5422
 1405TIP3   OH225629   1.939   2.869  14.128 -0.1138 -0.4363  0.4508
 1405TIP3    H125630   2.035   2.867  14.127 -0.0878 -0.9440  1.8735
 1405TIP3    H225631   1.916   2.954  14.089  0.9043 -0.2743  0.1812
 1406TIP3   OH225632   4.658   1.671  14.379  0.8095  0.7426 -0.0135
 1406TIP3    H125633   4.631   1.595  14.431  1.1879 -0.0884 -1.0113
 1406TIP3    H225634   4.739   1.700  14.421  1.5354 -0.3993 -0.5777
 1407TIP3   OH225635   2.023   1.713  14.769 -0.3709 -0.2955  0.2222
 1407TIP3    H125636   2.000   1.645  14.832 -3.2291 -0.8650 -1.2620
 1407TIP3    H225637   1.946   1.771  14.767  1.3425  2.1310  0.2707
 1408TIP3   OH225638   2.941   5.437   5.301 -0.0949 -0.0086  0.3097
 1408TIP3    H125639   2.957   5.343   5.291 -1.8686 -0.2109 -1.3218
 1408TIP3    H225640   3.021   5.479   5.270 -0.2762 -0.9765 -1.6187
 1409TIP3   OH225641   5.783   6.158   1.141 -0.1793 -0.3953  0.0813
 1409TIP3    H125642   5.796   6.250   1.164  0.0434  0.0415 -1.6452
 1409TIP3    H225643   5.838   6.110   1.203 -1.6513  0.4675  2.1642
 1410TIP3   OH225644   3.360   4.155   3.600  0.1569 -0.1807 -0.0377
 1410TIP3    H125645   3.440   4.201   3.627  1.0468 -1.4390 -0.4366
 1410TIP3    H225646   3.299   4.225   3.577  1.3728  0.7989 -0.3889
 1411TIP3   OH225647   3.182   3.837  11.235 -1.2108 -0.4666 -0.4546
 1411TIP3    H125648   3.104   3.786  11.258 -1.2946 -0.2375 -0.2216
 1411TIP3    H225649   3.255   3.777  11.246 -0.8664  0.3993  3.4431
 1412TIP3   OH225650   2.593   0.806  17.054  0.2306 -0.7499  0.0049
 1412TIP3    H125651   2.500   0.817  17.034  0.3359  2.2938  0.7658
 1412TIP3    H225652   2.638   0.832  16.974  0.4603 -0.6769  0.1583
 1413TIP3   OH225653   4.816   4.103  11.309 -0.2903  0.5509  0.8423
 1413TIP3    H125654   4.794   4.068  11.223 -1.2729  1.0857  0.8647
 1413TIP3    H225655   4.742   4.160  11.331 -0.1273  0.2860  2.1145
 1414TIP3   OH225656   1.956   5.228   4.242 -0.5063 -0.5044  0.3029
 1414TIP3    H125657   2.015   5.199   4.312 -0.5143 -0.2082  0.4362
 1414TIP3    H225658   2.005   5.299   4.198  0.5307 -2.2302 -1.5271
 1415TIP3   OH225659   0.289   4.576  12.901 -0.3492 -0.8152  0.5460
 1415TIP3    H125660   0.326   4.520  12.834  0.2489  1.2634 -0.9687
 1415TIP3    H225661   0.355   4.578  12.971  0.1004 -1.1496  0.1313
 1416TIP3   OH225662   5.064   0.220   3.818  0.4573  0.5923  0.2956
 1416TIP3    H125663   5.083   0.169   3.740 -1.3742 -0.7389  0.6577
 1416TIP3    H225664   5.058   0.156   3.888 -3.6905  0.8625  0.4556
 1417TIP3   OH225665   1.509   3.833  11.203  0.5626 -0.2817  0.3075
 1417TIP3    H125666   1.514   3.741  11.180  1.1408 -0.2742  0.3702
 1417TIP3    H225667   1.584   3.847  11.262  1.1656  0.4786 -0.6013
 1418TIP3   OH225668   0.140   0.245   0.664 -0.0788  0.1656  0.1884
 1418TIP3    H125669   0.206   0.313   0.651 -1.3229  1.8973  2.2487
 1418TIP3    H225670   0.087   0.247   0.584  0.7335  0.6373 -0.3510
 1419TIP3   OH225671   5.620   3.298  14.760 -0.1870 -0.1900 -0.0866
 1419TIP3    H125672   5.619   3.207  14.731  2.3625 -1.0405  2.1155
 1419TIP3    H225673   5.586   3.295  14.849 -0.0904  1.0553  0.0062
 1420TIP3   OH225674   3.938   5.880   4.839  0.4072 -0.4115 -0.4145
 1420TIP3    H125675   4.034   5.884   4.839  0.3886  0.0715 -0.6527
 1420TIP3    H225676   3.918   5.798   4.885  0.9105 -0.1048  0.3743
 1421TIP3   OH225677   5.587   6.744  12.470 -0.3903  0.0235 -0.2264
 1421TIP3    H125678   5.644   6.746  12.547 -1.1926 -2.4872  0.5329
 1421TIP3    H225679   5.635   6.794  12.404  2.6457 -1.7117  0.4482
 1422TIP3   OH225680   0.423   1.346   1.154 -0.4577  0.5799 -0.1042
 1422TIP3    H125681   0.511   1.384   1.152 -1.3697  2.8349  0.3302
 1422TIP3    H225682   0.365   1.419   1.133 -2.3039 -0.6775  0.4354
 1423TIP3   OH225683   1.088   5.119  14.116  0.3737 -0.3563 -0.3155
 1423TIP3    H125684   1.036   5.195  14.142  0.2583 -0.0395 -1.4377
 1423TIP3    H225685   1.095   5.126  14.021  3.5686  0.3638 -0.1644
 1424TIP3   OH225686   1.918   6.629  16.520  0.6094 -0.6957  0.3645
 1424TIP3    H125687   1.971   6.673  16.586  1.7484 -0.8282 -0.4313
 1424TIP3    H225688   1.970   6.552  16.495  0.6078 -0.2054 -1.2763
 1425TIP3   OH225689   4.002   1.818  14.772  0.1448 -0.0830  0.2985
 1425TIP3    H125690   4.043   1.893  14.814  0.5273 -1.1243  1.8794
 1425TIP3    H225691   3.986   1.846  14.682 -0.6385  2.2363  1.0801
 1426TIP3   OH225692   6.360   3.891  12.848 -0.4809  0.3944  0.2950
 1426TIP3    H125693   6.295   3.868  12.782 -0.8040 -1.0403  1.0836
 1426TIP3    H225694   6.364   3.986  12.846 -1.6292  0.4383 -0.6891
 1427TIP3   OH225695   0.978   5.329   0.737 -0.2548  0.4830  0.4991
 1427TIP3    H125696   0.938   5.346   0.822 -0.4580  1.3508  0.2425
 1427TIP3    H225697   0.952   5.404   0.683  1.4204  0.9133  0.2201
 1428TIP3   OH225698   2.240   0.123  17.290 -0.3101  0.1971 -0.0986
 1428TIP3    H125699   2.332   0.114  17.265 -0.0142  0.0155  1.0237
 1428TIP3    H225700   2.196   0.151  17.209  0.5201 -0.8966 -0.9572
 1429TIP3   OH225701   0.183   5.216   4.137  0.3407  0.1132  0.0858
 1429TIP3    H125702   0.158   5.236   4.047  0.4889  2.1717  0.4718
 1429TIP3    H225703   0.185   5.300   4.181 -1.9314 -1.0163  2.6159
 1430TIP3   OH225704   3.750   1.062  12.647  0.5806 -0.7370  0.5263
 1430TIP3    H125705   3.844   1.053  12.632  0.6511 -0.1564  0.6219
 1430TIP3    H225706   3.715   0.975  12.627  0.6375 -0.0678 -3.2959
 1431TIP3   OH225707   4.582   6.225   3.405  0.2034  0.3468  0.3101
 1431TIP3    H125708   4.495   6.236   3.366  0.6234  1.3932 -0.3914
 1431TIP3    H225709   4.643   6.244   3.334  1.0286 -0.9003  0.6498
 1432TIP3   OH225710   1.568   4.375  11.083  0.0052  0.3454  0.0136
 1432TIP3    H125711   1.612   4.290  11.079 -1.1396 -0.2603 -0.1588
 1432TIP3    H225712   1.595   4.412  11.167  0.0559 -0.4423  0.3533
 1433TIP3   OH225713   6.677   6.416  12.485 -0.2195  0.7741  0.0309
 1433TIP3    H125714   6.596   6.436  12.437 -0.8100  1.2791  1.2117
 1433TIP3    H225715   6.712   6.501  12.509 -0.4843  0.5145  1.3904
 1434TIP3   OH225716   1.037   1.995   2.641  0.4444  0.3026 -0.1457
 1434TIP3    H125717   1.048   1.914   2.691  0.3044  1.6159  2.1505
 1434TIP3    H225718   1.123   2.012   2.604  0.4058 -1.0205 -0.9175
 1435TIP3   OH225719   0.491   0.545   4.273  0.3050  0.3492 -0.7991
 1435TIP3    H125720   0.556   0.481   4.243  1.3546  1.1077 -0.1987
 1435TIP3    H225721   0.471   0.518   4.362 -1.3097 -0.7222 -1.4509
 1436TIP3   OH225722   4.973   1.662  15.456 -0.1468 -0.3399  0.0272
 1436TIP3    H125723   5.000   1.706  15.376 -1.6012 -1.2592 -1.0163
 1436TIP3    H225724   4.920   1.727  15.502  1.0151  0.3249  0.4681
 1437TIP3   OH225725   0.821   6.247   0.569  0.0163  0.0366  0.2369
 1437TIP3    H125726   0.903   6.246   0.520  1.0562 -0.1248  1.9228
 1437TIP3    H225727   0.837   6.192   0.645 -2.3226 -1.6878 -0.3814
 1438TIP3   OH225728   3.111   2.501  16.022 -0.1808  0.3936 -0.1891
 1438TIP3    H125729   3.038   2.557  15.997 -0.0648  0.6910  0.1243
 1438TIP3    H225730   3.096   2.481  16.115  0.4800  1.0135  0.0650
 1439TIP3   OH225731   4.805   1.784   5.292 -0.3022 -0.9790  0.2849
 1439TIP3    H125732   4.845   1.856   5.244 -1.2313 -0.8297 -0.2863
 1439TIP3    H225733   4.860   1.708   5.273 -0.6316 -0.9141 -0.9872
 1440TIP3   OH225734   5.352   4.728  14.540 -1.0610 -0.1639  0.2754
 1440TIP3    H125735   5.424   4.687  14.490  0.7133  0.8894  1.8600
 1440TIP3    H225736   5.293   4.655  14.560  0.9075 -1.6084  1.1649
 1441TIP3   OH225737   1.348   1.782  16.711  0.2116 -0.0716  0.0991
 1441TIP3    H125738   1.324   1.863  16.667 -0.4013  0.0757  0.7017
 1441TIP3    H225739   1.272   1.760  16.765  0.9601 -0.2517  1.0903
 1442TIP3   OH225740   3.096   2.866   5.752  0.0414  0.2983 -0.4000
 1442TIP3    H125741   3.045   2.811   5.811 -2.1329  0.6785 -1.8222
 1442TIP3    H225742   3.067   2.841   5.665 -1.5715  4.0362 -1.1302
 1443TIP3   OH225743   4.285   3.183  14.850 -0.0766  0.2824  0.1211
 1443TIP3    H125744   4.239   3.099  14.842  0.3883 -0.0500  0.8788
 1443TIP3    H225745   4.335   3.176  14.931  1.1816  0.7020 -0.5913
 1444TIP3   OH225746   3.046   4.127  16.770 -0.2982  0.0350  0.9133
 1444TIP3    H125747   2.959   4.106  16.734 -0.2399  0.6163  0.4240
 1444TIP3    H225748   3.049   4.080  16.854 -0.8256 -0.5248  0.6263
 1445TIP3   OH225749   5.033   0.957   3.626 -0.2441 -0.5718  0.2702
 1445TIP3    H125750   5.050   0.907   3.706 -0.4644  0.8555  1.2462
 1445TIP3    H225751   4.941   0.982   3.632  0.1524  0.9209  0.3891
 1446TIP3   OH225752   4.294   3.498  11.786 -0.3182  0.0318  0.2606
 1446TIP3    H125753   4.264   3.518  11.875 -3.5608  0.6202 -0.8370
 1446TIP3    H225754   4.256   3.567  11.732  0.3061 -1.1561 -1.7810
 1447TIP3   OH225755   5.676   3.016   1.183  0.6898  0.6550 -0.3130
 1447TIP3    H125756   5.666   2.976   1.096 -1.8061  0.1675  0.1239
 1447TIP3    H225757   5.717   2.947   1.236  0.5946  0.3123 -0.6786
 1448TIP3   OH225758   0.491   1.910  11.663  0.6205  0.5277 -0.1837
 1448TIP3    H125759   0.407   1.956  11.661 -0.3428 -1.1597  0.0171
 1448TIP3    H225760   0.556   1.980  11.673 -0.6957  1.9125 -0.9047
 1449TIP3   OH225761   6.191   2.972   1.558  0.8332  0.2222 -0.3288
 1449TIP3    H125762   6.108   2.927   1.546  0.5890  0.3849  0.6715
 1449TIP3    H225763   6.167   3.061   1.584  1.3134  0.2423  0.0694
 1450TIP3   OH225764   6.098   5.461   5.110 -0.0702 -0.2649  0.2877
 1450TIP3    H125765   6.129   5.381   5.152  1.6107  0.6308  0.8499
 1450TIP3    H225766   6.123   5.531   5.170 -0.9280  0.7478 -0.4963
 1451TIP3   OH225767   0.167   0.912   1.544 -0.2339 -0.0302 -0.3914
 1451TIP3    H125768   0.135   0.854   1.475 -1.1237  0.4555 -0.4041
 1451TIP3    H225769   0.100   0.905   1.613 -0.1524  0.6801 -0.2353
 1452TIP3   OH225770   0.595   5.106  15.458  0.6762  0.1381  0.4896
 1452TIP3    H125771   0.580   5.109  15.364 -0.6855  3.0612  0.6823
 1452TIP3    H225772   0.690   5.096  15.468  0.8257 -0.2450 -1.1657
 1453TIP3   OH225773   0.823   6.212  12.354  0.0009  0.3713  0.3022
 1453TIP3    H125774   0.795   6.121  12.349  0.7649  0.1401  0.0889
 1453TIP3    H225775   0.899   6.218  12.295  0.7313  0.8468  1.2552
 1454TIP3   OH225776   5.580   2.113   1.142 -0.1194 -0.0885  0.2345
 1454TIP3    H125777   5.490   2.124   1.111  0.3330  0.9377 -0.7930
 1454TIP3    H225778   5.633   2.168   1.084  1.1817 -0.6610  0.8172
 1455TIP3   OH225779   2.316   3.014  12.921  0.1846 -0.0775 -0.3422
 1455TIP3    H125780   2.266   2.981  12.995 -1.6173  3.0768  0.0292
 1455TIP3    H225781   2.310   2.945  12.855 -0.9483 -1.5835  1.2587
 1456TIP3   OH225782   4.639   1.292  16.129  0.0467 -0.4911 -0.3964
 1456TIP3    H125783   4.726   1.273  16.165  0.4592  1.1473 -0.4667
 1456TIP3    H225784   4.621   1.382  16.156 -1.3003 -0.5360 -1.0663
 1457TIP3   OH225785   0.613   1.817  14.086 -0.8258  0.2948  0.1246
 1457TIP3    H125786   0.541   1.880  14.088 -0.3241  0.8563  1.0283
 1457TIP3    H225787   0.665   1.836  14.164 -0.1721 -0.6694 -0.0488
 1458TIP3   OH225788   4.849   4.714   5.710  0.1809 -0.0518  0.3296
 1458TIP3    H125789   4.938   4.690   5.688  0.5622  0.9975  0.6776
 1458TIP3    H225790   4.820   4.646   5.771  0.1668 -1.2785 -1.0056
 1459TIP3   OH225791   3.759   4.221  14.244 -0.1042  0.0588  0.1406
 1459TIP3    H125792   3.776   4.197  14.153  1.2144 -0.3075  0.4641
 1459TIP3    H225793   3.688   4.163  14.271 -0.5421  0.2001 -0.6588
 1460TIP3   OH225794   2.400   4.786   4.163 -0.0720  0.8036  0.0315
 1460TIP3    H125795   2.370   4.877   4.158 -0.4296  0.6739 -0.1763
 1460TIP3    H225796   2.463   4.778   4.091 -1.1058  0.4907 -0.8538
 1461TIP3   OH225797   6.640   1.281   4.217 -0.1722 -0.2347 -0.4355
 1461TIP3    H125798   6.606   1.344   4.153 -1.1720 -0.0427  0.2525
 1461TIP3    H225799   6.642   1.198   4.171  0.4373  0.1423 -1.1257
 1462TIP3   OH225800   5.989   4.858  14.251 -0.4863 -0.8072  0.0976
 1462TIP3    H125801   5.995   4.867  14.346 -1.1030  0.1151  0.0624
 1462TIP3    H225802   5.941   4.936  14.222  0.9808 -0.3151 -1.1329
 1463TIP3   OH225803   5.514   2.837   1.716 -0.4120 -0.1363  0.7285
 1463TIP3    H125804   5.525   2.839   1.621  0.5988  0.7850  0.8476
 1463TIP3    H225805   5.430   2.792   1.730  0.1853 -1.7075 -0.5204
 1464TIP3   OH225806   6.137   6.062   6.111 -0.0490  0.0835  0.6303
 1464TIP3    H125807   6.071   6.086   6.045  0.1830  1.1242  0.7644
 1464TIP3    H225808   6.087   6.015   6.178 -0.7823  1.4122  1.0417
 1465TIP3   OH225809   0.539   0.029   1.951  0.0415 -0.0711 -0.6367
 1465TIP3    H125810   0.544  -0.016   1.867  1.2148  0.2343 -0.7480
 1465TIP3    H225811   0.449   0.063   1.955 -0.2439 -0.7019 -1.4283
 1466TIP3   OH225812   4.831   6.247  16.618 -0.9770 -0.6219 -0.3074
 1466TIP3    H125813   4.906   6.274  16.566 -0.9250 -0.0523  0.0515
 1466TIP3    H225814   4.758   6.244  16.557 -0.9317  0.1087 -0.4051
 1467TIP3   OH225815   5.967   6.268  12.383  0.0700  0.0658 -0.3541
 1467TIP3    H125816   5.961   6.239  12.474 -0.0908 -1.3716 -0.8040
 1467TIP3    H225817   5.996   6.359  12.389  2.1396 -0.6036  1.1075
 1468TIP3   OH225818   0.457   2.405  13.728 -0.0223  0.0340  0.2671
 1468TIP3    H125819   0.393   2.410  13.657  0.0542  0.7582  0.2455
 1468TIP3    H225820   0.524   2.470  13.705  1.3564 -1.5120 -0.3416
 1469TIP3   OH225821   3.130   1.807  17.134  0.3328  0.0393  0.1579
 1469TIP3    H125822   3.216   1.808  17.176  0.2580  0.2907  0.3115
 1469TIP3    H225823   3.144   1.763  17.050  1.0463  1.8613 -0.7303
 1470TIP3   OH225824   4.151   5.449  11.344  0.3329 -0.1199  0.1876
 1470TIP3    H125825   4.112   5.410  11.266 -1.0605  0.5037  0.5364
 1470TIP3    H225826   4.245   5.437  11.333  0.0599 -4.5612  0.7537
 1471TIP3   OH225827   3.428   6.578  15.150  0.2392  0.2023  0.2148
 1471TIP3    H125828   3.367   6.538  15.088 -0.5541 -1.7009  2.0727
 1471TIP3    H225829   3.513   6.541  15.127  0.0938  0.1855 -0.2952
 1472TIP3   OH225830   6.396   1.623   3.434 -0.2809  0.0281 -0.2704
 1472TIP3    H125831   6.470   1.683   3.437  0.2587 -0.6399  0.1727
 1472TIP3    H225832   6.432   1.541   3.401 -0.5497 -0.6588  1.0748
 1473TIP3   OH225833   5.694   5.246  15.502 -0.2136 -0.0425  0.2070
 1473TIP3    H125834   5.672   5.240  15.409 -0.1241  3.5084 -0.1828
 1473TIP3    H225835   5.609   5.249  15.547 -0.2555 -1.4607  0.2829
 1474TIP3   OH225836   1.838   0.240   0.292  0.4554  0.3144  0.0699
 1474TIP3    H125837   1.899   0.301   0.249 -0.0729  0.9085  0.1378
 1474TIP3    H225838   1.760   0.293   0.309  0.3634 -0.1201  1.0654
 1475TIP3   OH225839   3.425   0.953  16.966  1.0375  0.3421 -0.3619
 1475TIP3    H125840   3.354   0.923  17.022  1.1842 -1.6220 -1.1314
 1475TIP3    H225841   3.505   0.923  17.009  1.2124 -0.1923 -1.0426
 1476TIP3   OH225842   3.233   5.395  12.732 -0.1852  0.6040  0.2827
 1476TIP3    H125843   3.205   5.315  12.776  1.1935 -0.0160  0.0711
 1476TIP3    H225844   3.279   5.365  12.654  1.4246  1.5295  0.8241
 1477TIP3   OH225845   0.443   6.039  11.332  0.0461 -0.4385  0.8321
 1477TIP3    H125846   0.417   5.987  11.257 -0.2416 -1.1755  1.4327
 1477TIP3    H225847   0.362   6.078  11.364  0.0395 -0.7782  1.2406
 1478TIP3   OH225848   1.665   4.002   6.249 -0.3415  0.4474 -0.6359
 1478TIP3    H125849   1.608   4.024   6.323 -0.2432 -0.5487 -0.2429
 1478TIP3    H225850   1.678   4.085   6.203  0.3832  1.3062  1.0041
 1479TIP3   OH225851   1.658   4.559  10.871 -0.0685  0.1987  0.0167
 1479TIP3    H125852   1.631   4.510  10.949  1.8513 -2.0810 -0.6076
 1479TIP3    H225853   1.748   4.586  10.890 -0.1968  1.2089 -0.7246
 1480TIP3   OH225854   1.499   0.400  11.518  0.1072 -0.2941  0.2440
 1480TIP3    H125855   1.534   0.335  11.578  1.4867  0.7501  0.6261
 1480TIP3    H225856   1.420   0.360  11.481  0.0434 -1.5287  1.6510
 1481TIP3   OH225857   2.722   2.291  10.307  0.0074 -0.0384  0.2733
 1481TIP3    H125858   2.662   2.253  10.372 -0.2643 -0.4486 -0.2122
 1481TIP3    H225859   2.673   2.291  10.225  0.8203 -0.8098 -0.2378
 1482TIP3   OH225860   4.354   3.449  13.564  0.3466 -0.6366 -0.1565
 1482TIP3    H125861   4.410   3.423  13.490  0.4305  1.6602 -0.9541
 1482TIP3    H225862   4.416   3.464  13.635  0.6323  0.4957 -0.6258
 1483TIP3   OH225863   0.316   5.625  16.222  0.2641  0.3978 -0.2059
 1483TIP3    H125864   0.255   5.551  16.221  1.1921 -0.6599  4.0110
 1483TIP3    H225865   0.261   5.701  16.239 -0.1710 -0.2197  1.3176
 1484TIP3   OH225866   2.526   6.727  14.465 -0.0141 -0.0734  0.0309
 1484TIP3    H125867   2.437   6.704  14.493  0.5710 -3.3246 -0.4218
 1484TIP3    H225868   2.577   6.725  14.546  0.5882 -3.7845 -0.2845
 1485TIP3   OH225869   5.535   2.963  11.833  0.2755 -0.4436 -0.1321
 1485TIP3    H125870   5.600   2.895  11.849  0.8194 -0.6675 -2.8112
 1485TIP3    H225871   5.579   3.026  11.777 -0.6891  1.4098  1.0854
 1486TIP3   OH225872   1.550   6.016   6.493 -0.0796 -0.2098  0.5380
 1486TIP3    H125873   1.491   5.996   6.420  0.6194  0.9943 -0.4046
 1486TIP3    H225874   1.610   5.941   6.496  1.8117  0.9973 -2.2068
 1487TIP3   OH225875   1.595   3.557   3.009 -0.0499  0.8166  0.2920
 1487TIP3    H125876   1.509   3.518   3.019  0.6618 -0.4946  1.5469
 1487TIP3    H225877   1.604   3.617   3.083 -0.4837  2.2094 -0.7261
 1488TIP3   OH225878   3.464   3.229  12.245  0.1063 -0.1842 -0.0480
 1488TIP3    H125879   3.485   3.144  12.206  2.9086  1.0686 -1.5297
 1488TIP3    H225880   3.368   3.233  12.242 -0.0227 -2.3614 -2.0173
 1489TIP3   OH225881   5.520   1.155   5.880 -0.3106 -0.2183 -0.6153
 1489TIP3    H125882   5.571   1.151   5.961 -0.5822  0.9328 -0.3678
 1489TIP3    H225883   5.430   1.139   5.907 -0.2004 -1.4745 -0.9414
 1490TIP3   OH225884   1.329   4.943  11.810 -0.2569  0.0332  0.8351
 1490TIP3    H125885   1.255   4.979  11.858 -0.6602  0.3160  0.0302
 1490TIP3    H225886   1.330   4.851  11.833 -0.4205  0.1728  1.4095
 1491TIP3   OH225887   2.313   5.606  15.920  0.0296  0.5382  0.2142
 1491TIP3    H125888   2.357   5.605  15.835  1.3063  2.0345  0.8092
 1491TIP3    H225889   2.318   5.516  15.951  0.7973  0.2627 -0.6769
 1492TIP3   OH225890   0.822   3.002   2.539 -0.1028 -0.2018 -0.0092
 1492TIP3    H125891   0.912   2.974   2.556  0.5578  1.8044  0.0576
 1492TIP3    H225892   0.812   2.994   2.445  0.0737 -0.6657  0.0112
 1493TIP3   OH225893   1.681   1.986  16.198 -0.5062  0.1385 -0.3805
 1493TIP3    H125894   1.774   1.973  16.217 -0.5334 -0.0224 -0.3563
 1493TIP3    H225895   1.663   2.076  16.227 -0.0242  0.6890 -1.7071
 1494TIP3   OH225896   6.529   5.365   5.362 -0.5930 -0.1007  0.2488
 1494TIP3    H125897   6.436   5.355   5.341 -0.4690 -1.8965  0.3939
 1494TIP3    H225898   6.543   5.306   5.436  0.7146 -0.0504  0.0607
 1495TIP3   OH225899   3.669   3.281  16.333 -0.1149  0.3142  0.4363
 1495TIP3    H125900   3.606   3.329  16.386 -0.1757 -0.0969  0.7388
 1495TIP3    H225901   3.638   3.191  16.334  0.3379  0.1534  0.3814
 1496TIP3   OH225902   6.288   4.564   4.658  0.3096  0.1283 -0.3350
 1496TIP3    H125903   6.308   4.641   4.606  0.5659  0.6019  0.4469
 1496TIP3    H225904   6.367   4.510   4.652 -0.1733 -0.4797 -1.5572
 1497TIP3   OH225905   1.263   5.461   4.660 -0.5610  0.4766 -0.3207
 1497TIP3    H125906   1.314   5.536   4.689 -0.5883 -0.6164  2.9081
 1497TIP3    H225907   1.325   5.388   4.658 -1.1988 -0.0951 -0.0218
 1498TIP3   OH225908   3.188   6.501   2.905 -0.2453  0.5266  0.4367
 1498TIP3    H125909   3.146   6.495   2.992 -2.6095 -0.2635 -0.6619
 1498TIP3    H225910   3.221   6.412   2.889  0.4612  0.7485  0.6304
 1499TIP3   OH225911   3.114   5.262   0.835  0.7488  0.2429  0.1477
 1499TIP3    H125912   3.043   5.282   0.774 -0.1324 -1.0556  0.7102
 1499TIP3    H225913   3.190   5.248   0.779  0.4573  1.1249 -0.4959
 1500TIP3   OH225914   6.719   2.721   5.222  0.5017 -0.1542  0.2262
 1500TIP3    H125915   6.674   2.729   5.138  0.0351 -1.1977  0.3641
 1500TIP3    H225916   6.699   2.802   5.268  1.9603  1.1055 -1.2120
 1501TIP3   OH225917   6.432   2.202   0.266  0.3620 -0.6558 -0.2943
 1501TIP3    H125918   6.484   2.272   0.226 -0.1140 -0.8430 -1.2774
 1501TIP3    H225919   6.496   2.149   0.315  0.8675 -0.0752 -0.3236
 1502TIP3   OH225920   2.584   2.520   1.962 -0.3248  0.1936 -0.2490
 1502TIP3    H125921   2.585   2.457   2.034  0.0378 -1.5808 -1.7216
 1502TIP3    H225922   2.663   2.499   1.912 -1.4444  0.1867 -2.1069
 1503TIP3   OH225923   0.956   4.288  14.577 -0.4511 -0.3475 -0.0569
 1503TIP3    H125924   0.977   4.282  14.670  0.6180  1.0112 -0.1867
 1503TIP3    H225925   0.864   4.261  14.572 -1.4021  2.1393  1.7949
 1504TIP3   OH225926   1.533   3.453  13.789 -0.0460 -0.3163 -0.0212
 1504TIP3    H125927   1.491   3.475  13.706 -0.8191 -0.0544  0.4284
 1504TIP3    H225928   1.625   3.440  13.767 -0.3320 -0.7404 -0.9984
 1505TIP3   OH225929   0.859   5.428   0.021 -0.1939  0.1054 -0.6021
 1505TIP3    H125930   0.917   5.423  -0.055  1.8737 -0.3072  0.9210
 1505TIP3    H225931   0.861   5.340   0.059 -0.5685  0.5057  0.3725
 1506TIP3   OH225932   0.574   1.103   5.485  0.1714  0.2727 -0.0908
 1506TIP3    H125933   0.515   1.178   5.484  1.2097  1.1449  0.8873
 1506TIP3    H225934   0.589   1.085   5.578  0.4212 -0.7659 -0.3115
 1507TIP3   OH225935   2.040   0.958  14.875  0.1178  0.1882 -0.4891
 1507TIP3    H125936   1.952   0.925  14.893 -0.3441  1.3925 -0.4412
 1507TIP3    H225937   2.028   1.023  14.806  0.9964  0.2400 -0.6069
 1508TIP3   OH225938   2.364   2.002   3.315  0.4433 -0.5939  0.6078
 1508TIP3    H125939   2.356   1.944   3.239  2.1542  0.4467 -0.4523
 1508TIP3    H225940   2.274   2.018   3.343 -0.2282 -1.1340 -1.1202
 1509TIP3   OH225941   4.437   3.100   5.503  0.3262  0.2539  0.1372
 1509TIP3    H125942   4.360   3.141   5.541 -0.2708  0.4972 -1.2507
 1509TIP3    H225943   4.402   3.025   5.454  0.5305  1.8426 -2.7059
 1510TIP3   OH225944   4.074   5.997  14.152  0.0872  0.0949  0.4720
 1510TIP3    H125945   4.087   5.994  14.247  1.8597  0.3917  0.2587
 1510TIP3    H225946   4.112   5.915  14.120 -0.4287  0.0327 -0.0022
 1511TIP3   OH225947   5.812   3.209  13.502 -0.3429 -0.2951  0.4491
 1511TIP3    H125948   5.894   3.167  13.474 -0.6237 -0.8892  0.4987
 1511TIP3    H225949   5.837   3.263  13.577  0.3860  1.1687 -0.7968
 1512TIP3   OH225950   0.044   2.737  14.419  0.0875 -0.0306 -0.1045
 1512TIP3    H125951   0.070   2.788  14.342 -1.5333  0.4679 -0.3489
 1512TIP3    H225952   0.033   2.648  14.385  0.7848 -0.1162 -0.1298
 1513TIP3   OH225953   0.028   1.642   0.443 -0.8753  0.3505 -0.8596
 1513TIP3    H125954  -0.011   1.706   0.501 -1.7108 -1.1332  0.2779
 1513TIP3    H225955   0.073   1.581   0.501  3.9162  2.2797 -2.0440
 1514TIP3   OH225956   1.100   5.243  11.562 -0.3733 -0.1326 -0.4939
 1514TIP3    H125957   1.087   5.163  11.613 -0.0058 -0.5485 -1.0407
 1514TIP3    H225958   1.146   5.214  11.483  0.9483  0.7994 -0.1022
 1515TIP3   OH225959   3.721   0.858  15.115 -0.3693  0.2263 -0.0372
 1515TIP3    H125960   3.664   0.927  15.081 -2.0061 -0.9320  0.2541
 1515TIP3    H225961   3.663   0.785  15.133  1.1214 -0.7873  0.9425
 1516TIP3   OH225962   3.985   3.008  13.241 -0.2494  0.2341  0.0882
 1516TIP3    H125963   4.013   2.941  13.178 -0.9559 -0.2263  0.2536
 1516TIP3    H225964   3.898   2.980  13.269  0.3621 -0.0060  1.8601
 1517TIP3   OH225965   3.010   5.270   3.208 -0.5283  0.2419 -0.4386
 1517TIP3    H125966   2.925   5.312   3.195 -1.7508 -2.5011 -2.1586
 1517TIP3    H225967   3.000   5.220   3.289 -0.4513  0.1269 -0.5004
 1518TIP3   OH225968   1.885   3.261   5.330 -0.1178 -0.1367  1.1901
 1518TIP3    H125969   1.906   3.187   5.386  1.8297 -0.7263 -0.2228
 1518TIP3    H225970   1.862   3.331   5.391 -1.1315 -1.5909  2.5854
 1519TIP3   OH225971   1.318   1.325   4.603 -0.0178 -0.2608  0.8096
 1519TIP3    H125972   1.365   1.317   4.686 -0.7935 -1.2659  1.1697
 1519TIP3    H225973   1.384   1.305   4.536  0.3784 -0.4112  1.2370
 1520TIP3   OH225974   3.277   6.251  16.483  0.1131 -0.0101  0.5860
 1520TIP3    H125975   3.296   6.236  16.391  1.9730  2.0901  0.5378
 1520TIP3    H225976   3.190   6.214  16.497  0.3187 -1.5063 -1.6709
 1521TIP3   OH225977   3.070   6.117  12.611  0.1384  0.1885 -0.2374
 1521TIP3    H125978   3.162   6.143  12.616 -0.4407  2.3112 -0.0309
 1521TIP3    H225979   3.054   6.070  12.694  0.2950  2.4532  1.1515
 1522TIP3   OH225980   3.997   4.531   0.844  0.2687  0.3744 -0.0320
 1522TIP3    H125981   3.902   4.522   0.850  0.0077  2.4168 -0.2904
 1522TIP3    H225982   4.027   4.529   0.934  0.0365 -0.5684  0.0377
 1523TIP3   OH225983   6.119   1.927  11.025  0.8381  0.4420  0.7751
 1523TIP3    H125984   6.027   1.904  11.032  0.6680  0.1559 -1.4650
 1523TIP3    H225985   6.147   1.887  10.942  3.2759 -0.4401  1.9244
 1524TIP3   OH225986   4.753   4.954   5.347 -0.6266 -0.1852  0.2387
 1524TIP3    H125987   4.838   4.996   5.358 -0.5461 -0.0546 -0.8277
 1524TIP3    H225988   4.741   4.904   5.427  2.1110 -3.2041 -1.0362
 1525TIP3   OH225989   4.752   5.730   4.591  0.1379 -0.0182 -0.1384
 1525TIP3    H125990   4.713   5.703   4.674 -0.1597  1.4842  0.2514
 1525TIP3    H225991   4.822   5.790   4.616  0.1698  0.2971 -0.9575
 1526TIP3   OH225992   3.053   0.047   0.236 -0.5463  0.4027  0.7440
 1526TIP3    H125993   3.017   0.136   0.239 -0.9470  0.2196  1.4713
 1526TIP3    H225994   3.143   0.057   0.266 -0.9396  0.4003  1.9826
 1527TIP3   OH225995   4.489   4.517   0.834  0.5653 -0.0290 -0.3142
 1527TIP3    H125996   4.514   4.541   0.923  0.9596  2.5333 -1.0547
 1527TIP3    H225997   4.396   4.537   0.829  0.7113  0.5772 -0.6957
 1528TIP3   OH225998   2.023   2.723   5.823  0.1095  0.0338 -0.8504
 1528TIP3    H125999   2.110   2.752   5.798  0.5032 -0.4765 -0.0973
 1528TIP3    H226000   2.032   2.696   5.914 -0.7437 -0.4028 -0.8877
 1529TIP3   OH226001   1.971   3.519   3.418 -0.3877  0.2879 -0.5758
 1529TIP3    H126002   1.972   3.604   3.462  0.5322 -0.1345  0.2402
 1529TIP3    H226003   1.963   3.455   3.489 -2.1060 -0.3007 -1.2321
 1530TIP3   OH226004   6.422   3.431   3.772  0.4184 -0.6988  0.4320
 1530TIP3    H126005   6.361   3.499   3.742  3.1609  2.2839  1.0681
 1530TIP3    H226006   6.385   3.400   3.854 -0.4865  0.6689  0.5786
 1531TIP3   OH226007   1.810   5.379   4.454 -0.9570 -0.1182  0.2447
 1531TIP3    H126008   1.890   5.408   4.498 -1.2811 -0.4000  1.0431
 1531TIP3    H226009   1.839   5.313   4.391 -0.6056 -0.5783  0.8731
 1532TIP3   OH226010   0.010   1.118   1.708  0.7186 -0.2991 -0.0187
 1532TIP3    H126011  -0.074   1.085   1.741  0.0937 -1.1990 -2.2756
 1532TIP3    H226012   0.072   1.101   1.779 -1.0848  1.0499  1.9987
 1533TIP3   OH226013   6.462   3.835   0.001  0.1745 -0.1316 -0.2157
 1533TIP3    H126014   6.543   3.802  -0.037  0.4496 -0.6025  0.7313
 1533TIP3    H226015   6.467   3.930  -0.008  0.8702 -0.1539 -0.0896
 1534TIP3   OH226016   3.356   6.712  11.556 -0.4228  0.2114 -0.0102
 1534TIP3    H126017   3.330   6.639  11.611 -2.0123  0.1574 -0.7753
 1534TIP3    H226018   3.376   6.672  11.471 -0.2994  0.5599 -0.1476
 1535TIP3   OH226019   4.428   1.477  17.168 -0.8180 -0.4142 -0.3274
 1535TIP3    H126020   4.393   1.422  17.098 -1.0338  1.5478 -1.8537
 1535TIP3    H226021   4.522   1.482  17.149 -0.6584 -0.9041  0.2972
 1536TIP3   OH226022   2.859   6.619   4.911 -0.6945 -0.1908  0.0951
 1536TIP3    H126023   2.880   6.587   4.999  3.1588  2.5066  0.3953
 1536TIP3    H226024   2.801   6.694   4.925  1.1723  1.2229  0.5778
 1537TIP3   OH226025   1.749   5.654   3.847 -0.4128 -0.6007  0.0764
 1537TIP3    H126026   1.709   5.616   3.925 -0.6049 -1.1451 -0.2874
 1537TIP3    H226027   1.685   5.718   3.816 -0.4804 -0.6204  0.1774
 1538TIP3   OH226028   2.129   6.235  10.978  0.3793  0.1906  0.5024
 1538TIP3    H126029   2.115   6.142  10.995  0.9887 -0.1395 -0.6580
 1538TIP3    H226030   2.223   6.248  10.986  0.2276  0.8571  1.3086
 1539TIP3   OH226031   1.359   1.269   1.138  0.3636 -0.2461 -0.7956
 1539TIP3    H126032   1.446   1.300   1.113  1.2758 -0.5569  1.7610
 1539TIP3    H226033   1.368   1.174   1.142  0.9599 -0.1740  2.6382
 1540TIP3   OH226034   0.133   3.893  12.780 -0.3574  0.1896 -0.4714
 1540TIP3    H126035   0.098   3.934  12.700  1.1199 -1.6117 -2.1506
 1540TIP3    H226036   0.137   3.964  12.844 -4.4403  1.0955 -0.9460
 1541TIP3   OH226037   6.023   4.966   6.270  0.1333 -0.1816  0.5039
 1541TIP3    H126038   6.114   4.977   6.297 -0.1275 -1.1550  1.8450
 1541TIP3    H226039   6.025   4.896   6.204  0.3762 -0.0008  0.3164
 1542TIP3   OH226040   1.729   4.650  17.118 -0.0048 -0.1693 -0.5649
 1542TIP3    H126041   1.740   4.653  17.213 -0.7298 -2.5197 -0.3466
 1542TIP3    H226042   1.675   4.572  17.102 -0.2692  0.4036 -2.8821
 1543TIP3   OH226043   6.150   3.728  15.773  0.0852 -0.4554 -0.8051
 1543TIP3    H126044   6.158   3.715  15.678 -0.7893 -2.2167 -0.6779
 1543TIP3    H226045   6.204   3.660  15.812  0.4602  0.2724 -0.0188
 1544TIP3   OH226046   0.330   3.810   3.871  0.1652  0.6320  0.0996
 1544TIP3    H126047   0.335   3.745   3.801  0.5916 -0.6037  1.2277
 1544TIP3    H226048   0.251   3.787   3.920 -0.3379  1.7125 -0.1697
 1545TIP3   OH226049   6.157   6.285   0.325  0.0202  0.3945  0.7593
 1545TIP3    H126050   6.160   6.269   0.419  1.5186  2.3037  1.0833
 1545TIP3    H226051   6.184   6.201   0.286  0.6218 -0.0541  2.0793
 1546TIP3   OH226052   5.046   4.804  13.689  0.5051 -0.4160  0.1813
 1546TIP3    H126053   4.952   4.802  13.669 -0.2584 -0.6974  3.3115
 1546TIP3    H226054   5.088   4.802  13.603 -2.3254  0.5980 -1.3831
 1547TIP3   OH226055   2.154   1.282   5.361  0.0276 -0.0240 -0.2875
 1547TIP3    H126056   2.106   1.236   5.430  0.3265  0.6521  0.3990
 1547TIP3    H226057   2.130   1.238   5.280 -0.4420 -0.7506  0.2406
 1548TIP3   OH226058   4.286   0.543  13.280  0.3021 -0.2229  0.0299
 1548TIP3    H126059   4.204   0.591  13.269  0.9527  0.5207 -2.4379
 1548TIP3    H226060   4.264   0.468  13.335 -1.8963  0.2512 -0.1196
 1549TIP3   OH226061   2.315   3.036  11.267 -0.4686 -0.0012  0.4860
 1549TIP3    H126062   2.340   3.123  11.297 -1.9175  0.4136  0.5370
 1549TIP3    H226063   2.249   3.051  11.200  1.7243 -0.9499 -2.1144
 1550TIP3   OH226064   3.167   6.497   4.195  0.4739  0.5441 -0.1038
 1550TIP3    H126065   3.196   6.410   4.224 -0.4747 -0.2713 -1.5007
 1550TIP3    H226066   3.128   6.536   4.273  1.3035 -0.0971  0.6555
 1551TIP3   OH226067   3.939   0.854  12.174  0.1671 -0.2798 -0.3193
 1551TIP3    H126068   3.877   0.912  12.129  0.3097  0.1763  0.0622
 1551TIP3    H226069   3.888   0.814  12.244  0.2360 -0.1087 -0.1716
 1552TIP3   OH226070   1.870   2.951   2.639 -0.3238  0.5103  0.2263
 1552TIP3    H126071   1.774   2.947   2.644 -0.2944  0.2158  0.5913
 1552TIP3    H226072   1.898   2.859   2.646  0.0434  0.7071  1.4570
 1553TIP3   OH226073   2.684   2.231  14.626  0.3816  0.4987 -0.1012
 1553TIP3    H126074   2.654   2.220  14.536  0.2362  0.7600 -0.0852
 1553TIP3    H226075   2.750   2.300  14.621  0.9071 -0.0007 -0.1195
 1554TIP3   OH226076   6.158   0.246  16.519 -0.1873  1.0537 -0.0271
 1554TIP3    H126077   6.217   0.175  16.492 -1.6082 -0.7887  1.3641
 1554TIP3    H226078   6.186   0.268  16.608 -2.0025 -0.4824  1.0182
 1555TIP3   OH226079   5.801   3.225   2.749 -0.2978  0.4423 -0.4137
 1555TIP3    H126080   5.869   3.205   2.684 -1.9171 -1.3395 -1.6826
 1555TIP3    H226081   5.737   3.277   2.701 -1.2325 -0.4034 -0.1274
 1556TIP3   OH226082   2.195   2.699  17.146 -0.1377  0.3463 -0.3974
 1556TIP3    H126083   2.289   2.687  17.129 -0.2496 -0.9792 -0.1569
 1556TIP3    H226084   2.154   2.623  17.106 -1.0085  0.3446  0.4694
 1557TIP3   OH226085   0.195   1.877   4.329  0.2039  0.3984 -0.2167
 1557TIP3    H126086   0.100   1.884   4.338  0.0233  0.4991 -1.9988
 1557TIP3    H226087   0.228   1.900   4.416 -1.4748 -1.9266  1.1521
 1558TIP3   OH226088   1.591   0.739  17.021  0.3153  0.1182 -0.2239
 1558TIP3    H126089   1.615   0.738  17.114  1.0508 -1.4383 -0.3930
 1558TIP3    H226090   1.581   0.832  17.000 -1.0375  0.4568  1.6849
 1559TIP3   OH226091   2.447   1.738  14.462  0.4893  0.6313 -0.1200
 1559TIP3    H126092   2.413   1.731  14.373 -0.6442  0.7120  0.2880
 1559TIP3    H226093   2.491   1.823  14.465 -0.9569  1.4037 -0.1392
 1560TIP3   OH226094   1.835   0.688   1.608  0.2718 -0.5644 -0.1852
 1560TIP3    H126095   1.906   0.706   1.670 -0.8328 -0.0651  0.9977
 1560TIP3    H226096   1.864   0.612   1.559  2.1500  0.3613 -0.5908
 1561TIP3   OH226097   2.179   2.856  13.091 -0.0507 -0.6236 -0.1639
 1561TIP3    H126098   2.116   2.842  13.162  0.6950 -0.7493  0.4827
 1561TIP3    H226099   2.162   2.784  13.030  0.0368 -1.1635  0.4318
 1562TIP3   OH226100   4.777   4.015  13.843  0.4822 -0.6955 -0.1412
 1562TIP3    H126101   4.788   3.962  13.922 -2.2250  1.6735  1.9983
 1562TIP3    H226102   4.831   4.092  13.857 -1.7672  0.8474  0.6129
 1563TIP3   OH226103   1.092   4.608  15.458 -0.2779 -0.1709  0.2060
 1563TIP3    H126104   1.181   4.627  15.429 -0.0512 -1.1468  0.2208
 1563TIP3    H226105   1.041   4.684  15.430 -0.1639 -1.2078 -3.1664
 1564TIP3   OH226106   5.679   6.088   2.558  0.3702 -0.2298  0.0237
 1564TIP3    H126107   5.614   6.066   2.491  0.6213 -1.2309  0.0835
 1564TIP3    H226108   5.753   6.031   2.538  1.3921  1.1751 -0.2685
 1565TIP3   OH226109   4.938   3.347   0.343  0.4909 -0.8248 -0.7940
 1565TIP3    H126110   5.024   3.387   0.330  0.2366 -0.0361 -0.1794
 1565TIP3    H226111   4.926   3.346   0.438 -0.6340  0.1112 -0.8972
 1566TIP3   OH226112   4.835   5.169  13.744  0.5036 -0.2843 -0.1906
 1566TIP3    H126113   4.850   5.087  13.791  0.2045 -0.7476 -0.8906
 1566TIP3    H226114   4.904   5.172  13.679 -0.3708 -0.7420 -1.1670
 1567TIP3   OH226115   3.904   1.976   6.074 -0.7461  0.3739  0.3305
 1567TIP3    H126116   3.829   2.009   6.124 -2.1162 -1.4110 -0.4460
 1567TIP3    H226117   3.963   1.940   6.141 -1.4536  0.1264  0.8301
 1568TIP3   OH226118   3.774   2.957  14.714  0.1511 -0.1130  0.0102
 1568TIP3    H126119   3.771   3.019  14.787  0.8076 -0.2625  0.1680
 1568TIP3    H226120   3.865   2.929  14.710 -0.0710 -0.8176 -0.2780
 1569TIP3   OH226121   4.886   1.233  15.790  0.4654 -0.3375 -0.1813
 1569TIP3    H126122   4.969   1.280  15.778 -0.5371  1.4720 -0.4179
 1569TIP3    H226123   4.892   1.158  15.731  1.6187  0.1739 -0.7477
 1570TIP3   OH226124   3.116   2.436   5.857 -0.2132 -0.1493 -0.4751
 1570TIP3    H126125   3.072   2.506   5.809  0.9288  1.5191  0.7733
 1570TIP3    H226126   3.046   2.391   5.904 -1.2031 -1.0971 -2.7147
 1571TIP3   OH226127   6.267   5.788  17.290  0.2223 -0.3965  0.4886
 1571TIP3    H126128   6.349   5.746  17.263  0.5355 -0.3345  1.3254
 1571TIP3    H226129   6.217   5.718  17.331 -1.1000 -0.9852 -1.9391
 1572TIP3   OH226130   1.829   2.521  15.656  0.0545  0.0209 -0.4375
 1572TIP3    H126131   1.827   2.431  15.624  2.0468  0.0843 -0.9089
 1572TIP3    H226132   1.893   2.519  15.727 -2.6891  0.3373  2.2708
 1573TIP3   OH226133   6.656   6.234   3.298 -0.3124 -0.2114  0.4215
 1573TIP3    H126134   6.715   6.212   3.370 -0.6353  1.2655  1.1714
 1573TIP3    H226135   6.575   6.263   3.340 -0.5991  0.4587 -0.5404
 1574TIP3   OH226136   3.829   1.436  16.478 -0.4447  0.4720  0.0800
 1574TIP3    H126137   3.882   1.425  16.400 -1.5623  0.2143 -0.6585
 1574TIP3    H226138   3.858   1.519  16.516  0.4247  0.3630 -0.3429
 1575TIP3   OH226139   1.949   0.354   4.643  0.0214  0.1957  0.1492
 1575TIP3    H126140   1.936   0.316   4.556  0.2100 -3.9791  1.6967
 1575TIP3    H226141   2.021   0.303   4.681  0.1299  2.0356  2.6857
 1576TIP3   OH226142   1.852   4.194  17.072  0.0798 -0.3290 -0.0839
 1576TIP3    H126143   1.815   4.251  17.139  1.2409  0.7741 -0.3509
 1576TIP3    H226144   1.928   4.154  17.114 -0.1628 -0.9380 -0.2155
 1577TIP3   OH226145   2.018   3.140   4.652 -0.0861  0.4983 -0.2168
 1577TIP3    H126146   2.102   3.148   4.607 -0.0008  0.3602 -0.0853
 1577TIP3    H226147   2.040   3.095   4.734 -0.2740  0.5468 -0.1403
 1578TIP3   OH226148   0.540   4.621   4.572 -0.0400  0.1123 -0.0825
 1578TIP3    H126149   0.479   4.690   4.597  2.1958  1.0661  3.4401
 1578TIP3    H226150   0.512   4.544   4.623 -0.9593 -0.9136 -2.0121
 1579TIP3   OH226151   6.266   5.366   3.068 -0.3771 -0.1989 -0.3404
 1579TIP3    H126152   6.288   5.395   3.157 -0.6657 -1.9631  0.3588
 1579TIP3    H226153   6.177   5.332   3.076 -0.0928 -1.1705 -1.0789
 1580TIP3   OH226154   0.448   5.376   3.413 -0.0899 -0.1898 -0.2720
 1580TIP3    H126155   0.438   5.445   3.348  0.4340 -0.7768 -0.9959
 1580TIP3    H226156   0.492   5.305   3.366 -0.3704 -0.9109  0.5286
 1581TIP3   OH226157   3.163   1.919   2.593 -0.0760  0.4434  0.2884
 1581TIP3    H126158   3.169   1.868   2.512 -0.2649 -1.7551  1.5504
 1581TIP3    H226159   3.082   1.889   2.634  0.7390  0.3767  1.9540
 1582TIP3   OH226160   5.336   3.582   4.838 -0.7430 -0.9340 -0.4223
 1582TIP3    H126161   5.270   3.652   4.835 -0.3781 -0.5633 -0.0066
 1582TIP3    H226162   5.369   3.585   4.928  0.8069 -0.2097 -0.9777
 1583TIP3   OH226163   1.945   0.438  14.045  0.4102  0.3969 -0.2704
 1583TIP3    H126164   1.871   0.500  14.049  2.6496  3.4225 -1.5462
 1583TIP3    H226165   1.985   0.442  14.131  0.7517  1.0329 -0.4544
 1584TIP3   OH226166   2.911   0.821  14.730 -0.0587  0.1664  0.3140
 1584TIP3    H126167   2.898   0.767  14.808  4.3094 -1.6284  0.0899
 1584TIP3    H226168   2.911   0.758  14.658  0.7594  1.1037 -0.5298
 1585TIP3   OH226169   5.067   1.197  12.250 -0.0080 -0.2778  0.0691
 1585TIP3    H126170   5.127   1.226  12.182  1.4687 -2.1872  0.4653
 1585TIP3    H226171   5.090   1.249  12.327  1.1746 -0.9945  0.2176
 1586TIP3   OH226172   2.938   4.423  11.818  0.1747  0.0931 -0.7332
 1586TIP3    H126173   2.950   4.329  11.825  0.3417  0.0741 -1.2593
 1586TIP3    H226174   2.884   4.435  11.740 -1.4202  0.3137  0.3423
 1587TIP3   OH226175   2.926   2.731   5.946 -0.2111  0.3404  0.3138
 1587TIP3    H126176   2.841   2.716   5.905 -0.2061 -1.1142  0.8069
 1587TIP3    H226177   2.907   2.790   6.019 -0.5260  1.3216 -0.5402
 1588TIP3   OH226178   1.507   0.574   4.176  0.5755  0.5069 -0.1189
 1588TIP3    H126179   1.465   0.657   4.151 -1.5433 -0.8030 -1.1418
 1588TIP3    H226180   1.581   0.566   4.116  0.0448  1.0655 -0.8692
 1589TIP3   OH226181   6.405   3.138   3.028  0.3335 -0.6195 -0.1364
 1589TIP3    H126182   6.358   3.093   3.099 -1.0275 -0.0237 -0.6159
 1589TIP3    H226183   6.363   3.224   3.023  2.3821  0.4662  0.2603
 1590TIP3   OH226184   0.118   4.313  12.610 -0.4688  0.5572 -0.3834
 1590TIP3    H126185   0.209   4.283  12.606 -1.0704 -1.3472 -0.6916
 1590TIP3    H226186   0.086   4.304  12.520 -1.6944 -1.3070  0.2064
 1591TIP3   OH226187   5.937   1.731   0.107 -0.1571  1.1361 -0.5952
 1591TIP3    H126188   5.992   1.667   0.062 -2.1609 -0.4209 -0.9798
 1591TIP3    H226189   5.881   1.678   0.164  1.2882  2.9165  2.8176
 1592TIP3   OH226190   1.162   6.540   4.889 -0.6138 -0.7966  0.4860
 1592TIP3    H126191   1.249   6.555   4.852 -0.1375  1.2530  2.2574
 1592TIP3    H226192   1.178   6.486   4.967 -0.7850  0.2916  1.2979
 1593TIP3   OH226193   1.571   4.030  12.672  0.2506 -0.9237 -0.1742
 1593TIP3    H126194   1.579   4.123  12.652 -0.5579 -0.8887 -0.3809
 1593TIP3    H226195   1.565   4.026  12.767  0.6334 -0.7957 -0.1430
 1594TIP3   OH226196   4.298   3.183  12.684  0.2526  0.4810  0.4127
 1594TIP3    H126197   4.239   3.258  12.677  0.7340  0.9678  1.3787
 1594TIP3    H226198   4.289   3.138  12.600  2.9244  3.7606 -1.8834
 1595TIP3   OH226199   3.119   5.681   3.500  0.1409  0.0431  0.2222
 1595TIP3    H126200   3.129   5.660   3.408 -0.7684 -0.2839  0.1876
 1595TIP3    H226201   3.027   5.663   3.519  0.5305 -0.8180  1.4220
 1596TIP3   OH226202   5.785   1.742  14.061 -0.0835 -0.0064  0.1341
 1596TIP3    H126203   5.691   1.752  14.045  0.0534  2.5435  0.5928
 1596TIP3    H226204   5.804   1.803  14.132  2.1468  0.4864 -0.7965
 1597TIP3   OH226205   1.558   1.022  16.915 -0.1213  0.0032  0.2158
 1597TIP3    H126206   1.631   1.042  16.974  1.4002 -0.0851 -1.5540
 1597TIP3    H226207   1.576   1.073  16.836 -2.5083  0.7114  0.0474
 1598TIP3   OH226208   6.760   3.508   4.156  0.3882 -0.6752  0.4469
 1598TIP3    H126209   6.749   3.569   4.228  1.3402 -0.2694  0.2553
 1598TIP3    H226210   6.814   3.438   4.192  0.1449 -0.9065  0.3688
 1599TIP3   OH226211   5.459   5.253   1.462  0.2569  0.5494  0.2049
 1599TIP3    H126212   5.451   5.162   1.489 -1.1974  0.9610  1.3151
 1599TIP3    H226213   5.372   5.291   1.479  0.2546  1.6967 -2.0026
 1600TIP3   OH226214   4.855   0.553  14.210 -0.3318 -0.3714  0.4359
 1600TIP3    H126215   4.827   0.486  14.148  0.0348 -0.5169  0.4208
 1600TIP3    H226216   4.929   0.512  14.257  1.0479  0.6247 -0.7766
 1601TIP3   OH226217   6.737   1.001   2.399  0.0160  0.2724 -0.6584
 1601TIP3    H126218   6.768   0.911   2.395 -0.6113 -0.0445  0.9391
 1601TIP3    H226219   6.641   0.993   2.394 -0.1044  0.7420  0.5421
 1602TIP3   OH226220   0.921   0.866  13.649 -0.4368  0.0490  0.2122
 1602TIP3    H126221   0.867   0.803  13.602 -2.0558  0.2806  1.6463
 1602TIP3    H226222   1.006   0.863  13.605 -1.3116 -1.0557 -1.5070
 1603TIP3   OH226223   1.786   0.339  14.310 -0.3233  0.1193 -0.1203
 1603TIP3    H126224   1.789   0.301  14.223 -1.9747  2.3981 -1.2774
 1603TIP3    H226225   1.708   0.301  14.350 -0.4777  0.2911 -0.2583
 1604TIP3   OH226226   5.052   2.757   6.341  0.0843  0.1727  0.1603
 1604TIP3    H126227   5.064   2.718   6.428  3.2412 -0.1189 -0.2767
 1604TIP3    H226228   5.012   2.842   6.358 -2.9083 -1.3616  1.5013
 1605TIP3   OH226229   2.776   1.806  16.308  0.5593 -0.5614 -0.6191
 1605TIP3    H126230   2.870   1.787  16.307  0.7337  0.2320 -1.7057
 1605TIP3    H226231   2.742   1.763  16.229 -0.0267 -0.9503 -0.1657
 1606TIP3   OH226232   0.854   2.158  15.394  0.0304 -0.1245  0.2253
 1606TIP3    H126233   0.846   2.191  15.304 -2.0001 -1.5291 -0.1840
 1606TIP3    H226234   0.946   2.133  15.402  0.3576  0.4878 -1.2997
 1607TIP3   OH226235   5.094   4.571   5.883 -0.2320 -0.9752  0.1249
 1607TIP3    H126236   5.084   4.522   5.964 -0.4574 -0.0180  0.6819
 1607TIP3    H226237   5.095   4.663   5.909 -1.8072 -0.5727 -1.0921
 1608TIP3   OH226238   6.523   1.419   3.994  0.3265  0.4488 -0.5702
 1608TIP3    H126239   6.472   1.478   3.938  0.1180 -0.1034 -0.9723
 1608TIP3    H226240   6.591   1.384   3.936 -0.0237 -0.2908 -0.5375
 1609TIP3   OH226241   3.686   4.531  14.230 -0.1441  0.5558  0.3417
 1609TIP3    H126242   3.591   4.541  14.242 -0.2488 -0.2966  0.2818
 1609TIP3    H226243   3.699   4.436  14.225  0.6267  0.6901 -0.3468
 1610TIP3   OH226244   0.733   4.887   5.674 -0.3452 -0.2114  0.3277
 1610TIP3    H126245   0.653   4.836   5.672 -0.5155 -0.0930  2.3947
 1610TIP3    H226246   0.715   4.958   5.735  0.8300  0.7242 -0.3673
 1611TIP3   OH226247   6.197   3.782   4.976 -0.8021  0.3592 -0.2050
 1611TIP3    H126248   6.164   3.826   5.055 -1.1884  0.6799 -0.5430
 1611TIP3    H226249   6.247   3.850   4.930  2.1927 -0.6042  1.3202
 1612TIP3   OH226250   4.439   3.522  16.349  0.4011  0.4905  0.4318
 1612TIP3    H126251   4.521   3.569  16.333 -0.4196  1.2805 -1.8008
 1612TIP3    H226252   4.377   3.560  16.287 -0.7156 -2.4940 -0.4372
 1613TIP3   OH226253   0.990   0.219   1.066 -0.0786  0.4457 -0.4699
 1613TIP3    H126254   0.940   0.139   1.046  0.7051 -0.1009 -0.3043
 1613TIP3    H226255   1.081   0.189   1.074 -0.0378  0.9831  1.7664
 1614TIP3   OH226256   5.710   0.435  14.040  0.4985 -0.1658  0.3212
 1614TIP3    H126257   5.799   0.434  14.076  1.2176  0.9467 -1.3199
 1614TIP3    H226258   5.701   0.522  14.002 -0.6741 -0.8710 -1.0929
 1615TIP3   OH226259   4.519   5.503  11.811  0.0942 -0.1262  0.4529
 1615TIP3    H126260   4.534   5.568  11.742  1.0541  1.2769  1.9163
 1615TIP3    H226261   4.457   5.545  11.870 -1.4269 -1.6751  0.0273
 1616TIP3   OH226262   6.518   3.310   4.239  0.0586 -0.5015 -0.4965
 1616TIP3    H126263   6.442   3.302   4.181 -0.8070  2.3841  0.0442
 1616TIP3    H226264   6.592   3.326   4.180 -0.7306  1.9427 -0.9628
 1617TIP3   OH226265   6.050   4.461  15.157 -0.0036 -0.2711  0.0939
 1617TIP3    H126266   6.061   4.407  15.235  0.1078 -0.8711 -0.3223
 1617TIP3    H226267   6.109   4.534  15.168 -1.7306  0.9721  1.6969
 1618TIP3   OH226268   4.172   2.731  13.471 -0.3288 -0.9014 -1.2961
 1618TIP3    H126269   4.145   2.666  13.405 -0.4820 -1.8566 -0.3135
 1618TIP3    H226270   4.262   2.707  13.492  0.0087 -0.0781 -1.7497
 1619TIP3   OH226271   6.075   5.799  16.246  0.3172  0.0507  0.3598
 1619TIP3    H126272   6.154   5.842  16.214  1.1828  0.2190  2.6093
 1619TIP3    H226273   6.007   5.867  16.239  0.7561  0.4714  0.1089
 1620TIP3   OH226274   4.080   5.728  14.505  0.2886  0.4984 -0.7025
 1620TIP3    H126275   3.991   5.757  14.482  0.1463  1.5936  1.0389
 1620TIP3    H226276   4.092   5.758  14.595  1.1599 -2.6144  0.3524
 1621TIP3   OH226277   1.768   3.222   0.365  0.2237 -0.3698  0.4468
 1621TIP3    H126278   1.826   3.153   0.331 -0.7228 -0.5064 -0.9627
 1621TIP3    H226279   1.743   3.191   0.452  3.0035  0.1572  1.5432
 1622TIP3   OH226280   1.852   0.988  15.371 -0.0571  0.7009  0.2237
 1622TIP3    H126281   1.778   0.949  15.324  1.0670  1.1868 -2.0793
 1622TIP3    H226282   1.929   0.943  15.336  0.8226  0.5934  2.1594
 1623TIP3   OH226283   5.379   2.955  12.086 -0.0422  0.5108  0.2648
 1623TIP3    H126284   5.431   2.980  12.010  0.0821  0.5460  0.3601
 1623TIP3    H226285   5.290   2.982  12.065 -0.4622 -1.5734 -0.8676
 1624TIP3   OH226286   2.539   3.988   5.320 -0.0070  0.8545 -0.1078
 1624TIP3    H126287   2.449   3.973   5.290 -0.5387 -1.8218  2.4028
 1624TIP3    H226288   2.583   3.904   5.308  1.7039  1.6690  0.1868
 1625TIP3   OH226289   0.929   2.889   2.080  0.1470 -0.0302 -0.2617
 1625TIP3    H126290   0.951   2.796   2.082  1.0304  0.1750  0.6839
 1625TIP3    H226291   0.891   2.904   1.994  1.7244 -0.8831 -1.1390
 1626TIP3   OH226292   2.480   0.924   3.637 -1.0936  0.2891 -0.3011
 1626TIP3    H126293   2.542   0.897   3.705  0.1011  0.2519 -1.3753
 1626TIP3    H226294   2.527   0.988   3.585 -1.7389 -0.1888 -1.5141
 1627TIP3   OH226295   2.914   1.823  15.854 -0.6031  0.0645  0.1792
 1627TIP3    H126296   2.962   1.899  15.820 -1.5360  1.4445  1.7498
 1627TIP3    H226297   2.823   1.855  15.861 -0.8071 -0.8392  1.8956
 1628TIP3   OH226298   2.917   6.721   2.425  0.3166 -0.3915  0.4470
 1628TIP3    H126299   3.010   6.726   2.402  0.4956 -2.0326  0.6891
 1628TIP3    H226300   2.913   6.755   2.515  0.4221  1.1404 -0.1069
 1629TIP3   OH226301   5.915   5.555   5.831  0.1417  0.1592 -0.8025
 1629TIP3    H126302   5.880   5.509   5.908  1.8564  0.6015  0.2857
 1629TIP3    H226303   5.926   5.486   5.766  0.5219 -0.5972  0.0330
 1630TIP3   OH226304   4.286   2.282  14.430 -0.2597 -0.6195 -0.1809
 1630TIP3    H126305   4.276   2.240  14.516 -0.9838  1.4996  0.8585
 1630TIP3    H226306   4.376   2.313  14.430  0.0833 -1.5865 -0.6833
 1631TIP3   OH226307   4.871   1.289  14.501 -0.3400 -0.2170  0.1544
 1631TIP3    H126308   4.807   1.285  14.572  1.3459  0.5419  1.8083
 1631TIP3    H226309   4.838   1.227  14.436 -1.5600 -1.5765  1.9481
 1632TIP3   OH226310   6.406   5.150  15.706  0.0615 -0.1552 -0.3363
 1632TIP3    H126311   6.331   5.113  15.753 -0.2341 -0.9216 -1.3784
 1632TIP3    H226312   6.442   5.215  15.766 -2.0240  0.9576 -0.2057
 1633TIP3   OH226313   5.742   4.309   6.254  0.4307 -0.9443 -0.1266
 1633TIP3    H126314   5.744   4.283   6.162  0.2164  0.7243 -0.6328
 1633TIP3    H226315   5.827   4.351   6.269  0.6030 -1.5061  0.5555
 1634TIP3   OH226316   1.897   4.087   2.757 -0.1534 -0.0976 -0.0806
 1634TIP3    H126317   1.866   3.997   2.765 -0.9420  0.3016  1.9481
 1634TIP3    H226318   1.918   4.113   2.847 -1.1139  2.1269 -0.4372
 1635TIP3   OH226319   2.370   5.202   3.731  0.0325  0.2143 -0.1404
 1635TIP3    H126320   2.323   5.284   3.724 -0.0659  0.2294  0.6127
 1635TIP3    H226321   2.303   5.134   3.719 -0.0568  0.2422  0.1802
 1636TIP3   OH226322   2.683   5.823  11.380  0.7829  0.0406 -0.4924
 1636TIP3    H126323   2.657   5.915  11.383  0.4430 -0.0839  1.0947
 1636TIP3    H226324   2.718   5.811  11.292  1.9616  1.9978 -0.3519
 1637TIP3   OH226325   5.710   4.504   0.804  0.2095  0.1008  0.1457
 1637TIP3    H126326   5.646   4.455   0.752 -0.4731  2.0567 -0.9491
 1637TIP3    H226327   5.766   4.437   0.842 -1.1849 -1.5662 -0.5948
 1638TIP3   OH226328   0.151   5.615  12.859  0.1654 -0.0309  0.4913
 1638TIP3    H126329   0.101   5.621  12.777  0.9902  0.3732  0.0009
 1638TIP3    H226330   0.110   5.681  12.916 -1.5379 -1.4986  1.0628
 1639TIP3   OH226331   2.012   3.880   5.508  0.0440 -0.4626  0.9298
 1639TIP3    H126332   2.015   3.896   5.602  0.3707 -1.3826  1.0863
 1639TIP3    H226333   2.099   3.846   5.486  0.1210  0.1668  0.2129
 1640TIP3   OH226334   4.545   5.174   4.663 -0.0989 -0.0145 -0.1178
 1640TIP3    H126335   4.510   5.089   4.639 -0.9496  0.1788  0.4022
 1640TIP3    H226336   4.493   5.237   4.612 -1.6428  0.3733  1.8102
 1641TIP3   OH226337   1.472   4.900  13.122  0.6902  0.0008  0.7135
 1641TIP3    H126338   1.559   4.882  13.158  0.4123  0.2056  1.5074
 1641TIP3    H226339   1.429   4.955  13.188  0.0082  0.0245  0.2647
 1642TIP3   OH226340   5.893   0.179   6.132  0.4763  0.8189 -0.4212
 1642TIP3    H126341   5.932   0.095   6.157  0.8526  0.1891 -2.8044
 1642TIP3    H226342   5.921   0.240   6.200  0.0913 -0.9835  1.4395
 1643TIP3   OH226343   3.719   4.744   1.512 -0.3157  0.4572 -0.2154
 1643TIP3    H126344   3.772   4.716   1.587 -0.3122 -0.9227 -0.7188
 1643TIP3    H226345   3.629   4.745   1.546 -0.2001  0.8810  0.0905
 1644TIP3   OH226346   4.243   5.225  15.485  0.0586 -0.1401  0.3562
 1644TIP3    H126347   4.175   5.158  15.478  0.7464 -1.1618  2.5025
 1644TIP3    H226348   4.224   5.286  15.414 -1.5228 -1.7780 -0.7175
 1645TIP3   OH226349   1.723   5.547  14.809 -0.4250 -0.3557  0.9858
 1645TIP3    H126350   1.805   5.577  14.849 -0.1396 -1.4968  1.2905
 1645TIP3    H226351   1.720   5.453  14.827 -1.6318 -0.4023  0.6677
 1646TIP3   OH226352   0.106   1.243  12.416  0.0302  0.5233 -0.4373
 1646TIP3    H126353   0.066   1.270  12.333 -0.3009 -0.9106 -0.7670
 1646TIP3    H226354   0.200   1.262  12.404  0.0298  0.0655 -1.2576
 1647TIP3   OH226355   6.066   5.317   0.673 -0.0594 -0.2999 -0.0192
 1647TIP3    H126356   6.068   5.361   0.758  0.4427 -1.6090  0.6889
 1647TIP3    H226357   6.006   5.369   0.620  0.7623  1.3962  0.6427
 1648TIP3   OH226358   1.314   2.461  12.887 -0.6037 -0.6200 -0.0253
 1648TIP3    H126359   1.257   2.495  12.818  1.3200  1.8158 -0.5521
 1648TIP3    H226360   1.261   2.465  12.966 -1.3103  1.2460 -0.5480
 1649TIP3   OH226361   5.092   1.711  10.764  0.1181  0.2079  0.0967
 1649TIP3    H126362   5.166   1.715  10.703  1.0745  1.0786  1.2478
 1649TIP3    H226363   5.090   1.798  10.804 -3.0678  1.0466 -1.5945
 1650TIP3   OH226364   5.716   3.830   2.960 -0.5267  0.0875  0.0760
 1650TIP3    H126365   5.673   3.843   2.876 -0.4277  1.5697  0.2339
 1650TIP3    H226366   5.670   3.756   2.999  0.2352 -1.4669 -1.7775
 1651TIP3   OH226367   5.930   3.230   1.227 -0.3442 -0.2100 -0.7630
 1651TIP3    H126368   5.903   3.191   1.144  0.1246  0.7168 -1.3574
 1651TIP3    H226369   5.847   3.250   1.272 -0.6680  1.0647 -1.8538
 1652TIP3   OH226370   4.413   4.229   3.885  0.1479  0.3659  0.6861
 1652TIP3    H126371   4.352   4.237   3.958  0.4058  0.0815  0.9321
 1652TIP3    H226372   4.363   4.259   3.809  0.0377  1.1497  1.0570
 1653TIP3   OH226373   4.281   5.069  15.995 -0.1213  0.5506 -0.2287
 1653TIP3    H126374   4.359   5.062  15.939  0.1309  1.6934 -0.0556
 1653TIP3    H226375   4.226   5.134  15.950 -0.1953  1.0201  0.5284
 1654TIP3   OH226376   0.310   4.225  17.120  0.1231  0.5444  0.2420
 1654TIP3    H126377   0.340   4.226  17.029 -1.2477  0.1956 -0.2330
 1654TIP3    H226378   0.358   4.297  17.162  1.6620 -0.0364 -0.4337
 1655TIP3   OH226379   0.047   4.958  14.192 -0.1390  0.1833  0.2669
 1655TIP3    H126380   0.006   4.906  14.262 -0.1048 -0.0020  0.1499
 1655TIP3    H226381   0.125   4.994  14.233 -0.4448  0.5803  0.5066
 1656TIP3   OH226382   0.730   6.404   4.270 -0.3030  0.4058  0.3375
 1656TIP3    H126383   0.778   6.383   4.351  1.1973 -0.6695 -0.7773
 1656TIP3    H226384   0.674   6.478   4.295  0.4785  0.4351  2.2339
 1657TIP3   OH226385   0.408   2.795  17.281  0.4875  0.4709 -0.3916
 1657TIP3    H126386   0.421   2.773  17.189  0.8586 -1.0838  0.0172
 1657TIP3    H226387   0.470   2.741  17.329 -1.6986 -0.9743  0.9841
 1658TIP3   OH226388   2.378   3.973   5.821 -0.2519  0.0248  0.1246
 1658TIP3    H126389   2.457   3.983   5.874  0.0629  0.0130 -0.3335
 1658TIP3    H226390   2.306   3.981   5.883  0.1292 -2.3968  0.9512
 1659TIP3   OH226391   3.905   5.458   2.428 -0.2629  0.0700 -0.2548
 1659TIP3    H126392   3.865   5.391   2.371 -0.8008 -0.8842  1.1950
 1659TIP3    H226393   3.843   5.530   2.427 -1.9299 -1.2554  1.6847
 1660TIP3   OH226394   4.478   5.338  14.048  0.5815 -0.0886  0.4120
 1660TIP3    H126395   4.503   5.246  14.034  1.2073  0.0326  0.6929
 1660TIP3    H226396   4.543   5.388  13.999  1.5041  0.2636  1.9134
 1661TIP3   OH226397   6.288   4.146  13.800  0.3205 -0.1119 -0.3343
 1661TIP3    H126398   6.306   4.235  13.771 -0.4865 -0.2268 -1.2106
 1661TIP3    H226399   6.194   4.136  13.791  0.4175 -1.1078 -0.3727
 1662TIP3   OH226400   4.341   2.668  15.297  0.3329  0.1891 -0.0577
 1662TIP3    H126401   4.313   2.577  15.282  1.2966 -0.1590  0.2290
 1662TIP3    H226402   4.259   2.716  15.308 -0.1949 -0.6221 -0.3231
 1663TIP3   OH226403   5.160   4.215   0.376 -0.4144  0.1169  0.2431
 1663TIP3    H126404   5.238   4.238   0.326 -1.1857  1.5846 -0.3582
 1663TIP3    H226405   5.132   4.131   0.341  0.9911 -0.5176  0.6039
 1664TIP3   OH226406   4.446   4.759   3.886  0.2107 -0.1057  0.2957
 1664TIP3    H126407   4.518   4.756   3.822  1.2742  0.0480  1.4514
 1664TIP3    H226408   4.489   4.752   3.971 -1.3866 -3.6878  0.9714
 1665TIP3   OH226409   3.300   1.784   4.468  0.5954  0.3837  0.4192
 1665TIP3    H126410   3.286   1.783   4.373 -2.8876 -0.5020  0.8107
 1665TIP3    H226411   3.339   1.699   4.487  1.0351  0.4435 -0.1755
 1666TIP3   OH226412   2.353   1.754  13.031 -0.6439 -0.3009 -0.5824
 1666TIP3    H126413   2.333   1.836  12.985 -0.3290  0.2789  0.2884
 1666TIP3    H226414   2.441   1.767  13.066 -1.1051 -0.4867  0.6873
 1667TIP3   OH226415   1.137   4.235  15.712  0.0497 -0.4525 -0.2651
 1667TIP3    H126416   1.141   4.330  15.701  0.1889 -0.3375  0.6708
 1667TIP3    H226417   1.123   4.222  15.806  0.7855 -1.3654 -0.2590
 1668TIP3   OH226418   5.811   6.045  12.186 -0.1158 -0.2694 -0.8162
 1668TIP3    H126419   5.903   6.069  12.198 -0.2125  0.0174 -0.6192
 1668TIP3    H226420   5.790   6.073  12.097  0.1297 -0.8175 -1.0522
 1669TIP3   OH226421   4.086   3.233   3.516  0.5619 -0.9601 -0.1738
 1669TIP3    H126422   4.045   3.231   3.430 -0.9432 -1.4345  0.5118
 1669TIP3    H226423   4.179   3.220   3.499  0.4385  0.0761 -1.7876
 1670TIP3   OH226424   4.365   4.988  12.363  0.1942  0.1522 -0.3844
 1670TIP3    H126425   4.333   4.956  12.447  0.2529 -1.3451 -0.8994
 1670TIP3    H226426   4.405   5.073  12.382  0.6855 -0.4055  1.1925
 1671TIP3   OH226427   5.143   5.198  16.207 -0.0649 -0.2529 -0.5063
 1671TIP3    H126428   5.060   5.200  16.158 -1.7992 -0.8555  2.1828
 1671TIP3    H226429   5.163   5.105  16.215 -0.5411 -0.2578  0.9650
 1672TIP3   OH226430   5.808   1.180   4.751 -0.2796 -0.1004  0.3780
 1672TIP3    H126431   5.885   1.222   4.715 -1.4127  3.0104  1.2646
 1672TIP3    H226432   5.760   1.146   4.675  0.5595  0.4903 -0.4283
 1673TIP3   OH226433   6.677   4.424  13.769  0.2869 -0.3086  0.7250
 1673TIP3    H126434   6.707   4.335  13.754 -0.3017 -0.3993  0.0504
 1673TIP3    H226435   6.630   4.448  13.689  0.4228  0.5991  0.9001
 1674TIP3   OH226436   1.209   1.278  16.511  0.2638 -0.4984  0.5714
 1674TIP3    H126437   1.294   1.259  16.470 -0.2086 -0.0646 -0.6458
 1674TIP3    H226438   1.232   1.318  16.595  1.2641 -1.8086  0.9654
 1675TIP3   OH226439   6.748   2.462   0.569  0.6567  0.3713  0.5066
 1675TIP3    H126440   6.699   2.517   0.630  0.2086  0.1396  0.3653
 1675TIP3    H226441   6.807   2.522   0.523  1.4319  0.4570  1.5813
 1676TIP3   OH226442   1.917   0.880  16.173  0.1985  0.0483 -0.0714
 1676TIP3    H126443   1.953   0.791  16.170  2.7627  0.6746  4.1689
 1676TIP3    H226444   1.983   0.934  16.129 -0.0767  0.1892 -0.3193
 1677TIP3   OH226445   4.298   3.158  12.391  0.3095  0.0434 -0.4481
 1677TIP3    H126446   4.204   3.144  12.374  0.5895 -0.4271 -1.7147
 1677TIP3    H226447   4.334   3.070  12.398  0.9342  0.1907 -1.6448
 1678TIP3   OH226448   1.927   3.367   2.016  0.7532 -0.2665  0.8153
 1678TIP3    H126449   1.889   3.345   2.101 -2.2517  0.7356 -0.1328
 1678TIP3    H226450   1.903   3.293   1.960  0.7754  0.0907  0.3303
 1679TIP3   OH226451   0.571   5.436  11.262  0.1348  0.2582  0.5259
 1679TIP3    H126452   0.537   5.525  11.264 -1.5824 -0.3541  0.2244
 1679TIP3    H226453   0.494   5.380  11.274  1.1001 -1.2007  0.2482
 1680TIP3   OH226454   2.048   5.900  17.201 -0.4706  0.3241  0.2376
 1680TIP3    H126455   2.046   5.854  17.117 -1.2723 -0.8821  0.8813
 1680TIP3    H226456   2.096   5.840  17.259 -1.0398  0.5530  0.9615
 1681TIP3   OH226457   0.272   0.255   5.136  0.4539 -0.3317  0.1121
 1681TIP3    H126458   0.334   0.328   5.138 -0.8555  0.9500 -2.1839
 1681TIP3    H226459   0.218   0.267   5.214  2.2107 -0.7361  1.4461
 1682TIP3   OH226460   5.185   5.593  12.538  0.4874  0.1914 -0.0429
 1682TIP3    H126461   5.217   5.576  12.450  0.3359 -1.1430  0.1444
 1682TIP3    H226462   5.252   5.556  12.595  0.2851  0.4995  0.4045
 1683TIP3   OH226463   4.918   5.828   2.870 -0.0175  0.1333 -0.1248
 1683TIP3    H126464   4.955   5.756   2.921  2.1512  1.0434 -0.3104
 1683TIP3    H226465   4.926   5.799   2.779 -0.8223 -0.1182 -0.1220
 1684TIP3   OH226466   3.722   6.401  14.084  0.2287  0.6425  0.5891
 1684TIP3    H126467   3.648   6.340  14.079  1.5715 -1.2505  2.0612
 1684TIP3    H226468   3.787   6.363  14.025  0.2470  2.0310 -0.3303
 1685TIP3   OH226469   5.667   0.060  13.507 -0.1428  0.5192 -0.3655
 1685TIP3    H126470   5.761   0.051  13.521 -0.2947 -3.1406 -0.7170
 1685TIP3    H226471   5.630   0.070  13.595  0.5273  1.6760 -0.2023
 1686TIP3   OH226472   2.667   6.541  16.439 -0.2953 -0.0764  0.3597
 1686TIP3    H126473   2.755   6.506  16.448 -0.5045 -1.4139 -2.0567
 1686TIP3    H226474   2.660   6.606  16.509  3.6491  2.2875 -1.0981
 1687TIP3   OH226475   6.500   0.557   2.649 -0.0825 -0.0253 -0.5619
 1687TIP3    H126476   6.549   0.481   2.617  0.8263 -0.0965  0.8803
 1687TIP3    H226477   6.445   0.522   2.719  0.6287  0.6960  0.3723
 1688TIP3   OH226478   5.958   6.062   2.153 -0.5089  0.1363 -0.3333
 1688TIP3    H126479   6.036   6.095   2.109 -0.1883 -2.2152 -1.7103
 1688TIP3    H226480   5.929   6.134   2.208  1.5170  1.7482 -1.2459
 1689TIP3   OH226481   5.235   0.451   4.203 -0.1421  0.0594  0.7366
 1689TIP3    H126482   5.224   0.510   4.278  0.9984  1.0325  0.1623
 1689TIP3    H226483   5.309   0.486   4.155 -1.4294  0.0424 -1.3954
 1690TIP3   OH226484   0.281   0.988  12.723 -0.4311  0.0457 -0.0267
 1690TIP3    H126485   0.348   0.954  12.783 -1.1811  0.9924  1.3880
 1690TIP3    H226486   0.331   1.031  12.653  0.4528 -1.0441 -0.0965
 1691TIP3   OH226487   1.242   5.412   0.856  0.2809 -0.7059  0.5250
 1691TIP3    H126488   1.168   5.437   0.911 -0.4405  0.1979 -0.7996
 1691TIP3    H226489   1.203   5.368   0.781  0.6220  2.8615 -1.9899
 1692TIP3   OH226490   0.768   6.641   1.520  0.1858  0.2704 -0.1901
 1692TIP3    H126491   0.805   6.562   1.562 -1.8376 -1.8416 -2.1072
 1692TIP3    H226492   0.831   6.663   1.451  0.9845  0.6632  0.6385
 1693TIP3   OH226493   2.885   0.536   5.055 -0.1343 -0.1376  0.1678
 1693TIP3    H126494   2.872   0.478   4.980 -1.4691  2.0462 -1.3899
 1693TIP3    H226495   2.919   0.617   5.018 -3.6042  2.1025  1.4039
 1694TIP3   OH226496   2.378   0.092  16.343  0.5727 -0.2193 -0.0106
 1694TIP3    H126497   2.306   0.041  16.306 -0.8631  0.4744  1.6975
 1694TIP3    H226498   2.437   0.107  16.269 -1.6998  0.3602 -1.8085
 1695TIP3   OH226499   2.434   1.595  12.493 -0.4903  0.5079  0.1356
 1695TIP3    H126500   2.501   1.658  12.468 -0.0310  1.3233  3.0133
 1695TIP3    H226501   2.435   1.529  12.424  3.2379  0.5174 -0.0184
 1696TIP3   OH226502   5.419   1.318  10.428 -0.2588  0.0807  0.2375
 1696TIP3    H126503   5.333   1.275  10.430 -0.6985  0.9671  2.2411
 1696TIP3    H226504   5.477   1.260  10.476 -0.0485  0.1239  0.0400
 1697TIP3   OH226505   3.900   0.030  14.961  0.4781 -0.3050 -0.1245
 1697TIP3    H126506   3.962   0.087  15.006  1.0813 -0.1818 -1.0781
 1697TIP3    H226507   3.845   0.090  14.911  1.1400 -0.5486 -1.1631
 1698TIP3   OH226508   2.168   0.091   5.936 -0.1369 -0.3176  0.4024
 1698TIP3    H126509   2.123   0.115   6.017 -0.0086 -0.3316  0.4772
 1698TIP3    H226510   2.235   0.158   5.925 -0.7665  0.2280 -0.1917
 1699TIP3   OH226511   5.938   4.048   5.413 -0.2765 -0.0311 -0.7797
 1699TIP3    H126512   5.971   3.968   5.371 -0.5203  0.6351 -2.2961
 1699TIP3    H226513   5.897   4.017   5.494 -1.7609 -1.6867 -2.0788
 1700TIP3   OH226514   2.788   4.290   0.464 -0.0756  0.1400  0.2136
 1700TIP3    H126515   2.841   4.285   0.384  0.2743  2.6994  0.2133
 1700TIP3    H226516   2.712   4.235   0.444  0.8284 -0.6902 -1.1823
 1701TIP3   OH226517   0.274   5.903  16.436 -0.5328 -0.2083 -0.4805
 1701TIP3    H126518   0.232   5.958  16.369  0.6044 -0.4091 -1.3900
 1701TIP3    H226519   0.217   5.827  16.444 -0.5119 -0.3458 -1.4930
 1702TIP3   OH226520   6.201   1.361   3.323  0.1808 -0.4444 -0.0117
 1702TIP3    H126521   6.126   1.416   3.298 -0.0418 -1.1667 -0.9819
 1702TIP3    H226522   6.277   1.405   3.286 -0.0462 -1.0078 -1.1750
 1703TIP3   OH226523   3.507   1.130  12.072  0.1382  0.7453  0.1419
 1703TIP3    H126524   3.424   1.129  12.025  0.6766 -0.4383 -0.8378
 1703TIP3    H226525   3.492   1.074  12.148  0.7011 -1.5144 -1.3227
 1704TIP3   OH226526   4.921   1.639  16.157  0.1451 -0.3129 -0.0735
 1704TIP3    H126527   4.956   1.603  16.238 -0.5719 -2.4977 -0.6839
 1704TIP3    H226528   4.891   1.563  16.107 -0.4462  1.0546 -1.9200
 1705TIP3   OH226529   6.382   2.323   2.443 -0.2422  0.0076 -0.8548
 1705TIP3    H126530   6.383   2.412   2.406 -0.1387  0.7525  0.8318
 1705TIP3    H226531   6.323   2.330   2.518 -2.1028 -1.9596 -2.0367
 1706TIP3   OH226532   2.777   5.463   1.061  0.3464 -0.5949  0.3176
 1706TIP3    H126533   2.869   5.488   1.068  0.3190 -0.6313  0.8252
 1706TIP3    H226534   2.778   5.368   1.053  0.2364 -1.0511  3.8854
 1707TIP3   OH226535   4.183   5.381   5.091 -0.5361  0.3720 -0.0466
 1707TIP3    H126536   4.113   5.316   5.092  0.9362 -1.3157  0.6978
 1707TIP3    H226537   4.218   5.376   5.002 -0.4692  0.1905 -0.0103
 1708TIP3   OH226538   2.510   0.727  12.707  0.4119  0.1189 -0.7096
 1708TIP3    H126539   2.543   0.650  12.662 -2.6304 -1.1416 -1.0394
 1708TIP3    H226540   2.418   0.734  12.680 -0.8837  0.8405  3.1386
 1709TIP3   OH226541   4.098   2.768  13.070 -0.1284  0.3635 -0.3418
 1709TIP3    H126542   4.142   2.686  13.091 -0.2168  0.2805 -0.4866
 1709TIP3    H226543   4.011   2.742  13.040  0.5427  0.3758 -2.4142
 1710TIP3   OH226544   0.167   2.645  15.275  0.3548  0.1045  0.0610
 1710TIP3    H126545   0.113   2.614  15.347  0.2459  1.8311  0.7684
 1710TIP3    H226546   0.116   2.627  15.196 -0.2769 -0.2588  0.5497
 1711TIP3   OH226547   6.402   6.165  13.031 -0.0116  0.3990  0.5331
 1711TIP3    H126548   6.384   6.101  13.100  1.9599 -1.5349 -0.6082
 1711TIP3    H226549   6.434   6.243  13.078 -1.1935  0.1123  1.8811
 1712TIP3   OH226550   4.758   0.828   2.261  0.1647 -0.1200 -0.1521
 1712TIP3    H126551   4.673   0.805   2.223 -0.2427  0.1789  0.5494
 1712TIP3    H226552   4.816   0.841   2.186 -0.2898 -0.7758 -0.6293
 1713TIP3   OH226553   2.863   3.552   3.340 -0.4241  0.0391  0.7465
 1713TIP3    H126554   2.902   3.602   3.268 -1.3309 -1.6587 -1.0318
 1713TIP3    H226555   2.915   3.471   3.344 -1.4651 -0.6566  0.7582
 1714TIP3   OH226556   0.093   5.659  14.877 -0.2982  0.1136  0.2838
 1714TIP3    H126557   0.033   5.599  14.919 -0.4300 -0.2847 -0.4447
 1714TIP3    H226558   0.066   5.660  14.785  0.3408  0.4986  0.0896
 1715TIP3   OH226559   6.170   5.202  11.959  0.1347 -0.0369 -0.3234
 1715TIP3    H126560   6.237   5.228  11.896  0.2143  1.6177  0.3992
 1715TIP3    H226561   6.123   5.130  11.916  0.5818  0.6377 -1.9966
 1716TIP3   OH226562   4.068   3.353  12.588  0.4827  0.2268  0.3295
 1716TIP3    H126563   4.058   3.395  12.673  0.6384  2.0747 -0.5252
 1716TIP3    H226564   3.996   3.290  12.584 -0.6080  1.3716  1.1197
 1717TIP3   OH226565   1.267   4.125  11.082  0.0117  0.6535 -0.6711
 1717TIP3    H126566   1.328   4.165  11.145 -0.0303 -0.6819  0.2724
 1717TIP3    H226567   1.241   4.043  11.124 -1.5221  0.6403 -1.5982
 1718TIP3   OH226568   4.309   6.406   4.812 -0.2101 -0.3356  0.3003
 1718TIP3    H126569   4.276   6.330   4.860  1.0010 -0.9084  0.2458
 1718TIP3    H226570   4.363   6.369   4.742 -0.3246  0.5522 -0.2806
 1719TIP3   OH226571   1.893   5.303   1.173  0.1345  0.0640  0.5302
 1719TIP3    H126572   1.875   5.266   1.087  0.1848  1.9309 -0.3506
 1719TIP3    H226573   1.815   5.286   1.225 -0.5752  0.3470 -0.4268
 1720TIP3   OH226574   0.679   2.379   5.594 -0.3440 -0.1304  0.3846
 1720TIP3    H126575   0.719   2.419   5.517 -0.6962 -0.9615 -0.2530
 1720TIP3    H226576   0.753   2.346   5.646 -0.0929  0.6842  0.5575
 1721TIP3   OH226577   0.897   0.204  12.192 -0.3684 -0.0391  0.5141
 1721TIP3    H126578   0.913   0.252  12.111 -0.6712  1.8064  1.5011
 1721TIP3    H226579   0.969   0.141  12.197  2.0299  2.5290  0.7798
 1722TIP3   OH226580   3.651   4.696  12.852  0.4037  0.4011 -0.5841
 1722TIP3    H126581   3.742   4.712  12.877  0.7505 -0.8502 -0.9830
 1722TIP3    H226582   3.636   4.603  12.873 -0.5840  0.4280 -1.1183
 1723TIP3   OH226583   3.398   4.210  13.603  0.4121 -0.1691 -0.2484
 1723TIP3    H126584   3.350   4.133  13.635  0.2761  0.3768  0.9094
 1723TIP3    H226585   3.373   4.217  13.511  1.4159 -2.2500 -0.7327
 1724TIP3   OH226586   6.279   2.206   1.622  0.3648 -0.1825  0.0584
 1724TIP3    H126587   6.365   2.233   1.655 -1.1133  1.3518  3.0358
 1724TIP3    H226588   6.241   2.155   1.693 -0.5041 -2.6502 -2.0054
 1725TIP3   OH226589   2.326   1.964  13.418  0.5238 -0.3268 -0.0643
 1725TIP3    H126590   2.335   2.055  13.445 -1.1641 -0.3367  0.6862
 1725TIP3    H226591   2.406   1.921  13.449  0.5684  0.5551  1.1054
 1726TIP3   OH226592   2.506   5.498  10.634  0.0234  0.2488  0.0126
 1726TIP3    H126593   2.599   5.501  10.611 -0.0893  0.6614 -0.4040
 1726TIP3    H226594   2.462   5.473  10.553 -0.0752 -1.8482  0.6702
 1727TIP3   OH226595   1.458   6.748   2.458 -0.0565  0.1328  0.3623
 1727TIP3    H126596   1.415   6.663   2.451 -0.2842  0.3559 -1.7037
 1727TIP3    H226597   1.431   6.782   2.543 -0.2341 -1.7061  1.0693
 1728TIP3   OH226598   0.062   6.119  11.798  0.3155 -0.5234  0.0763
 1728TIP3    H126599   0.082   6.072  11.879  0.5126 -0.0568  0.3075
 1728TIP3    H226600  -0.033   6.122  11.794  0.2993  0.0904  0.6819
 1729TIP3   OH226601   0.609   3.316   5.901 -0.1187 -0.6638  0.1739
 1729TIP3    H126602   0.518   3.299   5.875  0.4678 -1.8091 -1.3370
 1729TIP3    H226603   0.620   3.267   5.982 -1.1220  0.3403  0.9442
 1730TIP3   OH226604   6.027   4.706   0.226  0.5596 -0.0417 -0.2213
 1730TIP3    H126605   6.072   4.628   0.261  1.8972  0.8310  0.0633
 1730TIP3    H226606   6.014   4.762   0.303 -0.3999  0.0326 -0.4260
 1731TIP3   OH226607   4.073   1.266   2.953 -0.2242  0.1667 -0.6968
 1731TIP3    H126608   4.071   1.325   2.878  0.6185  1.9136  0.5749
 1731TIP3    H226609   4.161   1.275   2.989 -1.4377  1.8396  2.2972
 1732TIP3   OH226610   4.799   1.794   2.760  0.0744 -0.0409 -0.1127
 1732TIP3    H126611   4.761   1.877   2.789  0.0626 -0.5130  1.2887
 1732TIP3    H226612   4.881   1.787   2.809  0.8048 -0.1763 -1.3176
 1733TIP3   OH226613   6.027   0.738   0.771 -0.1059 -0.2741  0.1521
 1733TIP3    H126614   5.985   0.666   0.818  0.6953 -0.7455  0.1695
 1733TIP3    H226615   5.956   0.800   0.753 -0.6861 -0.7628  0.7096
 1734TIP3   OH226616   5.124   4.631   1.042 -0.0067  0.5365 -0.2470
 1734TIP3    H126617   5.044   4.625   0.991 -0.7236 -1.1803  0.9929
 1734TIP3    H226618   5.107   4.701   1.105 -0.2491  0.6422 -0.4278
 1735TIP3   OH226619   5.358   2.875   5.060 -0.5687 -0.2637 -0.6983
 1735TIP3    H126620   5.267   2.878   5.030 -0.4132  0.5797 -1.1044
 1735TIP3    H226621   5.378   2.781   5.066 -1.5402 -0.4615 -0.3521
 1736TIP3   OH226622   4.017   4.943   4.287  0.4108  0.0639 -0.2159
 1736TIP3    H126623   4.075   4.998   4.340 -0.6099 -1.5420  2.7771
 1736TIP3    H226624   4.005   4.993   4.206  0.0810  3.9782  1.9685
 1737TIP3   OH226625   3.491   3.930  13.506 -0.1774 -0.3098 -0.2486
 1737TIP3    H126626   3.467   4.013  13.548 -0.4256 -0.2660 -0.4731
 1737TIP3    H226627   3.468   3.863  13.571 -1.9196 -0.3466 -0.8578
 1738TIP3   OH226628   6.112   0.134   1.939  0.7765 -0.0220  0.2159
 1738TIP3    H126629   6.046   0.070   1.911 -0.8809  1.3791  0.7673
 1738TIP3    H226630   6.157   0.160   1.859 -0.3344  0.0732 -0.3844
 1739TIP3   OH226631   0.453   0.065  16.448 -0.3363 -0.3838  0.5754
 1739TIP3    H126632   0.491   0.042  16.363 -0.6771  0.7738  0.0765
 1739TIP3    H226633   0.528   0.086  16.503 -0.1531  0.4720  0.0361
 1740TIP3   OH226634   2.065   5.493   3.565  0.1930 -0.6347  0.0933
 1740TIP3    H126635   2.052   5.440   3.486  1.6056 -0.5143 -0.2342
 1740TIP3    H226636   2.001   5.564   3.558  0.2242 -0.6993 -0.8698
 1741TIP3   OH226637   5.356   0.668  11.833 -0.5868  0.2982  0.4069
 1741TIP3    H126638   5.388   0.739  11.888  0.1257 -0.1238  0.5453
 1741TIP3    H226639   5.416   0.665  11.759 -0.1400 -0.6577  0.7877
 1742TIP3   OH226640   5.547   3.144  16.895  0.3419 -0.1348  0.1964
 1742TIP3    H126641   5.484   3.080  16.862 -0.6003  1.1845 -0.6908
 1742TIP3    H226642   5.497   3.196  16.958  1.1397 -0.3573  1.0409
 1743TIP3   OH226643   6.645   4.186  11.551 -0.4171  0.0908 -0.2717
 1743TIP3    H126644   6.718   4.247  11.538  0.4711 -0.7255  0.7240
 1743TIP3    H226645   6.571   4.243  11.576  0.1784  0.8294 -0.1534
 1744TIP3   OH226646   1.084   6.272  16.970 -0.4261  0.3052  0.2984
 1744TIP3    H126647   1.170   6.309  16.991 -0.5736  0.2966  0.9516
 1744TIP3    H226648   1.097   6.177  16.977 -0.2663  0.2607 -0.5091
 1745TIP3   OH226649   0.309   5.088  12.257 -0.1092 -0.2141 -0.3972
 1745TIP3    H126650   0.355   5.138  12.189  0.3805 -1.2351 -0.8339
 1745TIP3    H226651   0.369   5.017  12.279 -1.1217 -1.0722 -0.3518
 1746TIP3   OH226652   6.444   5.660   5.930  0.2872  0.1988  0.0368
 1746TIP3    H126653   6.356   5.696   5.942  0.5105  0.5815  0.5650
 1746TIP3    H226654   6.502   5.733   5.953  0.7415 -0.1762  0.0739
 1747TIP3   OH226655   1.190   1.721  14.966 -0.0227  0.2198 -0.2923
 1747TIP3    H126656   1.267   1.761  14.926 -0.4669 -0.5824 -2.0193
 1747TIP3    H226657   1.138   1.796  14.997  0.4522  0.8694 -1.0236
 1748TIP3   OH226658   1.419   4.678   4.546  0.3466 -0.1341 -0.0908
 1748TIP3    H126659   1.471   4.732   4.604 -0.7681 -0.6925  1.4806
 1748TIP3    H226660   1.483   4.635   4.489  1.3635  1.3421 -0.0985
 1749TIP3   OH226661   6.414   0.394  16.636 -0.1259 -0.1274 -0.0281
 1749TIP3    H126662   6.450   0.333  16.699 -0.4703 -1.4516 -1.0693
 1749TIP3    H226663   6.465   0.380  16.556  0.5017  1.7208 -0.0071
 1750TIP3   OH226664   1.886   0.972  12.519 -0.4365  0.1241 -0.3262
 1750TIP3    H126665   1.935   1.026  12.581 -2.5983  1.3875  0.4127
 1750TIP3    H226666   1.809   0.943  12.569 -1.1709 -0.5832 -1.8042
 1751TIP3   OH226667   5.847   4.320   1.758 -0.2569 -0.5978 -0.3166
 1751TIP3    H126668   5.883   4.342   1.844 -0.1062 -0.3977 -0.4303
 1751TIP3    H226669   5.804   4.401   1.729  1.6080  0.0739 -1.4066
 1752TIP3   OH226670   5.422   6.464  12.151  0.1257 -0.3072 -0.6401
 1752TIP3    H126671   5.335   6.443  12.117 -0.7587 -0.4341  1.5429
 1752TIP3    H226672   5.423   6.559  12.159  0.5164 -0.2353 -1.4068
 1753TIP3   OH226673   2.827   0.682  10.548 -0.0637 -0.3006 -0.5072
 1753TIP3    H126674   2.806   0.721  10.633  1.2189 -1.8071  0.5560
 1753TIP3    H226675   2.776   0.733  10.485 -1.9706  0.1271  1.2651
 1754TIP3   OH226676   6.638   2.693  14.977  0.8319 -0.1343  0.2748
 1754TIP3    H126677   6.672   2.768  14.928 -0.1664 -0.0469 -0.3004
 1754TIP3    H226678   6.556   2.724  15.014  0.8694 -0.6590  0.8035
 1755TIP3   OH226679   1.732   4.402   1.515 -0.3153 -0.3107  0.1444
 1755TIP3    H126680   1.800   4.458   1.477 -0.6243  0.6683  0.9850
 1755TIP3    H226681   1.703   4.347   1.442  1.7329 -1.1351 -0.0928
 1756TIP3   OH226682   0.220   3.990   5.961  0.0768  0.4526 -0.2237
 1756TIP3    H126683   0.177   4.028   6.038 -0.5945 -2.5746  1.0561
 1756TIP3    H226684   0.313   3.998   5.979 -0.0664  0.6673  0.4651
 1757TIP3   OH226685   0.283   5.720   5.052 -0.1700 -0.1793 -0.5445
 1757TIP3    H126686   0.231   5.728   5.131  0.1963 -1.0083 -0.2092
 1757TIP3    H226687   0.328   5.636   5.061 -0.0374 -0.2348 -1.5755
 1758TIP3   OH226688   5.065   4.384   3.051  0.3524 -0.1270 -0.1410
 1758TIP3    H126689   5.126   4.415   2.984 -0.7585  2.0416 -0.2465
 1758TIP3    H226690   5.109   4.401   3.134  0.9915 -1.1305 -0.2652
 1759TIP3   OH226691   4.977   1.293  11.067 -0.3668  0.4071 -0.2703
 1759TIP3    H126692   5.000   1.204  11.040 -0.7979  0.3540 -0.4753
 1759TIP3    H226693   5.061   1.336  11.083 -0.1589 -0.0757 -0.0384
 1760TIP3   OH226694   5.701   4.986  10.665 -0.5418  0.3667 -0.2325
 1760TIP3    H126695   5.753   5.057  10.627 -0.4278  1.3098  1.5741
 1760TIP3    H226696   5.765   4.918  10.684 -0.4684  0.2430 -0.8964
 1761TIP3   OH226697   6.365   0.832   4.620  0.5513  0.5879 -0.1386
 1761TIP3    H126698   6.281   0.794   4.646 -0.2217  1.9605 -0.5433
 1761TIP3    H226699   6.401   0.867   4.701  1.3471 -1.0659  0.2715
 1762TIP3   OH226700   6.129   5.627  11.722  0.3718 -0.1501  0.4584
 1762TIP3    H126701   6.202   5.599  11.667 -0.1157 -0.8682  0.1476
 1762TIP3    H226702   6.113   5.553  11.781 -1.4843 -0.9730 -0.9406
 1763TIP3   OH226703   2.873   1.090   0.773  0.1117 -0.4592 -0.0999
 1763TIP3    H126704   2.830   1.150   0.711 -0.3742 -1.1799 -0.4766
 1763TIP3    H226705   2.832   1.111   0.857 -0.5224 -0.6875 -0.3419
 1764TIP3   OH226706   5.145   3.203  10.724 -0.2055 -0.4378  0.2833
 1764TIP3    H126707   5.174   3.123  10.678  0.1326 -0.2083  0.0881
 1764TIP3    H226708   5.051   3.192  10.735 -0.4798 -0.0152 -1.4382
 1765TIP3   OH226709   2.309   3.203  14.392  1.0547 -0.0672  0.6440
 1765TIP3    H126710   2.386   3.199  14.335  2.0400 -0.4828  1.9555
 1765TIP3    H226711   2.312   3.290  14.431  1.7796 -0.6048  1.8699
 1766TIP3   OH226712   1.822   3.775   4.892 -0.1261  0.3661  0.4987
 1766TIP3    H126713   1.884   3.747   4.825 -1.3384  2.1302 -1.4863
 1766TIP3    H226714   1.810   3.869   4.876 -2.7696  0.2448  1.2092
 1767TIP3   OH226715   6.570   0.803   2.641  0.0600 -0.5708  0.5841
 1767TIP3    H126716   6.657   0.774   2.614 -0.5041 -0.2871 -1.7478
 1767TIP3    H226717   6.523   0.723   2.661 -0.1319 -1.0128 -1.4533
 1768TIP3   OH226718   2.539   4.883   1.943 -0.0947 -0.2226 -0.3091
 1768TIP3    H126719   2.559   4.790   1.938 -0.3167 -0.3351  0.7373
 1768TIP3    H226720   2.525   4.900   2.036 -2.2409  0.3911 -0.6811
 1769TIP3   OH226721   5.036   3.491  12.905 -0.0186 -0.0941 -0.6973
 1769TIP3    H126722   5.032   3.518  12.813 -1.4096 -0.4909 -0.7680
 1769TIP3    H226723   4.955   3.523  12.943  1.2415  1.4793  0.8309
 1770TIP3   OH226724   0.358   1.102   1.550 -0.3190  0.3868 -0.6649
 1770TIP3    H126725   0.451   1.085   1.566 -0.1710  1.9785  0.4540
 1770TIP3    H226726   0.316   1.017   1.558  0.5304  0.1465  2.9280
 1771TIP3   OH226727   5.230   3.392  11.342  0.0667  0.8497  0.5719
 1771TIP3    H126728   5.265   3.391  11.253 -0.6905 -1.7655  0.2099
 1771TIP3    H226729   5.139   3.417  11.332 -0.4687 -1.0285  0.3301
 1772TIP3   OH226730   6.377   2.160  12.837  0.2310 -0.1182  0.4090
 1772TIP3    H126731   6.431   2.232  12.803  1.9942 -1.3759  0.3676
 1772TIP3    H226732   6.376   2.174  12.931 -0.1804  0.4237  0.3336
 1773TIP3   OH226733   5.768   2.195  11.191 -0.0098 -0.2142  0.0682
 1773TIP3    H126734   5.840   2.211  11.131 -0.0052  1.9790  0.5493
 1773TIP3    H226735   5.788   2.250  11.268 -1.4861 -0.6198  0.7879
 1774TIP3   OH226736   3.634   1.290  14.295  0.4250  0.6300 -0.2318
 1774TIP3    H126737   3.567   1.251  14.351  1.8805 -2.3164 -0.3414
 1774TIP3    H226738   3.603   1.274  14.206  1.0570 -0.4254 -0.2782
 1775TIP3   OH226739   3.029   2.897  11.609 -0.1193 -0.2176 -0.1554
 1775TIP3    H126740   3.086   2.842  11.554 -0.6630  0.8569 -1.8646
 1775TIP3    H226741   2.942   2.884  11.572 -0.8198 -0.8845  1.6566
 1776TIP3   OH226742   0.799   1.962   5.747 -0.2695 -1.0409  0.3086
 1776TIP3    H126743   0.890   1.973   5.720 -0.5815 -2.1022 -1.3187
 1776TIP3    H226744   0.799   1.879   5.795 -0.2407 -0.5859  1.1203
 1777TIP3   OH226745   5.854   2.414  12.423  0.0521 -0.5600  0.5700
 1777TIP3    H126746   5.818   2.408  12.335 -0.7022 -0.0326  0.8347
 1777TIP3    H226747   5.788   2.374  12.479  0.1549 -0.1492  0.9918
 1778TIP3   OH226748   4.177   5.911  13.519 -0.4557 -0.2321  0.2372
 1778TIP3    H126749   4.192   5.936  13.610  1.2764 -0.7281  0.1308
 1778TIP3    H226750   4.088   5.875  13.518 -0.5479 -0.1034  1.6930
 1779TIP3   OH226751   6.564   2.514  10.876 -0.3067 -0.0391  0.0494
 1779TIP3    H126752   6.607   2.433  10.903  0.8823 -0.5146 -2.8770
 1779TIP3    H226753   6.550   2.562  10.957  2.0860 -1.6868  1.5741
 1780TIP3   OH226754   2.813   2.332  16.735 -0.0114  0.4030  0.6803
 1780TIP3    H126755   2.840   2.424  16.729 -0.7974  0.7148  1.6803
 1780TIP3    H226756   2.753   2.320  16.662  0.4567  0.5491  0.2650
 1781TIP3   OH226757   2.952   0.363   3.078  0.6168 -0.5217 -0.2335
 1781TIP3    H126758   2.998   0.448   3.081 -1.5172  0.6817  0.4232
 1781TIP3    H226759   2.924   0.354   2.987 -0.2813  0.1505 -0.0375
 1782TIP3   OH226760   1.537   0.714  13.118  0.3840 -0.4682  0.3967
 1782TIP3    H126761   1.610   0.756  13.164  0.8591 -2.7983  1.9549
 1782TIP3    H226762   1.505   0.648  13.180  0.2260 -2.9192 -2.1358
 1783TIP3   OH226763   0.045   1.341   0.924  0.1137  0.1803 -0.5287
 1783TIP3    H126764   0.024   1.344   0.831 -0.1437 -0.3681 -0.4903
 1783TIP3    H226765  -0.003   1.265   0.958 -0.1584  0.6353  0.1411
 1784TIP3   OH226766   0.064   5.284  13.380  0.0054  0.0694 -0.9597
 1784TIP3    H126767   0.155   5.295  13.407  0.3287  0.8849 -2.2906
 1784TIP3    H226768   0.044   5.364  13.332 -0.7216 -1.0217 -2.5354
 1785TIP3   OH226769   5.086   5.563  15.530 -0.2441 -0.0634 -0.5168
 1785TIP3    H126770   5.066   5.632  15.467 -0.0229 -0.9816 -1.6178
 1785TIP3    H226771   5.009   5.507  15.529  0.4085 -0.9828 -1.2193
 1786TIP3   OH226772   1.200   1.229  14.420 -0.2039  0.1600 -0.5098
 1786TIP3    H126773   1.255   1.155  14.447 -1.4023 -0.3878  0.5228
 1786TIP3    H226774   1.262   1.291  14.381  1.2967 -0.1039  1.2545
 1787TIP3   OH226775   4.214   6.633  11.113 -0.1501 -0.2789 -0.4871
 1787TIP3    H126776   4.191   6.545  11.085 -0.4272 -0.0855 -0.8861
 1787TIP3    H226777   4.140   6.662  11.166  1.0347 -1.2267  1.8603
 1788TIP3   OH226778   3.959   4.646   5.399 -0.4758  0.0670  0.0651
 1788TIP3    H126779   3.870   4.681   5.399  0.0034  1.5889  3.1120
 1788TIP3    H226780   3.948   4.553   5.421 -1.3484 -0.0675 -0.8594
 1789TIP3   OH226781   4.985   0.856  12.479  0.2653  0.5889  0.2104
 1789TIP3    H126782   5.061   0.864  12.537 -1.0613  0.6606  2.0034
 1789TIP3    H226783   4.947   0.771  12.501  0.6940 -0.2044 -1.8410
 1790TIP3   OH226784   5.266   0.968  14.422  0.6719 -0.2245 -0.2523
 1790TIP3    H126785   5.360   0.980  14.430  0.6540 -0.8974  1.2772
 1790TIP3    H226786   5.229   1.054  14.441  0.9863  0.4005 -2.2206
 1791TIP3   OH226787   4.383   5.708   5.714 -0.2230 -0.7150  0.0449
 1791TIP3    H126788   4.405   5.746   5.799  0.6012 -0.0941 -0.4338
 1791TIP3    H226789   4.464   5.669   5.684 -0.1666  0.1728 -1.0151
 1792TIP3   OH226790   5.820   2.550   4.270 -0.0023  0.1493  0.3786
 1792TIP3    H126791   5.854   2.607   4.201 -0.4093 -0.0343  0.0180
 1792TIP3    H226792   5.815   2.606   4.348  0.3125  0.4017  0.2183
 1793TIP3   OH226793   4.814   4.494  13.173 -0.4828  0.6031  0.0094
 1793TIP3    H126794   4.808   4.418  13.116  0.8724  0.6689 -0.2366
 1793TIP3    H226795   4.743   4.551  13.144 -1.3843 -0.4579  0.0690
 1794TIP3   OH226796   4.082   4.825  16.183  0.3714  0.1597 -0.3990
 1794TIP3    H126797   4.110   4.913  16.205 -1.1585  0.6094 -0.1645
 1794TIP3    H226798   4.025   4.798  16.255 -0.7201 -0.2651 -1.3839
 1795TIP3   OH226799   4.184   5.285   3.809 -0.3057 -0.3667 -0.2605
 1795TIP3    H126800   4.149   5.280   3.720 -0.3402 -0.9207 -0.2235
 1795TIP3    H226801   4.172   5.197   3.844 -0.7871 -0.0087  0.4864
 1796TIP3   OH226802   4.095   1.991  13.573 -0.1638  0.4886 -0.2166
 1796TIP3    H126803   4.176   2.014  13.528  0.7302 -0.0427  1.0661
 1796TIP3    H226804   4.104   2.030  13.660 -1.8257  1.4407 -0.4290
 1797TIP3   OH226805   5.395   5.419  12.087  0.1809  0.3257  0.3996
 1797TIP3    H126806   5.318   5.437  12.033 -0.6739  0.5419  1.6439
 1797TIP3    H226807   5.466   5.404  12.025 -0.5459  1.5222 -0.7513
 1798TIP3   OH226808   1.131   0.918   4.828  0.3162 -0.1730  0.0749
 1798TIP3    H126809   1.114   0.994   4.772  0.0491 -1.2163 -1.2938
 1798TIP3    H226810   1.226   0.913   4.834  0.3804 -0.5642 -1.0423
 1799TIP3   OH226811   3.032   1.127   5.464  0.2691  0.3119 -0.6406
 1799TIP3    H126812   2.991   1.212   5.447  1.3192  0.8309 -0.6581
 1799TIP3    H226813   2.960   1.070   5.489 -0.2188  1.7727  1.4982
 1800TIP3   OH226814   3.260   0.623   4.013  0.1576  0.0562  0.1331
 1800TIP3    H126815   3.226   0.666   3.935 -2.1581 -0.4912  0.7380
 1800TIP3    H226816   3.269   0.531   3.988  1.0574  0.1565  0.0492
 1801TIP3   OH226817   3.909   5.078  15.191  0.3102  0.7225 -0.3733
 1801TIP3    H126818   3.846   5.053  15.124 -0.1285  1.5279 -0.2838
 1801TIP3    H226819   3.902   5.174  15.196 -1.2756  0.5962  2.3047
 1802TIP3   OH226820   1.162   3.039  13.617  0.1889 -0.1458  0.2819
 1802TIP3    H126821   1.153   2.959  13.565 -0.0377 -0.2022  0.4044
 1802TIP3    H226822   1.237   3.022  13.674  0.0726 -0.3179  0.3871
 1803TIP3   OH226823   2.385   2.045   5.865  0.0304 -0.4147  0.3619
 1803TIP3    H126824   2.398   1.954   5.893  1.9891  0.2217  1.8154
 1803TIP3    H226825   2.439   2.053   5.786  2.1625  0.0898  1.7590
 1804TIP3   OH226826   1.585   2.712   2.990 -0.1041 -0.1368  0.0003
 1804TIP3    H126827   1.619   2.660   3.062 -2.6093 -0.6836  0.8497
 1804TIP3    H226828   1.631   2.796   2.997  0.3534 -0.5012  1.6608
 1805TIP3   OH226829   6.613   2.990   5.427 -0.3865 -0.5811 -0.5575
 1805TIP3    H126830   6.526   2.980   5.389 -0.4907  2.5095 -1.3821
 1805TIP3    H226831   6.598   3.039   5.509  0.4939 -0.8674 -0.2060
 1806TIP3   OH226832   4.945   3.220   5.758  0.3007 -0.1085  0.0890
 1806TIP3    H126833   4.859   3.207   5.718 -0.2951  2.2178  0.4816
 1806TIP3    H226834   4.944   3.163   5.835 -0.7354 -0.4087 -0.1329
 1807TIP3   OH226835   1.148   2.855   2.345  0.3613  1.1100  0.0976
 1807TIP3    H126836   1.181   2.860   2.435  0.5742  1.9545 -0.0225
 1807TIP3    H226837   1.101   2.771   2.342  0.3866  1.0498  0.9776
 1808TIP3   OH226838   4.019   5.480  16.692  0.0716  0.1886  0.2303
 1808TIP3    H126839   4.066   5.504  16.613 -0.4763  0.3828 -0.0361
 1808TIP3    H226840   4.080   5.422  16.739  0.7834  0.8567  0.1470
 1809TIP3   OH226841   5.923   2.826  13.987  0.2105  0.6063 -0.5283
 1809TIP3    H126842   5.961   2.819  14.074  0.1257 -1.9638 -0.6463
 1809TIP3    H226843   5.828   2.825  14.001  0.1954  0.7333 -0.6163
 1810TIP3   OH226844   0.913   1.182   5.748  0.2143 -0.2277 -0.3656
 1810TIP3    H126845   0.931   1.229   5.667 -0.5086  1.2816  0.2871
 1810TIP3    H226846   0.997   1.145   5.774  1.1895  1.8952 -0.2429
 1811TIP3   OH226847   0.394   2.273   3.477 -0.3790 -0.5548 -0.0232
 1811TIP3    H126848   0.378   2.366   3.467 -0.0030 -0.5270 -0.3502
 1811TIP3    H226849   0.414   2.262   3.570 -0.3000 -0.2929 -0.0097
 1812TIP3   OH226850   5.865   5.594   2.249  0.0742  0.1644 -0.2424
 1812TIP3    H126851   5.903   5.655   2.186 -1.5909 -0.8794 -2.4454
 1812TIP3    H226852   5.926   5.521   2.252  1.1337  1.0675  0.9350
 1813TIP3   OH226853   4.359   2.841   1.954 -0.0441 -0.1435  0.9205
 1813TIP3    H126854   4.300   2.766   1.963 -1.0308  0.3498 -0.9665
 1813TIP3    H226855   4.306   2.908   1.911  1.9513  0.2089 -1.1737
 1814TIP3   OH226856   2.595   2.297   0.846  0.0529 -0.3111  0.2437
 1814TIP3    H126857   2.619   2.220   0.898  0.9819  0.5862  1.1957
 1814TIP3    H226858   2.669   2.310   0.786  0.1973  0.2045  0.5246
 1815TIP3   OH226859   5.738   2.109   5.753  0.0530  0.5085 -0.0910
 1815TIP3    H126860   5.831   2.087   5.762  0.1126  1.0831  0.7739
 1815TIP3    H226861   5.724   2.115   5.659  0.9869  0.7846 -0.2204
 1816TIP3   OH226862   0.752   0.597   5.649  0.1458 -0.4253  0.0301
 1816TIP3    H126863   0.842   0.622   5.627 -0.3679  1.4335 -0.1316
 1816TIP3    H226864   0.751   0.591   5.745  0.7729 -1.9541 -0.0286
 1817TIP3   OH226865   3.451   5.144   5.720  0.2817 -0.4141 -0.1094
 1817TIP3    H126866   3.409   5.065   5.755  0.4213 -1.8081 -2.8035
 1817TIP3    H226867   3.538   5.115   5.694 -0.0602  0.3096 -2.1959
 1818TIP3   OH226868   2.668   6.550  11.395  0.0934  0.3215  0.0991
 1818TIP3    H126869   2.729   6.622  11.378  0.9602  0.0801  1.8928
 1818TIP3    H226870   2.611   6.583  11.464  0.5767 -0.7194  1.0301
 1819TIP3   OH226871   2.603   5.418  11.656  0.1747 -0.7057  0.2539
 1819TIP3    H126872   2.626   5.490  11.715 -1.4275 -0.6489  0.8736
 1819TIP3    H226873   2.620   5.452  11.568  1.8215 -0.4987  0.6144
 1820TIP3   OH226874   1.242   1.232  12.804  0.0509 -0.5427 -0.0963
 1820TIP3    H126875   1.253   1.312  12.753  4.4967 -1.4261 -1.0082
 1820TIP3    H226876   1.149   1.230  12.827 -0.7950  3.4556 -2.2284
 1821TIP3   OH226877   5.532   0.573   1.545  0.5734 -0.1831  0.3499
 1821TIP3    H126878   5.546   0.595   1.453  0.3571  2.1887  0.8137
 1821TIP3    H226879   5.438   0.557   1.552  0.5203  0.0815  0.2388
 1822TIP3   OH226880   1.830   1.114  11.176  0.0377  0.3530 -0.0076
 1822TIP3    H126881   1.814   1.019  11.176 -2.2111  0.6475 -0.9803
 1822TIP3    H226882   1.790   1.145  11.257  1.1721  0.4353  0.5308
 1823TIP3   OH226883   5.594   4.002  16.970  0.5771 -0.1476  0.1344
 1823TIP3    H126884   5.616   3.921  17.016  1.8413  1.1116  1.8590
 1823TIP3    H226885   5.499   4.004  16.969  0.5273 -0.7673  1.7358
 1824TIP3   OH226886   0.592   0.805  16.699 -0.0672 -0.0796  0.2636
 1824TIP3    H126887   0.684   0.805  16.723  0.5124 -1.0102 -1.7684
 1824TIP3    H226888   0.589   0.851  16.615 -1.0586 -2.1964 -0.9329
 1825TIP3   OH226889   2.821   4.825   5.293  0.4130 -0.3503 -0.2030
 1825TIP3    H126890   2.846   4.880   5.367  0.7536 -1.1283  0.2746
 1825TIP3    H226891   2.754   4.765   5.328 -0.8195  0.4958 -1.0059
 1826TIP3   OH226892   4.723   6.115   6.022  0.6889 -0.3363  0.0809
 1826TIP3    H126893   4.665   6.130   6.096  0.2607  1.7451 -0.6176
 1826TIP3    H226894   4.666   6.123   5.945  1.7337  1.0557 -0.5862
 1827TIP3   OH226895   2.009   5.889   3.019  0.4659  0.5135 -0.5819
 1827TIP3    H126896   1.924   5.847   3.007  0.4122  0.1326  0.9370
 1827TIP3    H226897   2.014   5.955   2.950 -1.7618  1.6765  0.2946
 1828TIP3   OH226898   0.314   3.174   4.871  0.3342 -0.2525 -0.4174
 1828TIP3    H126899   0.299   3.081   4.888 -1.4647  0.0439 -0.2670
 1828TIP3    H226900   0.283   3.187   4.782 -0.6605  0.4676  0.0283
 1829TIP3   OH226901   2.334   5.140   6.355  0.2228  0.3474 -0.5261
 1829TIP3    H126902   2.267   5.189   6.404  0.1483 -0.7347  0.5012
 1829TIP3    H226903   2.383   5.207   6.308  0.1068  1.4182  0.8111
 1830TIP3   OH226904   2.589   3.420  13.967 -0.3868  0.1725  0.5508
 1830TIP3    H126905   2.562   3.416  13.876  1.0769  1.3296  0.0363
 1830TIP3    H226906   2.523   3.474  14.010  0.8680  2.8544 -0.6578
 1831TIP3   OH226907   2.279   4.381  12.030  0.0775  0.4698 -0.0850
 1831TIP3    H126908   2.272   4.427  12.114  1.8077  1.1454 -0.2726
 1831TIP3    H226909   2.361   4.333  12.036  0.8081  1.4317 -1.8142
 1832TIP3   OH226910   3.899   2.002  16.374 -0.5687 -0.3786  0.1475
 1832TIP3    H126911   3.811   2.000  16.413 -0.5283 -2.6031  0.2133
 1832TIP3    H226912   3.891   1.953  16.293  0.4447  0.1519 -0.2965
 1833TIP3   OH226913   3.664   3.756  11.632  0.3814 -0.2059  0.2587
 1833TIP3    H126914   3.622   3.715  11.707 -0.0384  1.1700  0.8084
 1833TIP3    H226915   3.591   3.790  11.580  0.7409  0.4008  0.1482
 1834TIP3   OH226916   6.206   3.282  12.208  0.3003 -0.2276  0.0378
 1834TIP3    H126917   6.186   3.316  12.295 -1.8348  1.3312 -0.9858
 1834TIP3    H226918   6.175   3.192  12.209 -2.0676  0.5314  0.1793
 1835TIP3   OH226919   4.761   3.141   4.783 -0.2693 -0.2480  0.0348
 1835TIP3    H126920   4.833   3.196   4.814 -0.8734 -0.4713  1.9099
 1835TIP3    H226921   4.684   3.197   4.789 -0.3489 -0.0995 -1.7153
 1836TIP3   OH226922   1.316   6.464   1.793  0.0472 -0.2486 -0.3300
 1836TIP3    H126923   1.222   6.455   1.805 -0.2968  1.4414 -1.4418
 1836TIP3    H226924   1.349   6.374   1.791 -1.0922 -0.8836  2.9846
 1837TIP3   OH226925   4.782   6.513   4.441  0.2870  0.5697 -0.2063
 1837TIP3    H126926   4.698   6.527   4.397  0.2933  2.6225  0.3638
 1837TIP3    H226927   4.758   6.487   4.530  0.2648  0.9835 -0.0928
 1838TIP3   OH226928   1.671   6.415  14.617  0.1097 -0.6284 -0.1781
 1838TIP3    H126929   1.584   6.399  14.654  0.5764 -2.1423  0.3390
 1838TIP3    H226930   1.686   6.508  14.630 -2.4274  0.2270 -2.4991
 1839TIP3   OH226931   1.931   1.136  14.136  0.0599 -0.0732 -0.7556
 1839TIP3    H126932   1.955   1.050  14.102  0.0391 -0.6700  0.6664
 1839TIP3    H226933   1.868   1.170  14.072 -1.0043 -1.7238 -0.6654
 1840TIP3   OH226934   2.141   2.309  11.952 -0.0034  0.5439  0.1169
 1840TIP3    H126935   2.097   2.346  12.029 -1.6376 -0.4360 -0.2907
 1840TIP3    H226936   2.145   2.382  11.890  0.2060  1.0144  0.6728
 1841TIP3   OH226937   0.121   4.021  15.611  0.4201  0.3435  0.5313
 1841TIP3    H126938   0.127   4.116  15.623 -0.2209  0.5240 -0.4131
 1841TIP3    H226939   0.116   4.009  15.516 -2.5734 -0.3933  0.6670
 1842TIP3   OH226940   0.396   0.725  13.847 -0.0641  0.0785  0.2711
 1842TIP3    H126941   0.375   0.685  13.763  0.2413 -0.6526  0.5333
 1842TIP3    H226942   0.368   0.660  13.912 -0.1026  0.5442  0.7326
 1843TIP3   OH226943   1.266   2.489  14.599  0.0393 -0.1190 -0.1282
 1843TIP3    H126944   1.323   2.422  14.637 -0.0343 -0.1931 -0.1488
 1843TIP3    H226945   1.215   2.522  14.673  0.9449  0.7941  0.1224
 1844TIP3   OH226946   5.761   3.332   2.288 -0.1903 -0.3712  0.1212
 1844TIP3    H126947   5.742   3.254   2.237  1.3209 -0.6739 -0.0104
 1844TIP3    H226948   5.830   3.377   2.239  0.7444 -0.2665  1.4945
 1845TIP3   OH226949   1.053   3.927   5.393  0.2956 -0.5003  0.4585
 1845TIP3    H126950   0.963   3.902   5.413  0.1259 -0.6659 -0.4926
 1845TIP3    H226951   1.050   4.022   5.385  0.1468 -0.5292  0.1594
 1846TIP3   OH226952   1.308   1.315   3.172 -0.0962 -0.7016  0.0261
 1846TIP3    H126953   1.278   1.226   3.190  3.5213 -1.6982  2.1348
 1846TIP3    H226954   1.284   1.365   3.250  0.9960 -0.7767  0.4248
 1847TIP3   OH226955   4.103   5.914  15.403 -0.4028 -0.1825 -0.5336
 1847TIP3    H126956   4.104   5.959  15.487 -0.5707 -0.5553 -0.3321
 1847TIP3    H226957   4.124   5.982  15.339  1.2761 -0.2073 -0.0482
 1848TIP3   OH226958   4.845   1.509  13.193 -0.3722  0.0890 -0.0085
 1848TIP3    H126959   4.884   1.466  13.117 -1.0499 -2.9481  1.2131
 1848TIP3    H226960   4.787   1.443  13.231 -1.0761  1.9403  2.4041
 1849TIP3   OH226961   1.837   6.552  12.877  0.3045  0.4415  0.0957
 1849TIP3    H126962   1.751   6.594  12.874  0.0090 -0.1328  0.3776
 1849TIP3    H226963   1.870   6.571  12.965 -0.3427 -0.8984  0.6511
 1850TIP3   OH226964   6.240   2.411  14.934 -0.4200 -0.1092  0.2471
 1850TIP3    H126965   6.330   2.419  14.966 -0.1050  1.8494 -0.9508
 1850TIP3    H226966   6.228   2.317  14.920  1.5405 -0.3935  0.1747
 1851TIP3   OH226967   5.431   5.979   6.247  0.2406  0.1101  0.1781
 1851TIP3    H126968   5.407   5.925   6.322  1.5103 -0.1262  0.4279
 1851TIP3    H226969   5.470   6.058   6.285 -1.4101  1.1670 -0.1878
 1852TIP3   OH226970   4.238   0.254  11.331 -0.3398  0.1029  0.3281
 1852TIP3    H126971   4.158   0.280  11.286  0.5876  0.1932 -1.3748
 1852TIP3    H226972   4.242   0.159  11.319  0.4804  0.2555 -0.8660
 1853TIP3   OH226973   4.127   2.628  16.085  0.5465 -0.4628  0.6387
 1853TIP3    H126974   4.121   2.594  15.996 -0.6855  0.8001  0.2077
 1853TIP3    H226975   4.069   2.572  16.136 -1.2134  0.6947 -0.0026
 1854TIP3   OH226976   0.950   0.607   3.425  0.1880 -0.0333  0.3792
 1854TIP3    H126977   1.011   0.667   3.468 -0.3820 -0.3039  1.5885
 1854TIP3    H226978   0.884   0.588   3.491 -0.8787 -0.2377 -0.7102
 1855TIP3   OH226979   5.794   6.698   5.233 -0.5710 -0.0799  0.5260
 1855TIP3    H126980   5.746   6.769   5.190  2.3332  1.4875 -0.3540
 1855TIP3    H226981   5.859   6.670   5.168  0.3960 -1.4042  1.9979
 1856TIP3   OH226982   4.246   4.149   4.084 -0.7615 -0.0175  0.0206
 1856TIP3    H126983   4.244   4.159   4.179 -0.8367  0.3860 -0.0211
 1856TIP3    H226984   4.309   4.078   4.069 -0.9868 -0.3047  0.3841
 1857TIP3   OH226985   0.808   3.964  14.918  0.5887  0.6342  0.0790
 1857TIP3    H126986   0.763   3.928  14.995  1.4004 -1.3608 -0.3028
 1857TIP3    H226987   0.742   3.964  14.849  0.3883  0.4753  0.2680
 1858TIP3   OH226988   2.473   0.834  16.104 -0.5001 -0.2673  0.2559
 1858TIP3    H126989   2.533   0.778  16.154  0.6870 -1.0558 -1.8983
 1858TIP3    H226990   2.393   0.783  16.098 -0.7188 -0.0905  1.4508
 1859TIP3   OH226991   4.262   0.161   6.225 -0.2345  0.2838 -0.0013
 1859TIP3    H126992   4.244   0.232   6.287 -0.3370 -0.2415  0.5849
 1859TIP3    H226993   4.221   0.084   6.265  1.9160 -0.6282  0.5863
 1860TIP3   OH226994   0.776   4.043   5.744  0.2884 -0.1796 -0.6525
 1860TIP3    H126995   0.816   4.002   5.820 -2.2140 -2.5942 -0.4781
 1860TIP3    H226996   0.774   4.136   5.765 -0.7346 -0.7964  2.5048
 1861TIP3   OH226997   0.577   6.262  16.248  0.0805 -0.3247  0.2880
 1861TIP3    H126998   0.663   6.301  16.232  0.0380 -0.1033  0.5983
 1861TIP3    H226999   0.597   6.180  16.294  0.1622 -0.6155 -0.2549
 1862TIP3   OH227000   1.562   0.018   3.311 -0.0045 -0.0909  0.1195
 1862TIP3    H127001   1.504  -0.048   3.274 -0.0698  0.3942 -0.6540
 1862TIP3    H227002   1.512   0.099   3.308  0.4532  0.1977  0.1048
 1863TIP3   OH227003   4.109   4.177   5.934 -0.2862 -0.1910  0.3828
 1863TIP3    H127004   4.050   4.239   5.978 -0.5720 -0.1176 -0.0989
 1863TIP3    H227005   4.196   4.199   5.967 -0.2981  0.8938 -0.2654
 1864TIP3   OH227006   4.295   6.258  10.643  0.1547 -0.5800  0.2071
 1864TIP3    H127007   4.250   6.324  10.590  0.2168 -1.3578 -0.8611
 1864TIP3    H227008   4.337   6.308  10.713 -0.6760  0.3860  0.0414
 1865TIP3   OH227009   4.443   2.190  15.897 -0.1381  0.3808 -0.0305
 1865TIP3    H127010   4.456   2.121  15.962  0.1130 -0.0673 -0.5540
 1865TIP3    H227011   4.354   2.175  15.864 -0.1956  0.4930  0.0733
 1866TIP3   OH227012   0.363   1.964  11.993 -0.1309 -0.4887 -0.4933
 1866TIP3    H127013   0.425   1.892  11.990 -0.0362 -0.3666 -1.9734
 1866TIP3    H227014   0.296   1.935  12.055 -1.2750 -2.8357 -2.6697
 1867TIP3   OH227015   1.657   2.639   0.638 -0.0938  0.2275 -0.0516
 1867TIP3    H127016   1.700   2.579   0.700 -0.1748 -0.0356 -0.2474
 1867TIP3    H227017   1.650   2.588   0.557 -0.5039  0.3772 -0.1094
 1868TIP3   OH227018   3.256   2.781  16.629  0.8620 -0.7383  0.2218
 1868TIP3    H127019   3.338   2.829  16.611  0.4972 -1.2363 -3.8740
 1868TIP3    H227020   3.279   2.689  16.616 -0.5532 -0.7806 -3.0791
 1869TIP3   OH227021   1.064   0.426   2.982  0.5696  0.5702 -0.2123
 1869TIP3    H127022   1.069   0.332   3.001  1.7027  0.6207 -0.2387
 1869TIP3    H227023   1.104   0.468   3.058 -2.5138  1.2342  1.2341
 1870TIP3   OH227024   3.329   0.193  14.423 -0.4620 -0.0780  0.1882
 1870TIP3    H127025   3.316   0.262  14.488 -2.5819 -0.3197  0.1087
 1870TIP3    H227026   3.299   0.114  14.466  1.0322 -0.8066 -0.0575
 1871TIP3   OH227027   2.293   4.865   2.050 -0.4465  0.0779 -0.4611
 1871TIP3    H127028   2.368   4.881   1.994  0.2282  1.7551  0.8457
 1871TIP3    H227029   2.325   4.881   2.139 -2.5226  1.6673  0.0799
 1872TIP3   OH227030   6.494   1.204  15.720  0.0116  0.0703 -0.2718
 1872TIP3    H127031   6.533   1.231  15.803  0.4524 -0.4173 -0.3091
 1872TIP3    H227032   6.494   1.108  15.724 -1.2175  0.0613 -0.2709
 1873TIP3   OH227033   3.982   5.183  17.212 -0.0273  0.4368 -0.0184
 1873TIP3    H127034   3.981   5.140  17.127 -0.7266 -1.8861  1.0775
 1873TIP3    H227035   3.898   5.228  17.218  0.3810  1.3340 -0.8736
 1874TIP3   OH227036   2.839   3.748  16.822 -0.1512 -0.0515 -0.5780
 1874TIP3    H127037   2.771   3.695  16.863  0.3134 -1.0362 -1.0682
 1874TIP3    H227038   2.905   3.686  16.793  1.5761  0.9702  0.9497
 1875TIP3   OH227039   6.280   1.340   2.295 -0.1676  0.1338  0.7097
 1875TIP3    H127040   6.252   1.301   2.377  1.2704  1.0622  1.6980
 1875TIP3    H227041   6.352   1.284   2.265 -0.4311  0.0196  0.2898
 1876TIP3   OH227042   4.444   0.336   0.645 -0.3148  0.2377  0.2581
 1876TIP3    H127043   4.388   0.270   0.685  1.2525  0.2352  2.6826
 1876TIP3    H227044   4.485   0.292   0.571 -2.9312  0.0777 -1.2277
 1877TIP3   OH227045   5.310   0.387  11.705 -0.0745 -0.2693  0.0125
 1877TIP3    H127046   5.285   0.317  11.765  1.2781 -0.7445  0.0462
 1877TIP3    H227047   5.317   0.465  11.759 -1.7631 -0.0409 -0.0546
 1878TIP3   OH227048   3.260   1.024   3.279 -0.2762  0.3011  0.3232
 1878TIP3    H127049   3.215   1.060   3.202 -1.5331 -1.1602  0.3295
 1878TIP3    H227050   3.229   1.078   3.352 -0.0858  0.8610  0.0032
 1879TIP3   OH227051   0.203   6.627   1.962 -0.5904 -0.1499  0.7402
 1879TIP3    H127052   0.243   6.713   1.972 -0.1112 -0.0455 -1.4787
 1879TIP3    H227053   0.205   6.611   1.867 -1.7963 -2.0680  0.9878
 1880TIP3   OH227054   5.175   4.140  10.504 -0.2487 -0.1260 -0.6039
 1880TIP3    H127055   5.198   4.074  10.439  1.8390 -0.9432  0.8700
 1880TIP3    H227056   5.150   4.090  10.581  0.7332  0.7765  0.3357
 1881TIP3   OH227057   0.928   2.523  15.099 -0.2508 -0.0223  0.2052
 1881TIP3    H127058   0.962   2.608  15.071  1.5806  0.1993  2.7626
 1881TIP3    H227059   0.995   2.460  15.071  0.3484 -0.0897  1.6987
 1882TIP3   OH227060   4.154   3.742  12.792 -0.1939 -0.0147  0.2723
 1882TIP3    H127061   4.073   3.773  12.831 -0.1017  1.0615 -0.3617
 1882TIP3    H227062   4.200   3.698  12.864  0.3431  2.6128  1.6721
 1883TIP3   OH227063   6.212   2.023   1.878 -0.2086 -0.0138 -0.3928
 1883TIP3    H127064   6.248   1.983   1.958 -0.0870 -0.2446 -0.5608
 1883TIP3    H227065   6.260   1.981   1.807 -0.7438 -0.2604 -0.6176
 1884TIP3   OH227066   6.195   3.262  14.745 -0.1363 -0.1858  0.2420
 1884TIP3    H127067   6.272   3.239  14.694 -1.0940 -0.6751 -1.0354
 1884TIP3    H227068   6.219   3.344  14.790  1.3261 -0.6666  0.3816
 1885TIP3   OH227069   3.168   1.406  17.160 -0.0220 -0.1363  0.2229
 1885TIP3    H127070   3.138   1.385  17.072 -2.3944  0.9078  0.7018
 1885TIP3    H227071   3.161   1.324  17.208  0.7802 -0.5887 -0.4158
 1886TIP3   OH227072   3.461   4.904  14.514  0.5959 -0.5683 -0.7211
 1886TIP3    H127073   3.400   4.863  14.452 -1.7914  1.8539 -0.1538
 1886TIP3    H227074   3.455   4.848  14.592 -0.5911 -0.6482 -0.8380
 1887TIP3   OH227075   4.669   2.817   1.098  0.3422 -0.2220  0.1142
 1887TIP3    H127076   4.744   2.774   1.057 -0.7884  1.2769 -4.0187
 1887TIP3    H227077   4.703   2.902   1.127  0.8008 -0.6577  0.9006
 1888TIP3   OH227078   2.387   1.637   2.813 -0.2935  0.4534 -0.0726
 1888TIP3    H127079   2.475   1.664   2.785 -0.2869  2.8730  1.8928
 1888TIP3    H227080   2.362   1.702   2.879 -3.2180 -0.6877  0.0960
 1889TIP3   OH227081   0.143   0.120  15.876 -0.1854  0.2974  0.2108
 1889TIP3    H127082   0.206   0.060  15.836 -1.2034 -0.3920 -0.4246
 1889TIP3    H227083   0.110   0.171  15.802 -2.2538 -1.1399  0.0526
 1890TIP3   OH227084   3.829   1.058  13.236  0.0243  0.1458  0.0447
 1890TIP3    H127085   3.818   1.101  13.321 -0.1583  0.2250 -0.0193
 1890TIP3    H227086   3.838   1.130  13.174 -0.8312  0.0967 -0.1397
 1891TIP3   OH227087   3.032   6.274  12.372  0.5313  0.1669  0.0649
 1891TIP3    H127088   2.959   6.271  12.434 -0.3110 -0.2276 -0.9140
 1891TIP3    H227089   3.046   6.183  12.347 -1.7035  0.5860 -3.1852
 1892TIP3   OH227090   4.692   4.209   3.953 -0.5362  0.1066 -0.1514
 1892TIP3    H127091   4.721   4.134   3.902 -1.4596 -1.3512  1.3735
 1892TIP3    H227092   4.599   4.217   3.935 -0.8676 -0.4007  1.2091
 1893TIP3   OH227093   4.314   3.767   0.963 -0.0833 -0.3050 -0.2714
 1893TIP3    H127094   4.233   3.716   0.965  0.0267 -0.4643  0.2069
 1893TIP3    H227095   4.358   3.739   0.883 -0.4850 -0.2420 -0.5147
 1894TIP3   OH227096   6.718   4.702  16.585 -0.1579  0.5022 -0.4055
 1894TIP3    H127097   6.650   4.643  16.552  0.2788  0.1314 -0.6724
 1894TIP3    H227098   6.774   4.718  16.509  1.3229 -1.0060  0.3006
 1895TIP3   OH227099   4.774   3.660   5.490 -0.1021 -0.7915 -0.1388
 1895TIP3    H127100   4.701   3.629   5.544  0.3386 -0.1651  0.8454
 1895TIP3    H227101   4.843   3.596   5.503  0.8309  0.5267  1.9447
 1896TIP3   OH227102   2.305   4.517  11.301 -0.0421 -0.4253 -0.6820
 1896TIP3    H127103   2.247   4.499  11.227 -0.6308  0.1842 -0.3830
 1896TIP3    H227104   2.247   4.547  11.370  0.7194  1.3056 -0.7352
 1897TIP3   OH227105   0.795   3.413   1.990 -0.2789 -0.3743 -0.3146
 1897TIP3    H127106   0.754   3.393   2.074  1.2245 -0.4472  0.4255
 1897TIP3    H227107   0.801   3.509   1.988  1.0861 -0.4212  0.3854
 1898TIP3   OH227108   1.996   0.113   5.401 -0.0421  0.1560 -0.1898
 1898TIP3    H127109   1.910   0.072   5.395 -0.2415  0.6104 -0.4695
 1898TIP3    H227110   2.017   0.111   5.494 -1.0472  1.4434  0.0894
 1899TIP3   OH227111   3.031   2.103   0.398  0.3326 -0.3503  0.4356
 1899TIP3    H127112   2.969   2.069   0.333 -0.5448  1.9357 -0.0198
 1899TIP3    H227113   3.031   2.037   0.467  0.2702 -2.2154 -1.2448
 1900TIP3   OH227114   4.928   4.654  16.646  0.0932 -0.3680 -0.2045
 1900TIP3    H127115   4.835   4.642  16.626 -0.1887  1.6663 -0.3583
 1900TIP3    H227116   4.966   4.686  16.564  0.1080  2.4515  0.7893
 1901TIP3   OH227117   4.980   1.263   3.492  0.9102  0.8498 -0.3043
 1901TIP3    H127118   4.889   1.256   3.463  0.3992 -1.5692  1.5551
 1901TIP3    H227119   4.986   1.349   3.533 -1.0217  0.4887  0.8532
 1902TIP3   OH227120   5.932   3.093   3.277  0.3079 -0.1059  0.3944
 1902TIP3    H127121   5.901   3.115   3.189  1.2623 -3.4403 -0.9154
 1902TIP3    H227122   5.907   3.001   3.289  5.3478 -1.6634  1.1030
 1903TIP3   OH227123   1.226   1.322   3.465 -0.2343  0.2298 -0.1274
 1903TIP3    H127124   1.166   1.397   3.464 -0.1912  0.2607 -1.4666
 1903TIP3    H227125   1.169   1.246   3.457 -0.1939  0.1763  0.0865
 1904TIP3   OH227126   0.145   2.504  12.257 -0.2076 -0.1630 -0.1067
 1904TIP3    H127127   0.148   2.482  12.350 -0.5173  1.3114  0.2788
 1904TIP3    H227128   0.066   2.558  12.248  0.8489  1.3045 -0.8499
 1905TIP3   OH227129   6.356   0.822   1.366  0.0701 -0.2592 -0.2416
 1905TIP3    H127130   6.352   0.730   1.392  0.8379 -0.1322  0.3841
 1905TIP3    H227131   6.433   0.856   1.411 -1.1251  1.1052  0.8822
 1906TIP3   OH227132   0.980   3.893   0.234 -0.4918 -0.2042  0.4728
 1906TIP3    H127133   1.040   3.838   0.184 -0.4921 -0.2431  0.5156
 1906TIP3    H227134   1.035   3.964   0.268  0.0975 -1.6510  2.7630
 1907TIP3   OH227135   6.091   3.290   2.651  0.1747  0.1342 -0.0294
 1907TIP3    H127136   6.062   3.364   2.704  0.9085  0.6681 -0.3666
 1907TIP3    H227137   6.134   3.330   2.575 -0.4981 -0.6217 -0.8318
 1908TIP3   OH227138   4.716   4.419  13.746 -0.1806  0.3227  0.2480
 1908TIP3    H127139   4.641   4.407  13.804 -0.7484  1.9857 -0.0830
 1908TIP3    H227140   4.707   4.508  13.712  2.2166  0.7879  0.5881
 1909TIP3   OH227141   3.926   6.386  11.191  0.8044 -0.0265 -0.5084
 1909TIP3    H127142   3.918   6.482  11.191 -2.2205 -0.1745 -1.1133
 1909TIP3    H227143   3.956   6.365  11.102 -0.6661  0.3255 -1.1273
 1910TIP3   OH227144   5.512   6.517  11.445 -0.7733  0.8048  0.3297
 1910TIP3    H127145   5.538   6.426  11.427 -2.8920 -0.1718  1.7312
 1910TIP3    H227146   5.548   6.535  11.532  0.1150  1.5226 -0.1802
 1911TIP3   OH227147   2.804   2.119  12.419  0.1709  0.0097  0.0222
 1911TIP3    H127148   2.845   2.040  12.452  0.3903  0.4112  0.7144
 1911TIP3    H227149   2.829   2.122  12.326 -0.3416 -1.0444 -0.1620
 1912TIP3   OH227150   1.548   5.997   1.141  0.1178  0.2885 -0.3068
 1912TIP3    H127151   1.522   5.907   1.162 -2.1164  0.7131 -1.0172
 1912TIP3    H227152   1.592   5.990   1.057 -1.9115  0.0347 -1.4145
 1913TIP3   OH227153   5.934   5.324  15.611 -0.1524  0.3385 -0.2284
 1913TIP3    H127154   5.913   5.311  15.704 -1.3594  2.1549 -0.1892
 1913TIP3    H227155   5.850   5.312  15.566  0.6097 -1.5479 -1.2547
 1914TIP3   OH227156   4.722   5.529  13.560 -0.4145  0.0553  0.0442
 1914TIP3    H127157   4.745   5.436  13.546  1.1067  0.2323  1.1605
 1914TIP3    H227158   4.635   5.538  13.521 -0.4309 -1.7544 -0.4291
 1915TIP3   OH227159   5.108   2.847   5.682  0.5275 -0.2801  0.3144
 1915TIP3    H127160   5.064   2.800   5.753  0.4798 -0.6660  0.0319
 1915TIP3    H227161   5.107   2.938   5.710 -0.2182 -0.3180  0.4309
 1916TIP3   OH227162   0.054   1.962  13.951 -0.6222  0.2331  0.0868
 1916TIP3    H127163   0.065   1.964  14.046 -3.3515  0.7991  0.4826
 1916TIP3    H227164   0.067   2.053  13.924  0.1778  0.0681 -0.1126
 1917TIP3   OH227165   3.038   4.153   5.773 -0.3243 -0.5014 -0.1194
 1917TIP3    H127166   3.017   4.246   5.782 -2.0692 -1.0247  2.0211
 1917TIP3    H227167   3.133   4.149   5.778 -0.2946  0.9301  3.9127
 1918TIP3   OH227168   6.095   1.537  14.321 -0.4269 -0.2490 -0.5701
 1918TIP3    H127169   6.113   1.550  14.228 -0.0866 -1.4021 -0.6742
 1918TIP3    H227170   6.019   1.593  14.339  0.7835  1.6509 -1.0335
 1919TIP3   OH227171   2.050   5.844  15.497  0.3082 -0.0169 -0.0273
 1919TIP3    H127172   2.072   5.842  15.403 -0.7443 -1.0325 -0.2650
 1919TIP3    H227173   2.041   5.752  15.522 -2.2721  0.2677  0.3596
 1920TIP3   OH227174   4.277   6.564  13.328  0.3921 -0.0588 -0.4524
 1920TIP3    H127175   4.285   6.655  13.301  0.6633 -0.1217 -0.5867
 1920TIP3    H227176   4.198   6.532  13.285  0.4840  0.0155 -0.6745
 1921TIP3   OH227177   0.378   3.229   5.786  0.1396 -0.0066 -0.0102
 1921TIP3    H127178   0.319   3.182   5.844  1.2107 -1.5533 -0.1295
 1921TIP3    H227179   0.329   3.237   5.704  0.0290 -1.1240 -0.0609
 1922TIP3   OH227180   2.476   6.660   3.963 -0.0310 -0.0293  0.0490
 1922TIP3    H127181   2.569   6.661   3.986  0.1424 -0.4883 -0.6043
 1922TIP3    H227182   2.472   6.704   3.878 -0.2251 -1.1966 -0.5566
 1923TIP3   OH227183   0.809   6.582  11.321  0.0730 -0.2267  0.0688
 1923TIP3    H127184   0.860   6.511  11.281 -2.3744 -1.7154 -0.6149
 1923TIP3    H227185   0.815   6.653  11.257  0.4745 -0.7145 -0.4566
 1924TIP3   OH227186   5.259   5.509   1.621  0.6268 -0.1808 -0.2072
 1924TIP3    H127187   5.226   5.430   1.577  0.8983 -1.5380  1.9156
 1924TIP3    H227188   5.186   5.537   1.676  0.9538  0.3323 -0.0330
 1925TIP3   OH227189   1.809   1.403  13.172  0.0750 -0.0874  0.1008
 1925TIP3    H127190   1.846   1.396  13.260 -0.3479 -0.6185  0.2458
 1925TIP3    H227191   1.764   1.487  13.171  0.8503  0.3290  0.0874
 1926TIP3   OH227192   6.211   6.166  11.976 -0.1469  0.7109  0.6505
 1926TIP3    H127193   6.270   6.225  12.024  0.1287  0.1524  1.0215
 1926TIP3    H227194   6.137   6.220  11.950  0.4899  1.4056  0.2673
 1927TIP3   OH227195   6.203   3.969   1.654  0.4406  0.1507 -0.5534
 1927TIP3    H127196   6.246   3.951   1.738 -0.5889  1.0154  0.1894
 1927TIP3    H227197   6.252   4.043   1.618  1.0537 -0.3929 -0.8622
 1928TIP3   OH227198   5.033   6.351   3.340  0.0779  0.2448 -0.3700
 1928TIP3    H127199   4.969   6.301   3.289 -0.9202  2.2810 -1.1918
 1928TIP3    H227200   5.071   6.412   3.277  0.5468  1.2077  0.8166
 1929TIP3   OH227201   1.669   2.036  15.340 -0.1596  0.5303 -0.4390
 1929TIP3    H127202   1.646   1.943  15.344  0.6657  0.3401  0.3410
 1929TIP3    H227203   1.602   2.080  15.392  0.1445  0.2089  0.2410
 1930TIP3   OH227204   5.315   5.293  17.097  0.1923  0.0828 -0.3745
 1930TIP3    H127205   5.278   5.227  17.039 -0.0229  1.0163 -1.3345
 1930TIP3    H227206   5.397   5.319  17.056  0.5748 -0.0261  0.3138
 1931TIP3   OH227207   1.174   4.134   3.193  0.1051 -0.1597 -0.6746
 1931TIP3    H127208   1.098   4.150   3.137  0.0850  1.3342 -0.2392
 1931TIP3    H227209   1.173   4.205   3.257  1.0191 -0.9705  0.2707
 1932TIP3   OH227210   2.696   4.290   6.757  0.3490  0.2760  0.2882
 1932TIP3    H127211   2.632   4.219   6.760  0.3024  0.2817 -0.5692
 1932TIP3    H227212   2.644   4.369   6.768  0.0130  0.3818 -1.8193
 1933TIP3   OH227213   5.442   2.559  11.726 -0.1455  0.5123 -0.2649
 1933TIP3    H127214   5.369   2.504  11.754  0.1572  1.1746  2.0407
 1933TIP3    H227215   5.400   2.634  11.685 -0.6104 -0.5608 -1.8569
 1934TIP3   OH227216   0.754   4.511  14.987  0.5098  0.1458  0.2245
 1934TIP3    H127217   0.850   4.516  14.993  0.4586 -0.5816  3.3322
 1934TIP3    H227218   0.736   4.420  14.965  0.5645 -0.3529  2.0641
 1935TIP3   OH227219   6.184   5.585   1.608  0.1010  0.4940  0.3113
 1935TIP3    H127220   6.100   5.572   1.653 -0.9001  0.2632 -1.5454
 1935TIP3    H227221   6.190   5.511   1.548  0.4579  1.7994 -1.3078
 1936TIP3   OH227222   3.710   6.628   1.343 -0.3802 -0.9170  0.2217
 1936TIP3    H127223   3.789   6.663   1.303 -1.7185  0.2452 -1.5620
 1936TIP3    H227224   3.717   6.533   1.332  0.2305 -0.7483 -0.9771
 1937TIP3   OH227225   5.833   4.483   5.906  0.1179  0.5035  0.1446
 1937TIP3    H127226   5.846   4.443   5.820  0.9681 -0.3040  0.6305
 1937TIP3    H227227   5.748   4.527   5.899 -1.5292 -2.4545 -0.0339
 1938TIP3   OH227228   3.732   1.136   5.650  0.1171 -0.1317 -0.0302
 1938TIP3    H127229   3.827   1.124   5.661  0.2997  0.9506 -0.3249
 1938TIP3    H227230   3.698   1.140   5.740  0.4752  0.3301  0.0913
 1939TIP3   OH227231   0.918   1.999   1.359 -0.0157 -0.6222  0.1609
 1939TIP3    H127232   0.890   1.996   1.450 -0.4994 -0.1245  0.0303
 1939TIP3    H227233   0.996   1.943   1.357 -0.6787 -1.6011  0.6313
 1940TIP3   OH227234   5.182   5.076  11.708  0.7948  0.4101 -0.3939
 1940TIP3    H127235   5.248   5.037  11.764  2.0041 -0.6658 -2.4599
 1940TIP3    H227236   5.100   5.034  11.735  1.4236 -0.4733  0.1987
 1941TIP3   OH227237   2.107   3.145   0.562  0.0509  0.0836  0.6389
 1941TIP3    H127238   2.126   3.091   0.485 -0.6964  0.7149 -0.0106
 1941TIP3    H227239   2.183   3.203   0.569 -0.5353  1.0551 -0.5707
 1942TIP3   OH227240   5.812   5.321  12.807  0.3559  0.1173  0.3146
 1942TIP3    H127241   5.899   5.292  12.780  0.3032  0.6858 -0.4746
 1942TIP3    H227242   5.801   5.407  12.767  0.0411  0.7448  1.6745
 1943TIP3   OH227243   2.225   0.297   5.290  0.2746  0.1240  0.3408
 1943TIP3    H127244   2.134   0.311   5.264  0.9668  2.4453 -1.1276
 1943TIP3    H227245   2.234   0.345   5.372  0.7658  2.2007 -0.8621
 1944TIP3   OH227246   2.836   4.469   5.179 -0.0461  0.3325 -0.4949
 1944TIP3    H127247   2.844   4.496   5.087  1.5747 -3.6729 -1.7233
 1944TIP3    H227248   2.892   4.391   5.186 -1.7843 -0.7749  3.3822
 1945TIP3   OH227249   6.276   0.540  14.237 -0.0855  0.3174 -0.1100
 1945TIP3    H127250   6.242   0.607  14.178 -0.8618  0.4162  0.4386
 1945TIP3    H227251   6.246   0.566  14.324 -1.4041 -1.3248 -0.0086
 1946TIP3   OH227252   1.704   3.366  14.844  0.5093  0.0148  0.4751
 1946TIP3    H127253   1.673   3.395  14.759  1.5311  0.7944  0.3559
 1946TIP3    H227254   1.719   3.446  14.893 -0.7943 -0.4372  1.6758
 1947TIP3   OH227255   0.778   5.048   6.397  0.0567 -0.7222 -0.0039
 1947TIP3    H127256   0.724   5.124   6.373  1.3325  0.1223 -0.2919
 1947TIP3    H227257   0.732   5.009   6.472 -0.1766  0.8491  0.7111
 1948TIP3   OH227258   0.277   1.457   5.148  0.5277 -0.7212  1.3704
 1948TIP3    H127259   0.225   1.398   5.202 -1.7843 -0.0309  0.0328
 1948TIP3    H227260   0.296   1.408   5.068 -2.8272  0.6829 -0.4781
 1949TIP3   OH227261   0.999   0.104   1.554  0.0912 -0.3456 -0.3943
 1949TIP3    H127262   1.020   0.034   1.616  0.1275 -1.1515 -1.2909
 1949TIP3    H227263   0.917   0.140   1.586  2.2488  2.3906  2.7724
 1950TIP3   OH227264   5.035   2.466   0.491  0.6331 -0.2437  0.2689
 1950TIP3    H127265   4.978   2.543   0.489 -0.6432 -1.1376  0.6900
 1950TIP3    H227266   5.072   2.461   0.403 -2.6718 -1.5529 -1.2324
 1951TIP3   OH227267   2.309   1.042  15.382  0.6904 -0.3651  1.0412
 1951TIP3    H127268   2.397   1.032  15.345  0.4154 -0.3685  0.3745
 1951TIP3    H227269   2.320   1.104  15.454  0.8297  1.6441 -0.6196
 1952TIP3   OH227270   2.909   5.699   5.039 -0.2373  0.3758 -0.1942
 1952TIP3    H127271   2.941   5.611   5.020 -0.7173 -0.0568  0.8742
 1952TIP3    H227272   2.978   5.758   5.007  0.6350 -0.4391  0.1347
 1953TIP3   OH227273   3.441   3.410   5.491  0.3692  0.0918 -0.3906
 1953TIP3    H127274   3.507   3.431   5.425  0.3562 -1.3037 -0.8906
 1953TIP3    H227275   3.358   3.422   5.446  0.3061  0.8770 -0.0691
 1954TIP3   OH227276   0.304   6.251   6.062 -0.0456  0.0282  0.8213
 1954TIP3    H127277   0.263   6.199   6.132  1.2059 -2.6916 -0.3211
 1954TIP3    H227278   0.396   6.227   6.065  0.0160 -0.4135 -1.9080
 1955TIP3   OH227279   5.279   5.481  13.914  0.3316 -0.2733 -0.3185
 1955TIP3    H127280   5.309   5.402  13.959 -0.6418 -0.4785  0.0067
 1955TIP3    H227281   5.280   5.549  13.981 -1.3015 -0.6227  0.1131
 1956TIP3   OH227282   0.264   6.152  16.558 -0.5605  0.2230 -0.2344
 1956TIP3    H127283   0.269   6.061  16.528 -1.2615 -0.1655  0.7563
 1956TIP3    H227284   0.257   6.145  16.654 -0.5316  1.3206 -0.1392
 1957TIP3   OH227285   3.287   6.657   1.997 -0.2033 -0.2263 -0.4700
 1957TIP3    H127286   3.232   6.688   1.925 -2.0001  0.2136  0.9808
 1957TIP3    H227287   3.257   6.567   2.013 -0.1003 -0.1877 -0.0488
 1958TIP3   OH227288   2.551   5.578  14.163  0.0371 -0.2188 -0.4059
 1958TIP3    H127289   2.628   5.599  14.217 -1.3865  1.8634  0.9430
 1958TIP3    H227290   2.487   5.543  14.225 -0.3461 -1.4140 -1.4262
 1959TIP3   OH227291   2.804   6.309   1.417 -0.6823  0.5949 -0.3333
 1959TIP3    H127292   2.832   6.225   1.452  0.1996 -0.0318 -2.3731
 1959TIP3    H227293   2.781   6.361   1.494 -0.4519 -1.2155  1.0207
 1960TIP3   OH227294   0.648   5.934  17.110 -0.6550  0.4144  0.0990
 1960TIP3    H127295   0.649   5.909  17.018 -1.3479  0.1815  0.1516
 1960TIP3    H227296   0.568   5.895  17.145 -0.2354  0.2186  0.8776
 1961TIP3   OH227297   1.187   5.656   0.019  0.5012  0.4015  0.5006
 1961TIP3    H127298   1.178   5.562   0.030  2.0229  0.2532  0.7224
 1961TIP3    H227299   1.277   5.675   0.048  0.6445  1.7249 -0.6786
 1962TIP3   OH227300   5.132   5.934   2.235 -0.3472  0.3225  0.0934
 1962TIP3    H127301   5.102   5.854   2.277 -2.8115  1.7344  1.2702
 1962TIP3    H227302   5.157   5.991   2.307  2.0892  0.4123 -0.7544
 1963TIP3   OH227303   0.713   6.160   2.959  0.1534 -0.6251  0.6720
 1963TIP3    H127304   0.803   6.130   2.948  0.1608 -0.6663  0.8418
 1963TIP3    H227305   0.691   6.202   2.875  0.6501  0.2131  0.9548
 1964TIP3   OH227306   5.459   2.061   3.503 -0.5602  0.4632  0.0777
 1964TIP3    H127307   5.516   2.013   3.563 -2.7549 -0.6806  1.3788
 1964TIP3    H227308   5.499   2.148   3.497  2.0231 -0.6697 -0.1843
 1965TIP3   OH227309   5.642   4.211  11.095  0.1658  0.0771 -0.1817
 1965TIP3    H127310   5.607   4.133  11.053 -1.5602 -0.1099  1.4631
 1965TIP3    H227311   5.638   4.278  11.027  1.8651 -1.2499 -1.6883
 1966TIP3   OH227312   2.804   1.732   4.454 -0.7170  0.4561 -0.0138
 1966TIP3    H127313   2.712   1.714   4.472 -0.4697  0.2554  1.1010
 1966TIP3    H227314   2.806   1.752   4.360 -1.7993 -0.1273 -0.1840
 1967TIP3   OH227315   1.869   2.469   2.847  0.5284 -1.0155  0.5106
 1967TIP3    H127316   1.918   2.479   2.766  1.3780 -1.3553  0.9672
 1967TIP3    H227317   1.852   2.558   2.877 -1.0257 -0.8526 -0.7460
 1968TIP3   OH227318   4.534   3.815  13.432 -0.4126 -0.0801 -0.8398
 1968TIP3    H127319   4.586   3.741  13.464  0.0845  1.3357  1.8863
 1968TIP3    H227320   4.596   3.888  13.426 -0.5425 -0.0438 -4.9057
 1969TIP3   OH227321   5.061   1.948   4.427 -0.0983  0.0415 -0.6498
 1969TIP3    H127322   5.092   2.001   4.500  0.7501  0.5468 -1.3546
 1969TIP3    H227323   5.004   2.006   4.377  0.9348  0.3476 -1.4941
 1970TIP3   OH227324   2.361   6.452   3.839 -0.2730  0.5841  0.1825
 1970TIP3    H127325   2.422   6.517   3.873  1.3178 -0.3796 -0.7116
 1970TIP3    H227326   2.296   6.502   3.791  0.9207  1.5269 -0.4849
 1971TIP3   OH227327   3.712   4.135   2.322 -0.2096 -0.1678  0.1340
 1971TIP3    H127328   3.673   4.214   2.360 -1.7208 -0.0236 -1.5843
 1971TIP3    H227329   3.801   4.162   2.298  0.0510  0.3318  1.5388
 1972TIP3   OH227330   2.992   4.401  13.430 -0.7660  0.8430 -0.0871
 1972TIP3    H127331   3.044   4.410  13.351  0.4510  0.0241  0.5849
 1972TIP3    H227332   2.905   4.433  13.406 -0.7507 -0.4805 -2.0613
 1973TIP3   OH227333   2.854   0.095   1.241  0.9178 -0.2432 -0.0638
 1973TIP3    H127334   2.873   0.176   1.288 -0.5157  1.1059 -1.6801
 1973TIP3    H227335   2.922   0.088   1.175  0.9043 -0.2358 -0.0784
 1974TIP3   OH227336   1.703   1.658  12.271  0.7273 -0.1706 -0.0279
 1974TIP3    H127337   1.699   1.608  12.353  1.4353 -2.2624 -1.2145
 1974TIP3    H227338   1.780   1.714  12.282  1.8696 -1.7014  0.0882
 1975TIP3   OH227339   6.361   3.500   5.360 -0.4314  0.1790  0.5377
 1975TIP3    H127340   6.436   3.446   5.385 -1.2729 -0.3709  1.9566
 1975TIP3    H227341   6.305   3.441   5.309 -0.3555  0.3214  0.2863
 1976TIP3   OH227342   6.210   1.071   3.390 -0.0042  0.2985 -0.0448
 1976TIP3    H127343   6.176   1.014   3.321 -0.7092  1.1162 -0.3846
 1976TIP3    H227344   6.185   1.159   3.363  1.5220  0.8377  0.2188
 1977TIP3   OH227345   4.429   2.918   0.447  0.1549 -0.2142 -0.2328
 1977TIP3    H127346   4.345   2.892   0.485  0.6209  1.0214  1.7927
 1977TIP3    H227347   4.490   2.851   0.476  0.5016  0.7051  1.2784
 1978TIP3   OH227348   1.402   6.680  17.018  0.1542 -0.3382  0.1770
 1978TIP3    H127349   1.385   6.702  16.926 -1.8039  0.1439  0.6199
 1978TIP3    H227350   1.375   6.757  17.067 -1.2636 -1.4927  1.3193
 1979TIP3   OH227351   4.205   2.693  12.550  0.0777  0.4824  0.2040
 1979TIP3    H127352   4.157   2.611  12.560 -1.7844  1.0941 -2.7696
 1979TIP3    H227353   4.237   2.712  12.639 -1.3204 -2.2726  1.4305
 1980TIP3   OH227354   4.382   2.618  17.109  0.2893 -0.0968  0.2991
 1980TIP3    H127355   4.430   2.698  17.133 -0.2698  0.5629 -0.7032
 1980TIP3    H227356   4.316   2.609  17.178  1.6884 -0.9145  1.5949
 1981TIP3   OH227357   1.117   0.510   0.905 -0.3331 -0.2337  0.4001
 1981TIP3    H127358   1.207   0.529   0.878 -0.8832 -0.0790 -1.4445
 1981TIP3    H227359   1.118   0.521   1.001  1.2544  1.2330  0.2747
 1982TIP3   OH227360   6.426   0.095   6.454 -0.5734  0.2687  0.0351
 1982TIP3    H127361   6.367   0.152   6.504 -3.2218 -2.8912  0.8556
 1982TIP3    H227362   6.455   0.029   6.518  1.4956 -0.0050 -1.1010
 1983TIP3   OH227363   3.964   1.274   1.895 -0.0231  0.2455 -0.1022
 1983TIP3    H127364   3.914   1.193   1.887  1.4555 -0.6635 -0.6883
 1983TIP3    H227365   3.970   1.290   1.989 -1.1877  0.2504 -0.0197
 1984TIP3   OH227366   6.263   2.639  16.815  0.1864 -0.0049  0.3033
 1984TIP3    H127367   6.275   2.548  16.787 -0.6766  0.1489 -0.6246
 1984TIP3    H227368   6.175   2.662  16.784  0.2389  1.0263  0.8762
 1985TIP3   OH227369   6.729   6.558  11.661 -0.5247  0.0677  0.5689
 1985TIP3    H127370   6.820   6.531  11.647 -0.4128 -0.0827  1.4987
 1985TIP3    H227371   6.723   6.643  11.619 -0.4456 -0.6804 -1.0224
 1986TIP3   OH227372   0.574   4.992  12.758 -0.7237 -0.5040  0.3902
 1986TIP3    H127373   0.599   4.980  12.850  0.5945  1.0765  0.2789
 1986TIP3    H227374   0.498   5.050  12.761 -2.3224 -2.4715  0.5448
 1987TIP3   OH227375   6.720   6.547   1.976 -0.3133 -0.0799 -0.4022
 1987TIP3    H127376   6.801   6.595   1.962 -1.7803  2.8178  0.3124
 1987TIP3    H227377   6.664   6.571   1.902 -1.4224  0.1161  0.4749
 1988TIP3   OH227378   4.890   3.956   4.269 -0.0424 -0.6454 -0.2249
 1988TIP3    H127379   4.884   3.939   4.363  1.7354  0.0517  0.0627
 1988TIP3    H227380   4.968   3.907   4.241 -1.0506 -1.5683 -1.5457
 1989TIP3   OH227381   4.815   5.132   4.656  0.3410 -0.4639  0.4507
 1989TIP3    H127382   4.756   5.136   4.580  1.4913  0.7435 -0.4420
 1989TIP3    H227383   4.757   5.127   4.732 -1.1836  4.0678 -0.1009
 1990TIP3   OH227384   1.173   4.403  12.765  0.0495 -1.0456 -0.4116
 1990TIP3    H127385   1.086   4.441  12.775  0.4211 -0.1650 -0.4134
 1990TIP3    H227386   1.212   4.450  12.692  0.9537 -0.5975  0.3392
 1991TIP3   OH227387   2.212   6.276   3.992  0.0249 -0.2998 -0.3236
 1991TIP3    H127388   2.133   6.325   4.014  0.6640  0.4313  0.4148
 1991TIP3    H227389   2.263   6.335   3.937 -0.7943 -1.4974 -2.4953
 1992TIP3   OH227390   5.622   4.144   1.812  0.3889  0.1658 -0.2160
 1992TIP3    H127391   5.559   4.209   1.843  0.3812  0.3320 -0.5761
 1992TIP3    H227392   5.697   4.196   1.782  0.6642 -0.0253  0.1351
 1993TIP3   OH227393   2.041   6.182  16.115 -0.2135  0.8075  0.5417
 1993TIP3    H127394   2.011   6.091  16.108  0.2959  0.7715 -2.1727
 1993TIP3    H227395   1.968   6.228  16.157 -0.5875 -0.7648  1.7172
 1994TIP3   OH227396   6.416   5.163  16.970  0.0599  0.0925  0.1766
 1994TIP3    H127397   6.346   5.120  17.019 -0.2277 -0.1404 -0.4344
 1994TIP3    H227398   6.493   5.155  17.026  0.0050 -1.1779  0.0871
 1995TIP3   OH227399   1.385   4.216  13.573  0.3411  0.4825  0.0223
 1995TIP3    H127400   1.358   4.236  13.663 -1.4564  0.7276 -0.5287
 1995TIP3    H227401   1.326   4.268  13.519  0.5972 -0.5917 -1.3317
 1996TIP3   OH227402   3.234   1.703  14.093  0.9683 -0.1669 -0.0439
 1996TIP3    H127403   3.210   1.614  14.118  0.2766  0.2181  0.6870
 1996TIP3    H227404   3.306   1.692  14.030 -0.0483 -1.2935 -1.0533
 1997TIP3   OH227405   4.304   2.954   2.864 -0.5633  0.2445 -0.2474
 1997TIP3    H127406   4.235   2.984   2.805 -0.9406  0.3817  0.2524
 1997TIP3    H227407   4.314   2.861   2.844 -0.9166  0.2190 -0.3104
 1998TIP3   OH227408   0.190   3.535   5.057 -0.0556 -0.2652 -0.4753
 1998TIP3    H127409   0.240   3.460   5.091 -1.2777 -0.3247  1.3309
 1998TIP3    H227410   0.244   3.611   5.077  1.3120 -0.6190 -2.5450
 1999TIP3   OH227411   0.803   3.002  10.699  0.5141 -0.3191 -0.0058
 1999TIP3    H127412   0.847   3.038  10.776 -1.0705  0.9753  0.3574
 1999TIP3    H227413   0.783   2.912  10.722  1.8830 -0.5701  0.2761
 2000TIP3   OH227414   6.537   0.980  15.299 -0.5418 -0.6014 -0.0934
 2000TIP3    H127415   6.548   1.065  15.342 -1.7711  0.2361 -1.3231
 2000TIP3    H227416   6.482   0.999  15.222 -0.1291 -2.3677 -0.8837
 2001TIP3   OH227417   4.503   5.663  12.651  0.9587  0.3588 -0.7113
 2001TIP3    H127418   4.591   5.701  12.641  0.8375  0.7272 -0.4131
 2001TIP3    H227419   4.468   5.704  12.730  0.1104  1.0398 -1.4167
 2002TIP3   OH227420   6.255   0.419   4.206  0.0558 -0.5398  0.0200
 2002TIP3    H127421   6.260   0.367   4.126  0.4989 -1.8645  0.8739
 2002TIP3    H227422   6.326   0.386   4.261  2.0766  2.7091 -0.3537
 2003TIP3   OH227423   1.817   6.401   3.783  0.0890  0.1984  0.1672
 2003TIP3    H127424   1.812   6.347   3.705  0.8063 -1.3651  1.1583
 2003TIP3    H227425   1.725   6.413   3.810 -0.2240  1.4230 -1.3006
 2004TIP3   OH227426   2.551   3.474  10.771 -0.2073  0.1685 -0.1585
 2004TIP3    H127427   2.499   3.417  10.714  0.0018 -0.1373 -0.0527
 2004TIP3    H227428   2.557   3.557  10.724 -1.2577  0.3986  0.0832
 2005TIP3   OH227429   2.420   3.022  14.913  0.2092 -0.0075 -0.0852
 2005TIP3    H127430   2.420   3.081  14.988 -0.7219  0.7237 -0.6337
 2005TIP3    H227431   2.441   2.936  14.950 -0.7214  0.2469  1.1021
 2006TIP3   OH227432   1.838   4.207   2.243  0.2258  0.7974  0.1799
 2006TIP3    H127433   1.810   4.137   2.301  0.0750  0.9237  0.2612
 2006TIP3    H227434   1.924   4.179   2.211 -0.6028 -0.2838 -1.2085
 2007TIP3   OH227435   6.320   5.340   4.905 -0.0446 -0.2533  0.4979
 2007TIP3    H127436   6.359   5.428   4.907 -0.2108 -0.0758 -2.0007
 2007TIP3    H227437   6.320   5.313   4.997  1.7128  1.5968  1.1266
 2008TIP3   OH227438   1.587   1.930  17.160  0.1174  0.1559  0.0728
 2008TIP3    H127439   1.601   1.955  17.251  0.2132  0.3688 -0.0010
 2008TIP3    H227440   1.526   1.994  17.125  1.1157  0.8890 -0.3868
 2009TIP3   OH227441   3.912   4.196   1.948  1.0580 -0.0533 -0.9441
 2009TIP3    H127442   3.921   4.258   1.876 -1.3512  1.7212  0.1737
 2009TIP3    H227443   3.818   4.187   1.962  1.3967 -1.9686  0.6492
 2010TIP3   OH227444   2.776   2.674  15.153 -0.0153 -0.2047  0.0560
 2010TIP3    H127445   2.691   2.629  15.150  0.1360 -0.4800 -0.2016
 2010TIP3    H227446   2.808   2.657  15.242 -1.2541  1.8540  0.9856
 2011TIP3   OH227447   3.665   1.265   0.379  0.0442 -0.2962  0.2190
 2011TIP3    H127448   3.666   1.169   0.371 -0.5755 -0.3606  0.7908
 2011TIP3    H227449   3.598   1.293   0.317  0.7530 -0.1682 -0.4963
 2012TIP3   OH227450   4.195   0.305  13.439  0.0674 -0.1796 -0.0733
 2012TIP3    H127451   4.254   0.290  13.513 -0.1078  0.2538  0.1578
 2012TIP3    H227452   4.143   0.225  13.434  1.2560 -0.9395 -0.8358
 2013TIP3   OH227453   1.911   3.614  10.441  0.0226 -0.0736  0.1617
 2013TIP3    H127454   1.877   3.538  10.395 -2.3941  0.8361  0.2833
 2013TIP3    H227455   1.881   3.689  10.389 -0.1664  0.8753  1.5624
 2014TIP3   OH227456   4.304   3.958  14.522  0.4926 -0.0655 -0.1488
 2014TIP3    H127457   4.299   3.895  14.594  0.0781 -3.2689 -2.7642
 2014TIP3    H227458   4.386   3.937  14.477  1.1888  2.4472 -0.2558
 2015TIP3   OH227459   0.881   1.313   0.674  0.6405  0.6486  0.5684
 2015TIP3    H127460   0.897   1.291   0.766  0.6776  2.4742  1.0564
 2015TIP3    H227461   0.954   1.275   0.626  1.3275  0.7861  1.4892
 2016TIP3   OH227462   4.193   6.177   1.376  0.3010  0.1334 -0.4001
 2016TIP3    H127463   4.231   6.188   1.463 -0.6220 -0.2385  0.0652
 2016TIP3    H227464   4.258   6.213   1.316  0.6177  1.0911  0.5000
 2017TIP3   OH227465   1.942   4.636   2.804  0.3377 -0.0013  1.1311
 2017TIP3    H127466   2.004   4.579   2.851  2.8793  1.5999 -0.0262
 2017TIP3    H227467   1.976   4.639   2.715 -2.1015  0.1495  0.1502
 2018TIP3   OH227468   2.445   1.460  12.270 -0.0939 -0.1865  0.2988
 2018TIP3    H127469   2.536   1.461  12.238  0.1384 -3.4508  0.4490
 2018TIP3    H227470   2.392   1.465  12.190  0.3294 -1.2487 -0.0715
 2019TIP3   OH227471   0.122   2.665   0.449 -0.0998  0.1502  0.2748
 2019TIP3    H127472   0.063   2.732   0.484 -1.6952 -1.3397  0.5947
 2019TIP3    H227473   0.180   2.643   0.523  1.8904  2.5849 -0.4284
 2020TIP3   OH227474   2.203   2.664   4.625  0.1325  0.0613 -0.1069
 2020TIP3    H127475   2.193   2.596   4.692  3.1135 -2.6932 -2.1553
 2020TIP3    H227476   2.144   2.636   4.554  0.4025  0.3302 -0.4391
 2021TIP3   OH227477   2.407   2.249   4.821  0.0361 -0.1608  0.5705
 2021TIP3    H127478   2.421   2.162   4.785  0.5737 -0.8883  2.4285
 2021TIP3    H227479   2.428   2.309   4.749 -1.4037 -1.5411 -1.0876
 2022TIP3   OH227480   5.256   1.886   0.955 -0.3292 -0.5951 -0.7521
 2022TIP3    H127481   5.194   1.889   0.882  0.1835  0.7506 -1.1548
 2022TIP3    H227482   5.303   1.969   0.951 -0.7617 -0.1682  1.5397
 2023TIP3   OH227483   2.864   0.494  11.699 -0.1304  0.3323 -0.2846
 2023TIP3    H127484   2.859   0.460  11.788 -0.2761 -2.5540 -1.2947
 2023TIP3    H227485   2.786   0.550  11.691 -1.2248 -0.9415  0.8363
 2024TIP3   OH227486   4.733   4.893  13.812 -0.7307  0.2346 -0.4465
 2024TIP3    H127487   4.678   4.900  13.734 -0.9000 -1.1554 -0.4893
 2024TIP3    H227488   4.699   4.816  13.859 -1.7527  1.9903  1.9219
 2025TIP3   OH227489   2.100   2.616   6.062 -0.4378  0.1006  0.1616
 2025TIP3    H127490   2.084   2.543   6.122  2.6733  0.6553  1.9057
 2025TIP3    H227491   2.090   2.694   6.117  1.2879  0.6804 -0.2720
 2026TIP3   OH227492   5.612   5.066   0.650 -0.2574 -0.0516 -0.4575
 2026TIP3    H127493   5.576   4.982   0.678 -1.5822  0.2490 -1.1404
 2026TIP3    H227494   5.611   5.062   0.554  0.9298  0.2443 -0.5003
 2027TIP3   OH227495   6.441   6.632   2.959 -0.4173  0.8584  0.6847
 2027TIP3    H127496   6.354   6.593   2.956 -0.0482  0.0454  0.3960
 2027TIP3    H227497   6.460   6.658   2.869  0.8664 -1.7557  0.1150
 2028TIP3   OH227498   1.657   5.939   4.749  0.2248 -0.3756 -0.7188
 2028TIP3    H127499   1.628   5.971   4.664  0.8604  0.8953 -0.4846
 2028TIP3    H227500   1.581   5.951   4.806  0.5735  1.2017 -0.5375
 2029TIP3   OH227501   6.098   5.604   0.081 -0.2565 -0.5044 -0.2214
 2029TIP3    H127502   6.121   5.535   0.020 -0.1714  0.1311 -0.9267
 2029TIP3    H227503   6.005   5.590   0.099 -0.8437  0.5347 -2.1744
 2030TIP3   OH227504   4.467   0.007  11.654 -0.3915  0.2529 -0.5670
 2030TIP3    H127505   4.505   0.058  11.582  1.1418  0.2381  0.1723
 2030TIP3    H227506   4.533   0.012  11.724 -1.9723  0.5295  0.9585
 2031TIP3   OH227507   4.012   4.582  13.594  0.0883 -0.7255 -0.2460
 2031TIP3    H127508   3.958   4.545  13.524 -0.6340 -0.1152 -0.0310
 2031TIP3    H227509   4.017   4.675  13.573  0.1326 -0.5929  0.3352
 2032TIP3   OH227510   1.518   0.987   0.863  0.2161  0.1250 -0.2264
 2032TIP3    H127511   1.575   0.922   0.904 -2.2016  0.1709  3.7314
 2032TIP3    H227512   1.453   0.934   0.816  1.8832  0.0226 -2.5929
 2033TIP3   OH227513   2.050   3.149   1.037  0.0145 -0.1674  0.1903
 2033TIP3    H127514   2.082   3.222   1.090  1.2824  0.7768 -1.7701
 2033TIP3    H227515   2.127   3.096   1.018 -0.2728 -0.1559 -1.1629
 2034TIP3   OH227516   3.012   0.466  12.426  0.2817  0.2974 -0.3493
 2034TIP3    H127517   3.003   0.516  12.507 -0.1829 -1.1109  0.4999
 2034TIP3    H227518   3.107   0.464  12.410  0.7108 -1.7107  1.7346
 2035TIP3   OH227519   4.325   2.312   4.778  0.2363 -0.4344 -0.0289
 2035TIP3    H127520   4.313   2.239   4.839 -1.4192 -1.6398 -1.7043
 2035TIP3    H227521   4.251   2.306   4.718  2.2283  0.1554 -2.7275
 2036TIP3   OH227522   2.573   4.431  15.347  0.0678  0.1901  0.1401
 2036TIP3    H127523   2.479   4.441  15.361 -0.1604  0.3181 -1.2614
 2036TIP3    H227524   2.610   4.413  15.433 -0.8673  2.8427  1.1811
 2037TIP3   OH227525   3.599   2.306  13.748 -0.5067 -0.0022 -0.2383
 2037TIP3    H127526   3.585   2.399  13.769 -0.5056 -0.1117  0.2595
 2037TIP3    H227527   3.520   2.281  13.700  0.7821  1.0339 -3.0987
 2038TIP3   OH227528   0.365   3.864   1.619  0.1268  0.2050 -0.0665
 2038TIP3    H127529   0.457   3.871   1.644 -0.1586 -1.4865  1.6995
 2038TIP3    H227530   0.333   3.954   1.620  1.1669  0.5972  1.7946
 2039TIP3   OH227531   4.817   6.089  15.933 -0.0483  0.1407 -0.0031
 2039TIP3    H127532   4.762   6.011  15.945 -0.2346  0.2529 -0.1197
 2039TIP3    H227533   4.754   6.160  15.918  0.1567  0.1083 -1.0956
 2040TIP3   OH227534   5.794   2.862   0.382  0.0944 -0.1025  0.0836
 2040TIP3    H127535   5.829   2.926   0.320  0.6544 -1.0118 -0.5688
 2040TIP3    H227536   5.757   2.914   0.453 -1.4961  1.0298 -1.4968
 2041TIP3   OH227537   0.573   2.849  10.959 -0.0925  0.5294  0.0157
 2041TIP3    H127538   0.631   2.893  11.021  0.5746  1.9939 -1.5752
 2041TIP3    H227539   0.631   2.796  10.905 -0.6008 -0.2753  0.2419
 2042TIP3   OH227540   3.714   0.153  11.762  0.6342 -0.2735 -0.0832
 2042TIP3    H127541   3.680   0.067  11.786  0.0853  0.3968  1.7064
 2042TIP3    H227542   3.707   0.205  11.842 -1.7603  2.3098 -1.7637
 2043TIP3   OH227543   4.353   4.571   3.073  0.4717  0.2075 -0.5249
 2043TIP3    H127544   4.395   4.512   3.011 -0.3623 -0.0820 -0.8308
 2043TIP3    H227545   4.302   4.631   3.018  1.7946  1.6354 -0.2620
 2044TIP3   OH227546   0.994   6.438  11.714  0.4523  0.0519 -0.1706
 2044TIP3    H127547   1.035   6.486  11.786 -0.3732  1.1164 -0.3829
 2044TIP3    H227548   0.914   6.400  11.752  0.6157 -0.3695 -0.2415
 2045TIP3   OH227549   4.731   2.122   3.601  0.2366 -0.2411  0.0929
 2045TIP3    H127550   4.641   2.091   3.596 -0.6241  1.3654  3.2813
 2045TIP3    H227551   4.740   2.181   3.526 -1.4800 -0.1186 -0.0640
 2046TIP3   OH227552   6.125   1.129   0.388 -0.0063  0.3488  0.2707
 2046TIP3    H127553   6.166   1.060   0.335 -1.0749 -0.5721  0.6078
 2046TIP3    H227554   6.193   1.195   0.398  0.5378  0.1121 -1.4430
 2047TIP3   OH227555   3.704   0.066  12.093 -0.3180 -0.2343  0.2612
 2047TIP3    H127556   3.619   0.079  12.051 -0.2157  0.8807  0.3501
 2047TIP3    H227557   3.725   0.152  12.131  0.0685 -0.9394  1.7034
 2048TIP3   OH227558   0.833   2.590   4.315 -0.9982  0.0358  0.0979
 2048TIP3    H127559   0.800   2.501   4.302 -1.3634  0.1246  0.3861
 2048TIP3    H227560   0.810   2.611   4.406  0.6394 -0.2228  0.6032
 2049TIP3   OH227561   4.059   0.721  15.678 -0.2130  0.3471  0.3240
 2049TIP3    H127562   4.126   0.666  15.717 -0.6314 -0.1235  0.3902
 2049TIP3    H227563   4.084   0.729  15.586 -0.6309 -0.7031  0.1064
 2050TIP3   OH227564   1.677   2.664  14.287 -0.4738  0.0710 -0.4895
 2050TIP3    H127565   1.769   2.644  14.268 -0.3569 -0.4425  0.5437
 2050TIP3    H227566   1.654   2.733  14.225  0.8788  0.8445 -0.1687
 2051TIP3   OH227567   5.589   2.779  16.882 -0.1439  0.4815  0.1358
 2051TIP3    H127568   5.514   2.837  16.897 -1.2274 -0.8540  0.0365
 2051TIP3    H227569   5.616   2.752  16.970 -2.0329 -1.7844  0.0907
 2052TIP3   OH227570   3.702   0.343  11.983  0.4278  0.0910 -0.4488
 2052TIP3    H127571   3.734   0.431  12.002 -0.5604  0.1584  1.0620
 2052TIP3    H227572   3.607   0.354  11.978  0.3770 -0.6961 -1.4515
 2053TIP3   OH227573   3.019   3.420   4.605  0.4254  0.2202 -0.7032
 2053TIP3    H127574   2.941   3.468   4.633  0.4386 -1.2903  2.2822
 2053TIP3    H227575   2.994   3.328   4.611  2.6165 -0.3250  1.0707
 2054TIP3   OH227576   6.660   4.958  16.560 -0.0485 -0.3587 -0.1540
 2054TIP3    H127577   6.700   4.875  16.587  2.8679  1.1940  0.7245
 2054TIP3    H227578   6.680   4.966  16.467  0.9647 -0.0002  0.0860
 2055TIP3   OH227579   5.083   5.246   3.279  0.5049 -0.4547 -0.0955
 2055TIP3    H127580   4.996   5.274   3.306  0.8024 -0.8507  1.3348
 2055TIP3    H227581   5.099   5.165   3.327  2.0963  0.1836  0.5262
 2056TIP3   OH227582   3.484   6.005   6.071 -0.3365 -0.5513  0.1724
 2056TIP3    H127583   3.576   6.006   6.098 -0.3451 -1.4102  0.2591
 2056TIP3    H227584   3.436   6.036   6.148 -0.1290 -0.2589  0.1819
 2057TIP3   OH227585   5.306   3.769   0.076 -0.4246  0.6344 -0.1807
 2057TIP3    H127586   5.324   3.814  -0.007  0.5236 -2.3810 -1.7698
 2057TIP3    H227587   5.215   3.742   0.070 -0.2531  0.1076 -0.3902
 2058TIP3   OH227588   1.162   2.045  15.700 -0.4952 -0.5516 -0.0079
 2058TIP3    H127589   1.102   2.099  15.751 -0.2075  0.1507 -0.4044
 2058TIP3    H227590   1.248   2.058  15.741 -0.5485 -1.3111  0.3669
 2059TIP3   OH227591   1.507   4.690   2.504 -0.2405  0.0735 -0.5433
 2059TIP3    H127592   1.556   4.651   2.431  0.9518 -1.0602  0.8152
 2059TIP3    H227593   1.430   4.633   2.513  0.7510 -1.1727  0.4837
 2060TIP3   OH227594   4.759   1.005  15.499 -0.2079  0.5734  0.4230
 2060TIP3    H127595   4.842   1.000  15.545  0.7959  0.0282 -1.3479
 2060TIP3    H227596   4.782   1.037  15.411 -1.7979 -0.0750 -0.2688
 2061TIP3   OH227597   0.484   3.648  15.364 -0.1238  0.0851  0.0582
 2061TIP3    H127598   0.443   3.562  15.355  0.1202 -0.1674  1.2111
 2061TIP3    H227599   0.565   3.631  15.412 -0.0897  0.9580  0.3228
 2062TIP3   OH227600   5.351   6.727   2.342 -0.1332  0.1083 -0.8355
 2062TIP3    H127601   5.317   6.771   2.420  0.0930 -0.8287 -0.1975
 2062TIP3    H227602   5.323   6.636   2.351  0.1837 -0.0848 -1.6853
 2063TIP3   OH227603   2.535   4.038   2.534 -0.1964  0.0495  0.6089
 2063TIP3    H127604   2.509   4.047   2.442  1.0031  1.3694  0.3632
 2063TIP3    H227605   2.452   4.040   2.582 -0.7476  1.2085 -0.3278
 2064TIP3   OH227606   3.746   2.994  13.790 -0.1826  0.1303 -0.0505
 2064TIP3    H127607   3.656   3.002  13.820 -0.6757  1.5905 -1.7019
 2064TIP3    H227608   3.759   2.900  13.775 -1.0623 -0.2022  1.2030
 2065TIP3   OH227609   0.216   3.163  14.217  0.0643  0.3728 -0.0890
 2065TIP3    H127610   0.194   3.069  14.222  1.2373  0.1360  1.3905
 2065TIP3    H227611   0.131   3.207  14.225 -0.3115 -0.5602  2.0150
 2066TIP3   OH227612   0.979   3.442   5.707  0.6684 -0.0652  0.0579
 2066TIP3    H127613   1.003   3.361   5.662 -1.7886 -0.6745 -0.3213
 2066TIP3    H227614   1.004   3.428   5.798 -2.1095 -2.5160  0.6274
 2067TIP3   OH227615   6.210   4.552  13.419 -0.1277  0.3946 -0.2015
 2067TIP3    H127616   6.120   4.572  13.393  0.3846  0.4162 -2.0957
 2067TIP3    H227617   6.245   4.634  13.453  0.2725  1.4450 -2.8835
 2068TIP3   OH227618   5.520   2.257   3.921 -0.2912  0.3188 -0.3290
 2068TIP3    H127619   5.571   2.271   3.841  0.1661  1.0115  0.0795
 2068TIP3    H227620   5.582   2.221   3.984 -0.8150 -0.9065 -0.4918
 2069TIP3   OH227621   1.393   3.141   5.569  0.4159  0.5565  0.2190
 2069TIP3    H127622   1.476   3.174   5.604  0.4182  0.7198  0.0634
 2069TIP3    H227623   1.393   3.170   5.478  0.0188  0.8743  0.3167
 2070TIP3   OH227624   2.931   2.214   1.529 -0.5248  0.3448 -0.2826
 2070TIP3    H127625   2.968   2.237   1.444  1.9492  0.3748  0.7056
 2070TIP3    H227626   2.899   2.297   1.565 -0.5035  0.5333 -0.7006
 2071TIP3   OH227627   6.734   5.454   4.355  0.5191  0.5065 -0.2735
 2071TIP3    H127628   6.823   5.488   4.365  0.1122  1.4434  0.2045
 2071TIP3    H227629   6.746   5.359   4.351  1.2821  0.3694  3.0059
 2072TIP3   OH227630   1.082   6.632  16.976 -0.3370 -0.4004 -0.5490
 2072TIP3    H127631   0.992   6.626  16.944  0.1760 -2.3673 -1.8108
 2072TIP3    H227632   1.085   6.572  17.051 -0.1365 -0.1191 -0.3281
 2073TIP3   OH227633   3.419   3.717   1.642 -0.2439  0.1730  0.3013
 2073TIP3    H127634   3.508   3.753   1.635 -0.3091  0.3293  0.2687
 2073TIP3    H227635   3.367   3.789   1.679 -0.3159  0.0131  0.5106
 2074TIP3   OH227636   1.399   2.513  12.488  0.0389 -0.3234  0.0512
 2074TIP3    H127637   1.324   2.571  12.500  0.3328 -0.1565  1.1352
 2074TIP3    H227638   1.409   2.507  12.393  0.5370  2.0888 -0.1196
 2075TIP3   OH227639   2.215   6.500   3.034 -0.3531 -0.7329 -0.2343
 2075TIP3    H127640   2.260   6.581   3.057  0.2103 -0.6335 -1.5666
 2075TIP3    H227641   2.140   6.496   3.093 -1.3911  1.6567 -1.2637
 2076TIP3   OH227642   4.911   3.325   0.617 -0.4876  0.1263 -0.4809
 2076TIP3    H127643   4.875   3.242   0.648 -0.4825 -0.4167 -1.8683
 2076TIP3    H227644   4.840   3.388   0.627 -0.9536 -0.3564 -0.7346
 2077TIP3   OH227645   4.701   1.265  14.266  0.0596 -0.1153  0.1003
 2077TIP3    H127646   4.706   1.343  14.210 -0.3255 -1.0631 -1.3163
 2077TIP3    H227647   4.626   1.281  14.323  0.8282  1.1400  0.8028
 2078TIP3   OH227648   2.972   5.356  14.776 -0.3239  0.5954 -0.3560
 2078TIP3    H127649   2.922   5.327  14.853  0.2594  1.6291  0.4521
 2078TIP3    H227650   3.064   5.351  14.803 -0.1656  2.7054 -0.2775
 2079TIP3   OH227651   0.716   1.801   6.261 -0.5136  0.0043  0.0265
 2079TIP3    H127652   0.755   1.851   6.189 -1.9079  0.0457 -0.7414
 2079TIP3    H227653   0.788   1.788   6.323  0.0886  2.3573 -0.0643
 2080TIP3   OH227654   0.043   2.666  11.986 -0.5265 -0.1836  0.2119
 2080TIP3    H127655   0.090   2.585  12.003  0.5965  0.1496 -1.0568
 2080TIP3    H227656   0.111   2.730  11.967 -1.4432  0.6234 -0.5196
 2081TIP3   OH227657   0.439   0.158   3.454  0.1923  0.4886  0.1430
 2081TIP3    H127658   0.368   0.100   3.481  0.4525  0.8219  1.6387
 2081TIP3    H227659   0.489   0.107   3.390 -1.4784  0.3276 -1.1134
 2082TIP3   OH227660   1.605   6.244   2.180 -0.1169  0.1683 -0.4419
 2082TIP3    H127661   1.516   6.213   2.198  0.8625 -2.1448  0.7807
 2082TIP3    H227662   1.626   6.303   2.252 -0.7453  0.9870 -0.9122
 2083TIP3   OH227663   4.442   4.747   1.607 -0.1368 -0.0999  0.4886
 2083TIP3    H127664   4.376   4.707   1.550  0.8602  0.3756 -1.0669
 2083TIP3    H227665   4.523   4.743   1.557  0.8126  0.2748  1.9284
 2084TIP3   OH227666   4.796   4.221  15.949 -0.1882 -0.1299  0.2127
 2084TIP3    H127667   4.702   4.201  15.951 -0.2966 -0.4650 -3.0988
 2084TIP3    H227668   4.838   4.135  15.946  0.1891  0.0365  0.6124
 2085TIP3   OH227669   2.145   4.186   5.408 -0.0151 -0.4426 -0.3244
 2085TIP3    H127670   2.070   4.210   5.353  0.5026 -1.4139 -1.5041
 2085TIP3    H227671   2.203   4.138   5.350  2.0960  1.2416  0.2786
 2086TIP3   OH227672   6.573   2.756  14.556  0.6735 -0.1498 -0.2743
 2086TIP3    H127673   6.570   2.697  14.631 -2.0285  0.5129  0.2382
 2086TIP3    H227674   6.645   2.723  14.503  2.1113 -1.1810  2.1418
 2087TIP3   OH227675   5.344   1.332   1.854 -0.3420 -0.1782 -0.2410
 2087TIP3    H127676   5.370   1.331   1.762 -0.6998 -1.3684 -0.3522
 2087TIP3    H227677   5.407   1.390   1.897 -0.1053  0.2941 -1.2168
 2088TIP3   OH227678   0.649   0.151   1.522  0.1521 -0.6152 -0.3831
 2088TIP3    H127679   0.674   0.058   1.524 -2.0731 -1.2707  1.1390
 2088TIP3    H227680   0.565   0.152   1.476  0.2217  0.6672 -0.5043
 2089TIP3   OH227681   0.260   6.571  11.677 -0.5850 -0.2074  0.3958
 2089TIP3    H127682   0.267   6.530  11.590 -0.8478  2.5132 -1.0007
 2089TIP3    H227683   0.246   6.497  11.737 -0.8550 -2.1439 -1.8999
 2090TIP3   OH227684   2.287   2.803   0.718  0.2606  0.4720  0.0364
 2090TIP3    H127685   2.314   2.712   0.705 -2.4024 -0.1806 -1.8258
 2090TIP3    H227686   2.349   2.854   0.666  0.3008 -0.5612 -0.9895
 2091TIP3   OH227687   1.135   3.057   3.113  0.4498  0.4502 -0.4074
 2091TIP3    H127688   1.072   3.129   3.110  1.0453  0.9573 -1.1960
 2091TIP3    H227689   1.213   3.096   3.152  0.1211 -0.3266  1.1215
 2092TIP3   OH227690   1.954   0.714   1.278 -0.6542  0.5062  0.9638
 2092TIP3    H127691   1.994   0.746   1.197  0.0458 -2.8142 -0.1565
 2092TIP3    H227692   2.023   0.723   1.344  0.0025 -0.0175  0.3569
 2093TIP3   OH227693   5.914   0.533  16.896 -0.5811  0.5938 -0.5829
 2093TIP3    H127694   5.989   0.591  16.907 -0.7987  0.9053 -0.7467
 2093TIP3    H227695   5.945   0.448  16.926 -0.4509  0.9285  0.2544
 2094TIP3   OH227696   5.856   3.337  11.194 -0.0123 -0.4668  0.1663
 2094TIP3    H127697   5.916   3.265  11.173  0.0191 -0.5032  0.3706
 2094TIP3    H227698   5.896   3.414  11.153 -0.3158 -0.6550 -0.4867
 2095TIP3   OH227699   2.090   2.059  12.472 -0.0937  0.4138  0.1268
 2095TIP3    H127700   2.183   2.083  12.473  1.1241 -3.4390 -0.5167
 2095TIP3    H227701   2.057   2.087  12.558  1.9229  1.1485  0.7125
 2096TIP3   OH227702   5.409   0.090  14.225  0.5425  0.3354 -0.1699
 2096TIP3    H127703   5.437   0.151  14.293 -0.7219 -0.2161  0.8889
 2096TIP3    H227704   5.375   0.146  14.155  1.4141  0.8935 -0.1601
 2097TIP3   OH227705   2.403   4.766   1.175  0.5641  0.4566 -0.4668
 2097TIP3    H127706   2.497   4.776   1.191  0.3623  1.3505  0.1867
 2097TIP3    H227707   2.373   4.707   1.244  0.6096  0.2815 -0.5940
 2098TIP3   OH227708   5.976   0.102   3.787  0.0646 -0.3757  0.4095
 2098TIP3    H127709   6.047   0.106   3.723  0.8794  2.6750  1.3571
 2098TIP3    H227710   5.992   0.020   3.835  3.8063  0.7237  1.4048
 2099TIP3   OH227711   4.527   6.175  14.575  0.1802  0.2154  0.0160
 2099TIP3    H127712   4.587   6.177  14.650  1.0242  0.2286 -0.6406
 2099TIP3    H227713   4.584   6.160  14.500 -0.7777 -1.1135 -0.4865
 2100TIP3   OH227714   5.097   3.738  16.212  0.2091 -0.3327  0.2246
 2100TIP3    H127715   5.145   3.817  16.236  1.4637 -0.6066 -1.2208
 2100TIP3    H227716   5.093   3.686  16.292  0.0233  0.8653  0.9995
 2101TIP3   OH227717   3.188   5.641   3.043  0.1375 -0.3734  0.3608
 2101TIP3    H127718   3.102   5.681   3.055  1.1620  2.5968 -1.1354
 2101TIP3    H227719   3.239   5.671   3.118 -0.0195 -1.9717  1.1434
 2102TIP3   OH227720   5.645   3.639   1.197 -0.0142  0.0936  0.1685
 2102TIP3    H127721   5.626   3.636   1.103  2.2181  0.0110 -0.3323
 2102TIP3    H227722   5.729   3.685   1.204 -0.2203  0.2823  2.1540
 2103TIP3   OH227723   3.936   4.769   0.621  0.0881 -0.3459 -0.5941
 2103TIP3    H127724   4.027   4.794   0.602  0.9454 -2.1982  0.7393
 2103TIP3    H227725   3.944   4.688   0.671 -2.2789  0.1885  0.7893
 2104TIP3   OH227726   1.339   0.979   4.404  0.3176 -0.2371  0.1038
 2104TIP3    H127727   1.368   1.035   4.333 -0.3647  0.3009  0.2379
 2104TIP3    H227728   1.244   0.971   4.391  0.0597  0.4891  1.3806
 2105TIP3   OH227729   6.085   0.810  13.198 -0.0922  0.4808 -0.7611
 2105TIP3    H127730   6.121   0.770  13.278  1.5771  0.1925 -1.6289
 2105TIP3    H227731   6.097   0.904  13.211 -1.9336  0.6364  0.2793
 2106TIP3   OH227732   0.196   3.772   4.459 -0.1777  0.2297  0.5535
 2106TIP3    H127733   0.256   3.725   4.401 -1.3860 -1.1558  0.3845
 2106TIP3    H227734   0.233   3.761   4.546 -0.0590 -0.3974  0.4231
 2107TIP3   OH227735   2.543   3.135  12.814  0.0753 -0.2504  0.3330
 2107TIP3    H127736   2.471   3.076  12.836 -0.8615  0.5839 -0.4019
 2107TIP3    H227737   2.617   3.077  12.799 -0.6780 -1.2051  0.2078
 2108TIP3   OH227738   4.966   5.757   3.686  0.3978 -0.1027 -0.0260
 2108TIP3    H127739   4.888   5.729   3.734  0.3381  0.1322  0.0196
 2108TIP3    H227740   5.026   5.788   3.753  1.1732 -1.7409  0.0857
 2109TIP3   OH227741   5.055   5.058   6.315 -0.3435 -0.1794 -0.4878
 2109TIP3    H127742   5.008   5.035   6.395  0.2791 -0.0739 -0.0849
 2109TIP3    H227743   5.142   5.085   6.345 -0.2764  0.3732 -1.1592
 2110TIP3   OH227744   5.635   4.268   3.039  0.0031  0.4758  0.0088
 2110TIP3    H127745   5.544   4.250   3.063 -0.2950  2.6215  0.7343
 2110TIP3    H227746   5.684   4.191   3.069 -1.8234 -2.0262 -2.8521
 2111TIP3   OH227747   4.594   4.485  16.284 -0.4786 -0.3147  0.3230
 2111TIP3    H127748   4.578   4.392  16.300 -0.5499 -0.2279  0.7669
 2111TIP3    H227749   4.513   4.528  16.312  0.0607  0.0103  1.4196
 2112TIP3   OH227750   2.608   3.704   5.312  0.0945 -0.3880  0.9838
 2112TIP3    H127751   2.633   3.699   5.404 -0.5233 -1.5959  1.1138
 2112TIP3    H227752   2.631   3.618   5.276  2.0874  0.6562 -0.4950
 2113TIP3   OH227753   6.185   5.983   3.252 -0.1595  0.0862  0.2456
 2113TIP3    H127754   6.176   6.009   3.344 -0.6643  2.5680 -0.4232
 2113TIP3    H227755   6.280   5.976   3.239  0.0218  1.5188  0.5675
 2114TIP3   OH227756   1.318   3.977  14.101 -0.4268 -0.4828  0.1729
 2114TIP3    H127757   1.379   4.050  14.092 -0.2635 -0.5856  0.4303
 2114TIP3    H227758   1.372   3.899  14.089 -0.5943 -0.5618 -0.0694
 2115TIP3   OH227759   3.400   2.916   4.087 -0.3431  0.4322 -0.1788
 2115TIP3    H127760   3.397   3.012   4.092 -0.1009  0.3898  2.5716
 2115TIP3    H227761   3.311   2.891   4.061 -0.7864  1.3803  0.3491
 2116TIP3   OH227762   2.478   6.611  12.309 -0.2987 -0.2640 -0.0811
 2116TIP3    H127763   2.527   6.682  12.268  1.5109 -0.1345  2.0891
 2116TIP3    H227764   2.467   6.546  12.240  1.4889  0.4415 -1.0942
 2117TIP3   OH227765   3.482   2.965   1.917 -0.3523 -0.6696  0.0215
 2117TIP3    H127766   3.486   3.041   1.975 -2.2553  0.1506 -0.8233
 2117TIP3    H227767   3.525   2.994   1.836  2.2236 -1.7832  0.8945
 2118TIP3   OH227768   1.935   2.029   4.363 -0.1155 -0.1209  0.1268
 2118TIP3    H127769   1.985   2.023   4.445  3.0616 -0.1798 -1.6589
 2118TIP3    H227770   1.952   2.117   4.330 -1.1683 -0.1716 -0.6099
 2119TIP3   OH227771   4.451   5.868  13.788 -0.4804  0.1480 -0.0969
 2119TIP3    H127772   4.413   5.796  13.737 -0.9753 -0.6416  1.3353
 2119TIP3    H227773   4.472   5.935  13.723  2.4640 -2.2529 -1.8834
 2120TIP3   OH227774   3.174   2.724   6.076 -0.0295 -0.4447 -0.2199
 2120TIP3    H127775   3.098   2.686   6.031 -1.0737  0.6226  0.5673
 2120TIP3    H227776   3.168   2.818   6.058  0.1077 -0.1287  1.2685
 2121TIP3   OH227777   6.640   2.339   0.141  0.0908  0.1205  0.4465
 2121TIP3    H127778   6.635   2.412   0.080  1.5809  1.9551  2.3463
 2121TIP3    H227779   6.733   2.335   0.166 -0.0372 -2.1327  0.8039
 2122TIP3   OH227780   0.992   4.371   3.608  0.0139  0.2648 -0.0957
 2122TIP3    H127781   1.000   4.450   3.663  0.4818  0.7378 -0.8304
 2122TIP3    H227782   0.901   4.343   3.622 -0.1480  0.9063  0.2245
 2123TIP3   OH227783   6.068   2.453   4.482  0.4025 -0.0812  0.4661
 2123TIP3    H127784   5.982   2.491   4.501  0.5745  0.0792  0.9311
 2123TIP3    H227785   6.077   2.380   4.544 -0.1440 -1.2298 -0.7568
 2124TIP3   OH227786   0.360   5.308   2.433  0.0613 -0.2525 -0.5330
 2124TIP3    H127787   0.344   5.246   2.361 -0.4708 -0.1466 -0.5069
 2124TIP3    H227788   0.447   5.343   2.415 -0.1572 -0.0708 -1.2437
 2125TIP3   OH227789   4.163   1.822   2.304  0.4314  0.1876 -0.2177
 2125TIP3    H127790   4.124   1.823   2.217 -2.3586  2.5288  0.8911
 2125TIP3    H227791   4.208   1.905   2.311  0.4333  0.1255  0.6281
 2126TIP3   OH227792   3.748   1.962   4.466  0.6471  0.1821 -0.1890
 2126TIP3    H127793   3.670   1.958   4.521  0.0777  0.1851 -0.9855
 2126TIP3    H227794   3.792   2.043   4.493 -0.6321  1.1935 -1.0377
 2127TIP3   OH227795   4.801   2.283   4.529 -0.0658 -0.2422 -0.1406
 2127TIP3    H127796   4.816   2.192   4.503  3.9583  0.5958 -1.5088
 2127TIP3    H227797   4.823   2.285   4.622 -0.1262 -0.6700 -0.1144
 2128TIP3   OH227798   0.825   5.550  13.738  0.0545  0.8520 -0.3024
 2128TIP3    H127799   0.767   5.474  13.732  0.1641  0.8429 -1.4155
 2128TIP3    H227800   0.897   5.521  13.794 -0.0186  0.2040 -0.5388
 2129TIP3   OH227801   0.314   6.124  12.052 -0.2626  0.3499  0.3692
 2129TIP3    H127802   0.287   6.211  12.081  0.0315  0.1173  1.3985
 2129TIP3    H227803   0.409   6.127  12.053 -0.1306  1.0423 -2.8597
 2130TIP3   OH227804   1.912   2.028  15.680  0.2005  0.1076  0.8275
 2130TIP3    H127805   1.881   1.973  15.752  1.3278 -0.3549  0.9713
 2130TIP3    H227806   1.875   1.988  15.602 -0.4263  0.1805  1.0828
 2131TIP3   OH227807   4.347   6.384  14.810 -0.3761 -0.4114  0.0132
 2131TIP3    H127808   4.383   6.295  14.814 -0.7683 -0.5540  0.3629
 2131TIP3    H227809   4.421   6.440  14.835  0.4259 -0.4810 -1.9940
 2132TIP3   OH227810   5.337   2.563   4.063 -0.8412  0.4074 -0.3339
 2132TIP3    H127811   5.390   2.625   4.012 -1.0784 -1.1765 -2.6455
 2132TIP3    H227812   5.396   2.533   4.132  0.2328  1.0484 -0.9391
 2133TIP3   OH227813   1.953   4.504   1.764  0.0322  0.6299 -0.3385
 2133TIP3    H127814   1.894   4.442   1.720 -0.9901  1.1079  0.3402
 2133TIP3    H227815   2.010   4.448   1.817 -1.6224  0.2655  1.1697
 2134TIP3   OH227816   4.702   5.069  14.588  0.5892  0.4612 -0.4162
 2134TIP3    H127817   4.782   5.120  14.599  0.3211  0.6892  0.5694
 2134TIP3    H227818   4.673   5.090  14.499  2.4257 -0.8279 -1.3758
 2135TIP3   OH227819   5.625   2.975   5.066 -0.2108  0.0916  0.4397
 2135TIP3    H127820   5.543   2.924   5.068 -0.2040  0.1003  1.4015
 2135TIP3    H227821   5.596   3.066   5.063 -0.2395  0.0938 -2.6160
 2136TIP3   OH227822   4.165   3.085   5.611 -0.4624 -0.0960  0.3049
 2136TIP3    H127823   4.200   3.148   5.674 -0.9802  0.1239  0.3789
 2136TIP3    H227824   4.183   3.000   5.650  0.5545 -0.0072  0.0411
 2137TIP3   OH227825   5.814   2.952   6.254  0.2539  0.4730 -0.4528
 2137TIP3    H127826   5.903   2.930   6.280 -0.2575  0.9230  1.8526
 2137TIP3    H227827   5.761   2.934   6.331 -1.6011  0.6635 -1.6222
 2138TIP3   OH227828   5.226   5.523  12.287  0.4888 -0.9645  0.3901
 2138TIP3    H127829   5.301   5.504  12.230  1.8170  4.3969 -0.2499
 2138TIP3    H227830   5.151   5.526  12.228  1.3694  1.6497 -0.7882
 2139TIP3   OH227831   2.041   6.058   2.789  0.3743  0.4392 -0.2576
 2139TIP3    H127832   2.104   6.123   2.759 -0.1365 -0.5569 -3.9650
 2139TIP3    H227833   1.959   6.083   2.746 -1.0244 -0.0891  1.9380
 2140TIP3   OH227834   6.370   1.897   3.054 -0.5471 -0.1253  1.0222
 2140TIP3    H127835   6.355   1.834   2.984 -0.5466  0.1463  0.7771
 2140TIP3    H227836   6.404   1.975   3.010  0.4981 -0.3251  1.4264
 2141TIP3   OH227837   4.341   6.267   3.264 -0.4457 -0.1976  0.0855
 2141TIP3    H127838   4.291   6.226   3.335 -1.8612 -0.4032 -0.9934
 2141TIP3    H227839   4.311   6.357   3.263 -0.0615 -0.0670  0.0489
 2142TIP3   OH227840   4.089   0.754  14.068  0.1051 -0.3512 -0.6961
 2142TIP3    H127841   4.043   0.777  14.149  1.3852  0.1330 -0.0843
 2142TIP3    H227842   4.046   0.674  14.038 -0.6539 -0.3140  0.2460
 2143TIP3   OH227843   6.106   5.610  15.918  0.0535  0.1834  0.5219
 2143TIP3    H127844   6.026   5.585  15.964  0.1970 -0.0544  0.6440
 2143TIP3    H227845   6.097   5.704  15.903 -0.4636  0.0738  0.1205
 2144TIP3   OH227846   6.514   2.129  17.227 -0.2945 -0.4707  0.0434
 2144TIP3    H127847   6.530   2.200  17.290  2.5760 -1.6346  0.8151
 2144TIP3    H227848   6.479   2.173  17.150 -1.0049  1.4293  1.3662
 2145TIP3   OH227849   1.619   5.202   1.573  0.2913  0.5585  0.1153
 2145TIP3    H127850   1.620   5.217   1.478  0.0941 -0.0170  0.0170
 2145TIP3    H227851   1.655   5.282   1.610 -1.9224  1.8398 -0.3093
 2146TIP3   OH227852   0.873   4.265   5.912 -0.2216  0.0946  0.3159
 2146TIP3    H127853   0.810   4.267   5.984  1.9059  0.5006  2.2903
 2146TIP3    H227854   0.948   4.316   5.944  0.3075  1.4863 -2.7439
 2147TIP3   OH227855   0.627   1.410   1.311  0.0035 -0.0885 -1.2531
 2147TIP3    H127856   0.536   1.384   1.327 -0.1063  1.4046  1.0318
 2147TIP3    H227857   0.622   1.504   1.295  1.2616  0.4112  0.8886
 2148TIP3   OH227858   2.761   2.131   4.581 -0.3911 -0.1524 -0.5369
 2148TIP3    H127859   2.809   2.203   4.622 -1.2904 -0.2748  0.8044
 2148TIP3    H227860   2.814   2.053   4.600  0.0955  0.0182 -1.1635
 2149TIP3   OH227861   4.228   6.510  16.110 -1.0894 -0.6228 -0.5652
 2149TIP3    H127862   4.257   6.462  16.032 -1.6846 -1.2867 -0.3834
 2149TIP3    H227863   4.143   6.472  16.132 -0.8614 -0.5605  0.5061
 2150TIP3   OH227864   6.327   6.736  12.076 -0.1108  0.0524 -0.0139
 2150TIP3    H127865   6.307   6.643  12.089  0.6059 -0.3062 -1.3595
 2150TIP3    H227866   6.422   6.742  12.085 -0.2316  0.8270  0.9521
 2151TIP3   OH227867   5.415   1.931   2.908 -0.1022  0.4441 -0.3270
 2151TIP3    H127868   5.392   1.952   2.817  0.0254  2.9496  0.1368
 2151TIP3    H227869   5.334   1.948   2.957  0.7357  2.5861  0.4284
 2152TIP3   OH227870   2.884   1.531   2.106  0.2947 -0.1648 -0.1283
 2152TIP3    H127871   2.860   1.624   2.110  0.4000 -0.1657  0.8510
 2152TIP3    H227872   2.953   1.522   2.172 -2.5254 -1.7393  2.9302
 2153TIP3   OH227873   3.595   2.316  14.577  0.1735  0.0982 -0.4300
 2153TIP3    H127874   3.524   2.277  14.525  1.1646 -0.1317 -1.6574
 2153TIP3    H227875   3.599   2.262  14.656 -1.6991  0.7643  0.1883
 2154TIP3   OH227876   2.374   3.194  12.534 -0.0482  0.4861  0.1484
 2154TIP3    H127877   2.340   3.117  12.491  1.2290  0.6261 -1.2039
 2154TIP3    H227878   2.455   3.164  12.577  0.8443  1.1751 -0.9882
 2155TIP3   OH227879   5.628   3.343   0.174 -0.4621  0.1297 -0.2600
 2155TIP3    H127880   5.600   3.265   0.126 -0.3117 -0.0213 -0.1002
 2155TIP3    H227881   5.559   3.408   0.156 -2.0269 -0.8454  1.7435
 2156TIP3   OH227882   6.334   4.377  10.796 -0.7480  0.2067 -0.5284
 2156TIP3    H127883   6.292   4.444  10.850 -0.6525  0.2471 -0.5042
 2156TIP3    H227884   6.427   4.382  10.820 -0.6562  0.4306 -0.9156
 2157TIP3   OH227885   1.014   3.294   5.967 -0.8134 -0.3588  0.1635
 2157TIP3    H127886   0.946   3.227   5.961 -0.7979 -0.5742  1.9576
 2157TIP3    H227887   1.056   3.279   6.051 -0.2418  1.3790  0.2344
 2158TIP3   OH227888   3.492   5.312  11.384 -0.0548  0.1839 -0.6359
 2158TIP3    H127889   3.478   5.278  11.295 -0.3422  0.2260 -0.6046
 2158TIP3    H227890   3.415   5.365  11.402  0.4071  0.9078 -0.7045
 2159TIP3   OH227891   4.935   2.536  12.822  0.1121  0.1995  0.0112
 2159TIP3    H127892   4.992   2.612  12.832  0.1801  0.2061 -0.4076
 2159TIP3    H227893   4.894   2.525  12.908  1.0795 -0.0788  0.4561
 2160TIP3   OH227894   1.249   0.377   2.625 -0.0458  0.3667 -0.0462
 2160TIP3    H127895   1.335   0.344   2.653 -0.3915  0.3570  1.0474
 2160TIP3    H227896   1.249   0.366   2.530  0.7202 -0.7120  0.0604
 2161TIP3   OH227897   1.301   3.682  12.152  0.3924  0.1050  0.3647
 2161TIP3    H127898   1.225   3.624  12.149  0.3791  0.1620 -0.7032
 2161TIP3    H227899   1.286   3.737  12.229  0.3705 -1.2483  1.3594
 2162TIP3   OH227900   0.106   2.764   1.906 -0.5010  0.6743 -0.2392
 2162TIP3    H127901   0.130   2.683   1.862  0.7103  0.5500  0.6140
 2162TIP3    H227902   0.032   2.797   1.855 -0.6711 -0.6746 -0.9231
 2163TIP3   OH227903   4.240   2.931  15.844 -0.6348 -0.2371 -0.1661
 2163TIP3    H127904   4.183   2.922  15.767 -2.7189  2.1044  0.9848
 2163TIP3    H227905   4.199   2.998  15.897  0.1930 -2.3517  3.5150
 2164TIP3   OH227906   5.988   2.259  14.436 -0.0230  0.2433  0.3558
 2164TIP3    H127907   6.016   2.311  14.511 -2.0167  0.3970  1.0474
 2164TIP3    H227908   5.898   2.234  14.456 -0.7178  0.5020 -2.1079
 2165TIP3   OH227909   3.238   3.010  14.749  0.0027  0.4850  0.2827
 2165TIP3    H127910   3.235   3.077  14.680  0.6068  0.9611  0.7152
 2165TIP3    H227911   3.154   3.019  14.794 -0.8943 -0.5863 -1.0774
 2166TIP3   OH227912   1.584   0.363   2.414 -0.1599  0.4082 -0.0300
 2166TIP3    H127913   1.508   0.418   2.396  0.4913  1.2826 -0.1835
 2166TIP3    H227914   1.603   0.320   2.331  0.0600  0.8995 -0.2400
 2167TIP3   OH227915   1.434   1.358   1.784  0.3968 -0.1006 -0.2208
 2167TIP3    H127916   1.521   1.318   1.774  0.2950  0.1427 -2.4915
 2167TIP3    H227917   1.418   1.403   1.701 -1.6745  0.3609  0.3696
 2168TIP3   OH227918   1.598   1.195   0.462  0.5197  0.3502  0.2655
 2168TIP3    H127919   1.518   1.150   0.487  1.0984 -1.6003 -1.0906
 2168TIP3    H227920   1.649   1.200   0.543 -0.4014  0.3852  0.8535
 2169TIP3   OH227921   1.261   3.674   2.731  0.3318  0.4946  0.0234
 2169TIP3    H127922   1.177   3.657   2.775  0.2457  4.3555  1.7775
 2169TIP3    H227923   1.250   3.637   2.643 -2.6374 -0.4268  0.6680
 2170TIP3   OH227924   0.354   5.228  16.315 -0.1606  0.4081  0.1600
 2170TIP3    H127925   0.281   5.289  16.317 -0.1679  0.3985  1.6777
 2170TIP3    H227926   0.314   5.142  16.331  0.2452  0.5307  2.0939
 2171TIP3   OH227927   3.333   6.601   4.486 -0.3431 -0.3231  0.1816
 2171TIP3    H127928   3.268   6.539   4.520  0.4627  0.0755  2.6640
 2171TIP3    H227929   3.410   6.546   4.467 -1.3297 -0.8220 -2.9224
 2172TIP3   OH227930   2.221   0.634   0.213 -0.1585  0.7613 -0.0711
 2172TIP3    H127931   2.308   0.673   0.219 -0.3157  1.5104 -2.0637
 2172TIP3    H227932   2.238   0.543   0.186  0.0000  1.0930 -1.1233
 2173TIP3   OH227933   3.071   4.995  12.582  0.5698  0.4791  0.6394
 2173TIP3    H127934   3.080   5.090  12.590  1.4706  0.4235  0.3453
 2173TIP3    H227935   3.158   4.965  12.556 -0.0858 -0.2651 -0.7762
 2174TIP3   OH227936   2.652   1.040  17.245 -0.0181 -0.3295 -0.0556
 2174TIP3    H127937   2.678   0.969  17.186  0.9603  0.9661 -1.2366
 2174TIP3    H227938   2.710   1.113  17.223 -1.5110  1.1187  0.5481
 2175TIP3   OH227939   5.055   6.426  16.402 -0.0984 -0.0542 -0.2347
 2175TIP3    H127940   4.969   6.456  16.431 -0.1119 -1.1410  0.9512
 2175TIP3    H227941   5.116   6.464  16.466 -0.0546 -1.9067  0.8858
 2176TIP3   OH227942   6.544   6.062   1.860  0.0670  0.1018  0.0086
 2176TIP3    H127943   6.570   5.970   1.856 -1.2857 -0.2861 -3.2995
 2176TIP3    H227944   6.624   6.109   1.881  1.6580 -1.6231 -1.7968
 2177TIP3   OH227945   0.214   3.158   4.141 -0.3940 -0.6863  0.0821
 2177TIP3    H127946   0.155   3.090   4.108 -0.3043 -0.4052 -0.6796
 2177TIP3    H227947   0.181   3.178   4.228 -0.8036 -1.2599  0.0630
 2178TIP3   OH227948   4.512   4.113  12.936  0.0630 -0.7897 -0.2847
 2178TIP3    H127949   4.435   4.081  12.888 -0.4199 -0.9154  0.5581
 2178TIP3    H227950   4.522   4.052  13.009  0.8672 -0.6766 -0.2955
 2179TIP3   OH227951   3.735   3.065  12.308  0.2198  0.2710  0.2860
 2179TIP3    H127952   3.674   3.087  12.379 -1.7585 -1.8168 -0.6357
 2179TIP3    H227953   3.779   2.986  12.338  0.8217  0.4836 -0.0209
 2180TIP3   OH227954   3.580   2.211   3.536 -0.3310 -0.7316 -0.2250
 2180TIP3    H127955   3.558   2.220   3.629  0.0187  0.1057 -0.2134
 2180TIP3    H227956   3.675   2.207   3.534 -0.2946 -0.0230 -0.5886
 2181TIP3   OH227957   0.947   1.995   0.416  0.7526 -0.0572 -0.0280
 2181TIP3    H127958   0.949   1.946   0.334  1.5647  0.9839 -0.6692
 2181TIP3    H227959   1.002   1.945   0.476  0.8380 -0.4048 -0.3926
 2182TIP3   OH227960   4.667   4.346  11.311  0.5278 -0.4310 -0.7780
 2182TIP3    H127961   4.639   4.436  11.327  0.1492 -0.6244 -0.3056
 2182TIP3    H227962   4.649   4.331  11.218  1.6757  0.3488 -1.1402
 2183TIP3   OH227963   2.674   4.888   0.427 -0.1532 -0.2961 -0.0573
 2183TIP3    H127964   2.753   4.834   0.425  0.0152 -0.0574  0.0999
 2183TIP3    H227965   2.623   4.858   0.352  0.1923 -0.2982 -0.2946
 2184TIP3   OH227966   3.974   1.040   2.122 -0.3145  0.2963  0.2568
 2184TIP3    H127967   4.065   1.064   2.106  0.6381 -1.7511  2.1809
 2184TIP3    H227968   3.936   1.031   2.034  1.1198  1.7715 -0.5807
 2185TIP3   OH227969   0.596   4.854   2.480  0.0802  0.4925 -0.2210
 2185TIP3    H127970   0.675   4.828   2.528 -1.0340  0.8788  1.9877
 2185TIP3    H227971   0.528   4.860   2.548 -2.0486 -0.5244 -2.1048
 2186TIP3   OH227972   5.471   5.521  13.047  0.1768  0.7941 -0.0873
 2186TIP3    H127973   5.541   5.585  13.031 -0.5599  1.4184 -0.9042
 2186TIP3    H227974   5.401   5.547  12.987 -1.2540  0.9301  1.5691
 2187TIP3   OH227975   2.487   1.575   1.870  0.8118 -0.3413 -0.6612
 2187TIP3    H127976   2.532   1.509   1.923 -0.5218  0.1412  1.1629
 2187TIP3    H227977   2.396   1.546   1.867  0.5161  0.5881 -1.1631
 2188TIP3   OH227978   1.608   6.390  15.540 -0.3296 -0.2042 -0.1815
 2188TIP3    H127979   1.644   6.470  15.502  1.0061 -0.5476  0.2876
 2188TIP3    H227980   1.659   6.377  15.620  0.3556 -2.1902 -0.8854
 2189TIP3   OH227981   3.266   3.529   4.633 -0.4837 -0.3433  0.5368
 2189TIP3    H127982   3.181   3.497   4.601 -0.9592 -0.3300  1.7182
 2189TIP3    H227983   3.311   3.450   4.662  0.8030 -0.6236 -1.9763
 2190TIP3   OH227984   2.607   6.606  14.243  0.7851  0.6179 -0.0007
 2190TIP3    H127985   2.605   6.647  14.330 -1.1817 -0.8890  0.7409
 2190TIP3    H227986   2.515   6.595  14.220  1.1592 -2.8158 -0.3704
 2191TIP3   OH227987   3.407   4.892  16.166  0.0080 -0.0152  0.0351
 2191TIP3    H127988   3.440   4.955  16.103 -1.0341  1.2730  0.7297
 2191TIP3    H227989   3.485   4.845  16.196  0.7230  0.5026 -0.9565
 2192TIP3   OH227990   4.587   3.152  11.470 -0.1856 -0.4835 -0.3673
 2192TIP3    H127991   4.541   3.233  11.493 -0.3898 -0.9573  0.9181
 2192TIP3    H227992   4.680   3.176  11.471 -0.2398 -0.2997  0.1351
 2193TIP3   OH227993   2.505   3.917   0.026 -0.6888 -0.0188  0.0310
 2193TIP3    H127994   2.417   3.940  -0.003 -0.3113  2.8508  0.8607
 2193TIP3    H227995   2.563   3.951  -0.042 -0.1323 -1.5272 -0.3102
 2194TIP3   OH227996   4.131   0.490  11.798 -0.6979  0.1002  0.0961
 2194TIP3    H127997   4.226   0.498  11.794 -0.8285  1.6360 -0.5038
 2194TIP3    H227998   4.107   0.437  11.722 -0.2185 -1.8270  1.2148
 2195TIP3   OH227999   1.347   4.367   2.011 -0.2636  0.0614  0.0844
 2195TIP3    H128000   1.324   4.289   1.961 -1.1515 -0.0177  0.5867
 2195TIP3    H228001   1.386   4.333   2.092 -1.6532  0.0801  0.7930
 2196TIP3   OH228002   2.761   2.622   0.866 -0.7219 -0.3635 -0.0091
 2196TIP3    H128003   2.826   2.692   0.856 -1.7816  0.5430 -0.6855
 2196TIP3    H228004   2.810   2.551   0.907  0.3759  0.7752  0.7563
 2197TIP3   OH228005   5.415   6.605  13.677  0.8509  0.2268 -0.1928
 2197TIP3    H128006   5.504   6.585  13.704  0.4494 -1.7874 -0.1993
 2197TIP3    H228007   5.380   6.522  13.644 -0.6543  1.2263 -1.2768
 2198TIP3   OH228008   1.591   0.247   6.280 -1.2133 -0.3829  0.1650
 2198TIP3    H128009   1.521   0.186   6.303 -0.8812 -2.5829 -3.8685
 2198TIP3    H228010   1.672   0.197   6.292 -0.8692 -0.4936 -2.1348
 2199TIP3   OH228011   4.100   2.390  16.845 -0.6707 -0.5774  0.2203
 2199TIP3    H128012   4.099   2.484  16.832  1.5958 -0.4538  0.5249
 2199TIP3    H228013   4.062   2.377  16.931 -0.6977  0.1064  0.3139
 2200TIP3   OH228014   3.813   6.393   0.208 -0.3943  0.0993  0.2775
 2200TIP3    H128015   3.717   6.397   0.209 -0.4072  0.3908 -0.8195
 2200TIP3    H228016   3.841   6.452   0.279 -1.0286 -0.8259  1.3289
 2201TIP3   OH228017   3.281   0.821  13.624 -0.2726 -0.3020  0.2278
 2201TIP3    H128018   3.306   0.857  13.709  1.4635 -0.9129  0.0191
 2201TIP3    H228019   3.339   0.747  13.611 -1.1399 -0.7995 -1.0921
 2202TIP3   OH228020   2.557   1.404   3.292 -0.0830 -0.4333  0.4038
 2202TIP3    H128021   2.586   1.483   3.246  1.3591 -0.3021  1.4720
 2202TIP3    H228022   2.467   1.390   3.262 -0.0693  1.1258 -0.4482
 2203TIP3   OH228023   3.967   6.018   4.062  0.2385 -0.0703 -0.3869
 2203TIP3    H128024   3.943   5.928   4.083  2.2726 -0.3819  0.9069
 2203TIP3    H228025   3.990   6.057   4.147 -0.1383  1.5166 -0.9910
 2204TIP3   OH228026   2.745   5.342  13.370 -0.2901 -0.1042 -0.5167
 2204TIP3    H128027   2.818   5.340  13.308 -0.5895 -0.2686 -0.8671
 2204TIP3    H228028   2.677   5.393  13.326 -0.7401 -0.7539 -0.5937
 2205TIP3   OH228029   6.768   3.050   2.604  0.3013  0.3249  0.1277
 2205TIP3    H128030   6.739   3.084   2.689 -0.7073  2.2866 -0.9066
 2205TIP3    H228031   6.725   2.965   2.597 -0.4133  0.5680  1.1728
 2206TIP3   OH228032   4.298   4.677  17.225  0.5896  0.1054 -0.2141
 2206TIP3    H128033   4.228   4.669  17.290  0.3171  0.5864 -0.4479
 2206TIP3    H228034   4.328   4.587  17.211  0.8323  0.0281  0.7741
 2207TIP3   OH228035   6.661   3.031   0.707 -0.0025  1.1247 -0.5968
 2207TIP3    H128036   6.696   3.015   0.794  1.5686  1.5353 -1.1085
 2207TIP3    H228037   6.613   3.113   0.715  1.9595  2.3334 -0.5403
 2208TIP3   OH228038   4.973   6.087   5.914 -0.0626 -0.0798 -0.1498
 2208TIP3    H128039   4.924   6.111   5.835 -0.0035 -0.6374 -0.3645
 2208TIP3    H228040   4.907   6.089   5.984 -0.1928  0.0711 -0.2767
 2209TIP3   OH228041   6.240   3.473  14.189 -0.3958 -0.7176  0.0276
 2209TIP3    H128042   6.147   3.458  14.174 -0.6975  1.4738 -0.6077
 2209TIP3    H228043   6.268   3.526  14.114  0.4955  1.7017  1.9279
 2210TIP3   OH228044   1.895   0.805   2.006 -0.3773  0.3112 -0.1994
 2210TIP3    H128045   1.933   0.764   2.084  0.0167 -0.9568 -1.0342
 2210TIP3    H228046   1.819   0.853   2.039  0.4643  0.7976  1.1366
 2211TIP3   OH228047   4.942   4.690   5.183 -0.2085  0.2609 -1.0514
 2211TIP3    H128048   4.877   4.667   5.250  0.1925  2.4708  0.2096
 2211TIP3    H228049   4.906   4.768   5.141 -0.0006 -0.5543 -2.8241
 2212TIP3   OH228050   4.212   2.677   0.319 -0.5911  0.2176 -0.0393
 2212TIP3    H128051   4.294   2.660   0.365 -0.3538  0.4929 -0.3516
 2212TIP3    H228052   4.148   2.619   0.360 -0.8783  1.8631  2.0195
 2213TIP3   OH228053   2.943   5.970  14.269 -0.5210 -0.4573 -0.5472
 2213TIP3    H128054   2.991   5.963  14.351 -0.7388 -0.5244 -0.4247
 2213TIP3    H228055   3.007   5.946  14.202 -0.1325  0.3327 -0.4666
 2214TIP3   OH228056   1.138   2.225   2.819 -0.3438 -0.4277  0.1528
 2214TIP3    H128057   1.225   2.192   2.796 -0.6331 -1.3046  0.2968
 2214TIP3    H228058   1.094   2.152   2.861 -0.7181  0.3915  1.2482
 2215TIP3   OH228059   3.432   1.760   5.092  0.1813  0.4662  0.1061
 2215TIP3    H128060   3.527   1.774   5.096  0.5792 -1.6411 -0.6393
 2215TIP3    H228061   3.409   1.729   5.180  0.5679 -0.8276 -0.2151
 2216TIP3   OH228062   1.637   4.293  15.203  0.4572  0.6024 -0.0447
 2216TIP3    H128063   1.639   4.355  15.276  0.3703 -0.9207  1.3182
 2216TIP3    H228064   1.621   4.209  15.245 -0.6975 -0.1763 -1.9494
 2217TIP3   OH228065   6.137   1.972   2.367  0.1969  0.3490 -0.2193
 2217TIP3    H128066   6.062   1.922   2.401 -0.8781  0.7566 -1.8534
 2217TIP3    H228067   6.209   1.949   2.425 -0.7754 -1.4360  0.3765
 2218TIP3   OH228068   5.207   1.092  12.570 -0.1329 -0.6361 -0.1341
 2218TIP3    H128069   5.223   1.032  12.643  1.5765  1.2895  1.1817
 2218TIP3    H228070   5.265   1.061  12.500  0.2381 -0.9176  0.2933
 2219TIP3   OH228071   0.168   4.536   4.056  0.9377 -0.4314  0.7043
 2219TIP3    H128072   0.144   4.564   4.145  0.4998 -0.7531  0.6917
 2219TIP3    H228073   0.162   4.616   4.004  0.2185 -0.4385  0.7707
 2220TIP3   OH228074   5.509   2.448  16.912  0.1006  0.3088 -0.2187
 2220TIP3    H128075   5.589   2.497  16.929  1.6601 -1.7070 -1.3493
 2220TIP3    H228076   5.509   2.432  16.818 -1.3577 -0.2094 -0.1644
 2221TIP3   OH228077   6.524   1.545  15.743 -0.2116  0.0797 -0.2521
 2221TIP3    H128078   6.588   1.484  15.706 -0.8717 -0.6151 -0.2675
 2221TIP3    H228079   6.501   1.602  15.669 -2.2999 -1.9495 -1.3158
 2222TIP3   OH228080   5.089   1.206   0.428  0.4748 -1.3349 -0.5071
 2222TIP3    H128081   5.119   1.138   0.488  2.8800  0.1071  0.0762
 2222TIP3    H228082   5.110   1.288   0.472 -0.1615 -0.2078 -2.1875
 2223TIP3   OH228083   4.593   6.422  16.357  0.1756  0.2377  0.2587
 2223TIP3    H128084   4.587   6.404  16.263  1.5703  0.9939  0.0048
 2223TIP3    H228085   4.582   6.336  16.398 -3.0666  0.1863 -0.3895
 2224TIP3   OH228086   0.566   0.212  13.039 -0.6750 -0.6112 -0.4166
 2224TIP3    H128087   0.547   0.140  13.099 -0.9033 -1.0899 -1.0613
 2224TIP3    H228088   0.661   0.214  13.034 -0.6093  0.0011  0.6366
 2225TIP3   OH228089   0.060   0.048  11.595 -0.6517  0.0919 -0.1686
 2225TIP3    H128090   0.105   0.000  11.664  1.3178  1.7970 -0.1888
 2225TIP3    H228091   0.090   0.138  11.604 -1.8256  0.7306 -2.0545
 2226TIP3   OH228092   3.291   6.028  15.193  0.1684  0.4338 -0.2372
 2226TIP3    H128093   3.232   5.975  15.247  3.6512 -1.5769  1.9250
 2226TIP3    H228094   3.286   6.116  15.230  0.5446 -0.3385  1.7363
 2227TIP3   OH228095   3.920   2.562  16.588 -0.4480  0.3758 -0.5440
 2227TIP3    H128096   3.827   2.581  16.576 -0.3419  1.9297  0.6969
 2227TIP3    H228097   3.922   2.470  16.616 -1.2773 -0.7452 -3.7214
 2228TIP3   OH228098   0.690   1.208  12.771 -0.1750  0.0680  0.7310
 2228TIP3    H128099   0.624   1.270  12.740 -0.0234 -0.6255 -1.1500
 2228TIP3    H228100   0.642   1.149  12.829 -1.6015 -1.1451 -1.5127
 2229TIP3   OH228101   5.619   1.349  15.053 -0.3650  0.1476  0.1540
 2229TIP3    H128102   5.547   1.340  14.990  0.3966 -2.8447 -0.4792
 2229TIP3    H228103   5.630   1.443  15.065 -3.0677  0.7240 -1.2362
 2230TIP3   OH228104   3.691   5.874   1.092 -0.4364  0.0507 -0.2334
 2230TIP3    H128105   3.702   5.779   1.093 -0.8407  0.0077  0.1663
 2230TIP3    H228106   3.743   5.905   1.166 -3.8581 -0.2692  2.5528
 2231TIP3   OH228107   3.901   6.292  16.664  0.2667 -0.9337 -0.4007
 2231TIP3    H128108   3.906   6.200  16.638  0.3558 -1.0923  0.1676
 2231TIP3    H228109   3.958   6.298  16.741  0.5398 -0.3271 -0.6440
 2232TIP3   OH228110   3.382   0.115  16.191 -0.0526  0.2578  0.7772
 2232TIP3    H128111   3.364   0.182  16.124  1.2063  0.6781  0.8390
 2232TIP3    H228112   3.322   0.137  16.262 -0.2094  0.8463  0.4800
 2233TIP3   OH228113   3.858   0.883  11.133  0.3468  0.4455  0.1412
 2233TIP3    H128114   3.789   0.938  11.172  0.2274 -0.4932  1.3178
 2233TIP3    H228115   3.818   0.796  11.127  1.1656  0.0655  0.0874
 2234TIP3   OH228116   6.026   2.654  16.696  0.0320  0.0895  0.5348
 2234TIP3    H128117   5.986   2.568  16.713 -0.3658  0.0593 -0.5290
 2234TIP3    H228118   5.954   2.716  16.706 -0.0408  0.1421 -0.2626
 2235TIP3   OH228119   5.633   5.095   0.345 -0.2163  0.0667  0.1862
 2235TIP3    H128120   5.667   5.087   0.256 -0.7869  0.1630 -0.0429
 2235TIP3    H228121   5.542   5.124   0.334 -0.4037 -0.2779  0.7872
 2236TIP3   OH228122   1.972   0.610  16.120 -0.4147  0.2471 -0.0311
 2236TIP3    H128123   1.951   0.524  16.156 -0.4422 -0.2284 -1.1564
 2236TIP3    H228124   1.902   0.627  16.057  0.5467  0.3205 -1.0894
 2237TIP3   OH228125   5.166   4.871  12.742  0.0247  0.5470  0.1518
 2237TIP3    H128126   5.154   4.816  12.820  0.6215  0.8708  0.4774
 2237TIP3    H228127   5.080   4.908  12.725  0.2536  1.9450  1.7784
 2238TIP3   OH228128   1.817   2.655  11.423  0.3078 -0.4168  0.4933
 2238TIP3    H128129   1.807   2.597  11.348 -0.2001  2.1776 -1.6094
 2238TIP3    H228130   1.903   2.695  11.412 -0.4528  1.2502  0.2549
 2239TIP3   OH228131   5.652   0.465  16.990 -0.1141 -0.7963  0.2260
 2239TIP3    H128132   5.678   0.375  16.969  0.9254 -0.3288 -0.6091
 2239TIP3    H228133   5.732   0.516  16.979 -0.3634  0.0521  1.9798
 2240TIP3   OH228134   5.997   5.052  15.452  0.2869  0.3536  0.0843
 2240TIP3    H128135   6.083   5.093  15.459  0.9075 -0.9040  0.1363
 2240TIP3    H228136   5.958   5.062  15.539  0.4733  0.7225  0.1253
 2241TIP3   OH228137   4.751   1.544   0.762 -0.3593  0.0536 -0.4013
 2241TIP3    H128138   4.776   1.464   0.810  1.4229  0.8840  0.1570
 2241TIP3    H228139   4.682   1.515   0.703 -2.2801 -1.1596  2.2121
 2242TIP3   OH228140   4.895   3.855   5.289 -0.1153 -0.2935 -0.5941
 2242TIP3    H128141   4.847   3.792   5.343  0.5860 -0.5405 -0.2524
 2242TIP3    H228142   4.827   3.899   5.238 -0.6990 -0.6943 -0.1756
 2243TIP3   OH228143   0.922   2.712  12.284  0.1762 -0.4501  0.3427
 2243TIP3    H128144   0.919   2.799  12.325  1.6046  0.4292 -1.2996
 2243TIP3    H228145   0.963   2.656  12.349  0.1862  0.3393  1.0351
 2244TIP3   OH228146   4.214   4.319   0.460 -0.0550 -0.7149  0.1502
 2244TIP3    H128147   4.210   4.321   0.364  0.9324  1.9634  0.0784
 2244TIP3    H228148   4.305   4.298   0.480  0.2359  0.7137  0.4239
 2245TIP3   OH228149   1.804   1.943  13.181  0.4344  0.4116 -0.2418
 2245TIP3    H128150   1.787   2.007  13.112 -1.1799 -0.5601 -0.8079
 2245TIP3    H228151   1.893   1.913  13.165  0.0524  0.1220 -1.9977
 2246TIP3   OH228152   1.758   0.610  15.973 -0.4011  1.0990 -0.2830
 2246TIP3    H128153   1.747   0.525  15.930  2.0870  1.3442 -1.6107
 2246TIP3    H228154   1.731   0.673  15.906  0.5566  1.4041 -0.3943
 2247TIP3   OH228155   1.979   5.186   5.842 -0.4496 -0.4229  0.2196
 2247TIP3    H128156   2.013   5.266   5.883 -0.5173  0.1683 -0.8457
 2247TIP3    H228157   1.982   5.120   5.912  1.2520  0.0509  0.6320
 2248TIP3   OH228158   3.105   2.209   5.427 -0.1193  0.3437 -0.2500
 2248TIP3    H128159   3.035   2.192   5.490 -0.8365  2.1746 -0.4984
 2248TIP3    H228160   3.169   2.262   5.475  0.4842 -0.2380 -0.3961
 2249TIP3   OH228161   5.065   5.323  17.203 -0.3074  0.7711 -0.0836
 2249TIP3    H128162   5.148   5.327  17.155  1.9735 -1.9657  3.2138
 2249TIP3    H228163   5.011   5.261  17.154  1.8970 -1.8687  0.6424
 2250TIP3   OH228164   0.447   0.038  14.202 -0.0337 -0.3940 -0.3091
 2250TIP3    H128165   0.361   0.080  14.206  1.0086  2.1331 -2.3718
 2250TIP3    H228166   0.496   0.077  14.275  0.2600  0.3737 -0.9114
 2251TIP3   OH228167   1.535   3.565   1.754  0.5994 -0.3658  0.3843
 2251TIP3    H128168   1.566   3.546   1.842  1.7787 -1.4978 -0.2450
 2251TIP3    H228169   1.468   3.632   1.766 -1.0381 -2.2184  2.3696
 2252TIP3   OH228170   3.589   2.211  12.775 -0.1361  0.1088  0.0731
 2252TIP3    H128171   3.502   2.170  12.781  0.3808 -0.7269  3.4677
 2252TIP3    H228172   3.636   2.157  12.711 -0.8411 -2.0231  1.2616
 2253TIP3   OH228173   1.548   4.482   2.771 -0.2503 -0.4491  0.4690
 2253TIP3    H128174   1.631   4.436   2.758  0.3377  0.2631  1.5811
 2253TIP3    H228175   1.571   4.575   2.767 -1.4440 -0.1610 -1.9208
 2254TIP3   OH228176   5.294   1.531   5.454  0.2287  0.1367  0.2863
 2254TIP3    H128177   5.327   1.619   5.473 -3.0204  1.7874 -1.0668
 2254TIP3    H228178   5.332   1.509   5.369  0.5747  0.4680  0.3521
 2255TIP3   OH228179   2.866   4.932  12.938  0.0474  0.3574  0.0921
 2255TIP3    H128180   2.773   4.947  12.954  0.3923  1.0642  1.5232
 2255TIP3    H228181   2.903   5.019  12.926  0.5342  0.0767 -0.5222
 2256TIP3   OH228182   0.054   0.667  13.536  0.2460 -0.4187 -0.0619
 2256TIP3    H128183   0.148   0.660  13.556  0.5813  0.1788 -1.3049
 2256TIP3    H228184   0.035   0.588  13.485  0.6117  0.4837 -1.6643
 2257TIP3   OH228185   6.114   4.419  13.923  0.5883  0.0001 -0.7126
 2257TIP3    H128186   6.192   4.422  13.868 -0.7999  0.3837 -2.7914
 2257TIP3    H228187   6.049   4.374  13.870 -0.0251 -2.3663  1.8486
 2258TIP3   OH228188   2.374   2.557  11.331 -0.1422 -0.1054  0.7436
 2258TIP3    H128189   2.312   2.606  11.277 -0.4553 -1.3629 -0.1039
 2258TIP3    H228190   2.345   2.466  11.323  0.6997 -0.4919  1.8706
 2259TIP3   OH228191   2.371   5.519  11.922  1.0081 -0.1904 -0.5734
 2259TIP3    H128192   2.442   5.577  11.895  0.1330 -0.1295 -3.0922
 2259TIP3    H228193   2.291   5.567  11.898  0.2009 -1.3456 -0.2724
 2260TIP3   OH228194   0.679   1.120  14.826 -0.3062 -0.4738 -0.7420
 2260TIP3    H128195   0.707   1.175  14.900 -0.0517 -0.3080 -0.9590
 2260TIP3    H228196   0.631   1.048  14.867  0.0278 -0.5062 -0.3916
 2261TIP3   OH228197   0.473   1.635  11.553 -0.4811  0.2761 -0.1152
 2261TIP3    H128198   0.461   1.558  11.608  1.5576 -0.6838 -0.9192
 2261TIP3    H228199   0.458   1.709  11.612  2.8250 -0.6509  2.1795
 2262TIP3   OH228200   2.298   6.579  15.687 -0.0110 -0.1230 -0.4128
 2262TIP3    H128201   2.304   6.508  15.623  0.0308  0.4982 -1.1128
 2262TIP3    H228202   2.323   6.658  15.638 -0.3477  0.4209  0.2684
 2263TIP3   OH228203   1.665   4.192   0.903 -0.4229 -0.1423 -0.0140
 2263TIP3    H128204   1.758   4.184   0.882 -0.6615 -0.2187 -1.0852
 2263TIP3    H228205   1.640   4.105   0.933 -0.3107 -0.3102 -0.4057
 2264TIP3   OH228206   0.204   4.506   0.677  0.4246 -0.5336 -0.2379
 2264TIP3    H128207   0.245   4.440   0.621  0.1027 -2.2532  1.4171
 2264TIP3    H228208   0.214   4.471   0.766 -0.1571  1.4750  0.6740
 2265TIP3   OH228209   6.249   1.131   5.605  0.3123 -0.6274 -0.7795
 2265TIP3    H128210   6.313   1.090   5.548  2.8909  0.8021  0.8993
 2265TIP3    H228211   6.249   1.223   5.580  0.7145 -0.1733  0.7591
 2266TIP3   OH228212   4.802   1.882   1.136  0.0335 -0.4033 -0.2217
 2266TIP3    H128213   4.780   1.794   1.104  0.1077  0.5161 -3.0648
 2266TIP3    H228214   4.744   1.940   1.088  1.7275  1.2953 -0.3439
 2267TIP3   OH228215   6.593   0.265  17.259 -0.4815  0.2180  0.0790
 2267TIP3    H128216   6.510   0.228  17.228 -1.1922  1.5247  0.3565
 2267TIP3    H228217   6.583   0.268  17.355 -0.0376  0.2054  0.1256
 2268TIP3   OH228218   4.777   6.611  11.912 -0.8074 -0.0396  0.2810
 2268TIP3    H128219   4.781   6.573  12.000 -0.0972 -1.3309 -0.2870
 2268TIP3    H228220   4.710   6.560  11.867 -1.9779  1.3557  0.3871
 2269TIP3   OH228221   6.214   3.662   3.338  0.0031  0.2003  0.2866
 2269TIP3    H128222   6.252   3.655   3.250  1.3625 -1.3162  0.9322
 2269TIP3    H228223   6.253   3.589   3.387 -0.7741  0.9501  2.1351
 2270TIP3   OH228224   6.463   1.705   5.279  0.7008 -0.5449  1.0499
 2270TIP3    H128225   6.518   1.696   5.357 -0.3710 -2.8966  1.6289
 2270TIP3    H228226   6.456   1.799   5.265  0.0220  0.0283  4.4865
 2271TIP3   OH228227   5.361   4.790  16.544 -0.2660 -0.7410 -0.2672
 2271TIP3    H128228   5.449   4.826  16.556 -0.0939 -1.6172  1.4338
 2271TIP3    H228229   5.360   4.759  16.453  0.7683  0.3385 -0.6650
 2272TIP3   OH228230   3.309   0.625   5.977 -0.3795 -0.3529 -0.0513
 2272TIP3    H128231   3.327   0.642   6.070  0.4171 -0.2476 -0.2274
 2272TIP3    H228232   3.379   0.669   5.930 -1.0239 -0.0443 -0.7335
 2273TIP3   OH228233   1.320   2.932  16.677  0.0940 -0.1618  0.0181
 2273TIP3    H128234   1.243   2.979  16.643 -0.1437  0.0607  0.8501
 2273TIP3    H228235   1.290   2.841  16.685 -0.4081  0.0922  1.2585
 2274TIP3   OH228236   6.100   3.380   0.689  0.2052 -0.1725  0.2743
 2274TIP3    H128237   6.047   3.418   0.619  0.9609 -1.3772 -1.0055
 2274TIP3    H228238   6.175   3.440   0.697 -0.0877  0.1875  0.3293
 2275TIP3   OH228239   4.992   2.850   0.910 -0.7113 -0.0071  0.0584
 2275TIP3    H128240   5.004   2.768   0.862 -0.2279 -1.1380  1.9818
 2275TIP3    H228241   4.991   2.917   0.843  0.8260 -1.3932 -1.4575
 2276TIP3   OH228242   4.164   4.975  11.251 -0.1862  0.0127 -0.0100
 2276TIP3    H128243   4.181   4.966  11.157 -0.1308  2.5683 -0.3274
 2276TIP3    H228244   4.235   5.031  11.282 -1.7894  1.6363  0.9111
 2277TIP3   OH228245   1.753   2.617   4.269  0.3317 -0.3284 -0.6008
 2277TIP3    H128246   1.706   2.534   4.267  0.1146 -0.2355  0.2703
 2277TIP3    H228247   1.696   2.678   4.222  0.3296 -0.5851 -0.9352
 2278TIP3   OH228248   3.507   1.356  13.305  0.3491 -0.0034 -0.0169
 2278TIP3    H128249   3.565   1.281  13.321 -1.9488 -1.5375  1.6145
 2278TIP3    H228250   3.452   1.328  13.232  0.9563  1.0678 -0.9222
 2279TIP3   OH228251   2.308   0.456   1.665  0.5491 -0.2485  0.0595
 2279TIP3    H128252   2.324   0.463   1.759  1.0499 -0.9532  0.0344
 2279TIP3    H228253   2.395   0.439   1.627  0.3961  0.3211 -0.5597
 2280TIP3   OH228254   5.121   6.291   0.781 -0.7108  0.6381 -0.0562
 2280TIP3    H128255   5.176   6.353   0.828 -2.4925  0.9499  1.7708
 2280TIP3    H228256   5.141   6.206   0.821 -2.4371  0.9450  1.5904
 2281TIP3   OH228257   2.470   0.382  14.027  0.1287 -0.2729 -0.5830
 2281TIP3    H128258   2.504   0.433  13.954 -2.3223 -0.1889 -1.7742
 2281TIP3    H228259   2.520   0.411  14.103  0.1936  2.4355 -1.5705
 2282TIP3   OH228260   6.244   0.877  13.723  0.0997 -0.0530 -0.1824
 2282TIP3    H128261   6.181   0.908  13.788 -0.6183 -0.0317 -0.8710
 2282TIP3    H228262   6.313   0.943  13.723  0.1759 -0.1257  0.6481
 2283TIP3   OH228263   6.066   1.549  11.326  0.2262  0.0807 -0.4888
 2283TIP3    H128264   5.978   1.511  11.316  0.2002  0.1885 -0.6723
 2283TIP3    H228265   6.108   1.536  11.241 -0.0858  1.2234 -0.8497
 2284TIP3   OH228266   2.648   4.122   3.568  0.0743 -0.1984  0.1351
 2284TIP3    H128267   2.553   4.110   3.558  0.0578  0.4045 -0.4758
 2284TIP3    H228268   2.685   4.037   3.544 -0.3522 -0.7030  1.2052
 2285TIP3   OH228269   6.381   1.025   3.065 -0.5027 -0.5832 -0.4240
 2285TIP3    H128270   6.427   1.021   2.981  0.1466 -2.0916 -0.0420
 2285TIP3    H228271   6.360   0.933   3.084  1.7006 -0.6475  2.3092
 2286TIP3   OH228272   1.289   0.474   1.128 -0.0542 -0.4499  0.3237
 2286TIP3    H128273   1.234   0.486   1.206 -0.1511  0.3481  0.1462
 2286TIP3    H228274   1.332   0.390   1.141 -0.9460 -0.8558  0.6962
 2287TIP3   OH228275   4.563   3.619   3.821  0.0600 -0.4913 -0.5450
 2287TIP3    H128276   4.656   3.598   3.811 -0.2345 -2.3185  0.2510
 2287TIP3    H228277   4.528   3.550   3.876 -1.1517  1.8693  1.8703
 2288TIP3   OH228278   4.107   4.746  14.507 -0.1644 -0.0743  0.9586
 2288TIP3    H128279   4.189   4.738  14.555  1.0125 -0.4818 -1.0425
 2288TIP3    H228280   4.098   4.664  14.458 -0.0015  1.2574 -1.4495
 2289TIP3   OH228281   4.625   0.045   0.098 -0.0233 -0.8241  0.2210
 2289TIP3    H128282   4.685   0.062   0.170  0.2837 -1.7858  0.2089
 2289TIP3    H228283   4.565  -0.022   0.132 -0.6011 -0.4396 -0.0306
 2290TIP3   OH228284   3.207   5.128  11.865 -0.6260  0.3527  0.4629
 2290TIP3    H128285   3.231   5.197  11.803 -0.1304  0.5324  0.8497
 2290TIP3    H228286   3.169   5.176  11.939 -2.0933  0.0877 -0.0751
 2291TIP3   OH228287   5.937   4.296  14.600  0.2167  0.7598  0.5668
 2291TIP3    H128288   5.925   4.317  14.693  0.8612 -0.0927  0.8476
 2291TIP3    H228289   5.992   4.219  14.599  2.3327  2.1924 -0.5891
 2292TIP3   OH228290   2.948   1.183   4.226  0.1359  0.1160 -0.0703
 2292TIP3    H128291   2.990   1.220   4.303 -0.9223  1.7213 -0.2163
 2292TIP3    H228292   2.907   1.258   4.182  1.6066 -0.5390 -2.8063
 2293TIP3   OH228293   1.574   2.842   5.396 -0.2039 -0.3004  0.7806
 2293TIP3    H128294   1.587   2.872   5.486  2.0540  2.6806 -0.4011
 2293TIP3    H228295   1.615   2.755   5.394 -0.1854 -0.3740  2.5798
 2294TIP3   OH228296   4.209   4.300  12.356  0.3843 -0.8003 -0.2209
 2294TIP3    H128297   4.117   4.275  12.361 -0.0597  0.6365 -0.5562
 2294TIP3    H228298   4.218   4.340  12.269  1.3218 -0.8845 -0.1746
 2295TIP3   OH228299   5.634   3.407   2.634 -0.5891  0.0975  0.6074
 2295TIP3    H128300   5.691   3.448   2.569 -0.4088 -1.3694 -0.2123
 2295TIP3    H228301   5.547   3.441   2.615 -0.3230  0.7385  0.5066
 2296TIP3   OH228302   3.620   2.702   4.275 -0.5835 -0.1888 -0.6274
 2296TIP3    H128303   3.540   2.736   4.234 -1.7544  0.6732  2.1305
 2296TIP3    H228304   3.683   2.774   4.269 -1.2608  0.5165  0.3894
 2297TIP3   OH228305   0.339   5.493  16.577 -0.3696  0.0159  0.1639
 2297TIP3    H128306   0.401   5.485  16.504 -1.0824  0.4377 -0.5122
 2297TIP3    H228307   0.357   5.418  16.633  0.2015 -0.3104 -0.4489
 2298TIP3   OH228308   1.808   2.628  17.296  0.0516 -0.2714 -0.1893
 2298TIP3    H128309   1.880   2.690  17.310  2.2573 -2.8861  1.0940
 2298TIP3    H228310   1.820   2.597  17.207  0.7320 -0.8909  0.1055
 2299TIP3   OH228311   5.444   4.656   1.833 -0.0552  0.4036 -0.0123
 2299TIP3    H128312   5.513   4.646   1.898  1.0044  1.1735 -0.9865
 2299TIP3    H228313   5.401   4.738   1.856 -0.7476 -0.1372  0.6677
 2300TIP3   OH228314   2.998   5.743   4.702  0.4253 -0.0482 -0.0937
 2300TIP3    H128315   2.987   5.697   4.785 -1.1699  0.1301 -0.1881
 2300TIP3    H228316   3.062   5.689   4.654  0.1304 -1.0486  0.5905
 2301TIP3   OH228317   4.752   5.404  16.447 -0.5066  0.2069  0.2334
 2301TIP3    H128318   4.818   5.351  16.491 -0.2860 -0.4956 -0.9035
 2301TIP3    H228319   4.734   5.476  16.508  0.1531 -0.4488  1.2259
 2302TIP3   OH228320   0.054   2.341   1.546 -0.2013 -0.2824  0.1743
 2302TIP3    H128321   0.106   2.422   1.544 -0.0469 -0.3454  1.1675
 2302TIP3    H228322  -0.027   2.363   1.500 -0.2181  0.4838  0.5534
 2303TIP3   OH228323   3.363   0.671  13.344  0.0278 -0.4567 -0.3845
 2303TIP3    H128324   3.402   0.757  13.330  0.0245 -0.4186 -0.1545
 2303TIP3    H228325   3.297   0.663  13.275 -1.5373  0.6441  0.9197
 2304TIP3   OH228326   1.554   1.842   1.351 -0.5966  0.0947 -0.0731
 2304TIP3    H128327   1.632   1.807   1.394 -0.6368 -0.4333 -0.4170
 2304TIP3    H228328   1.550   1.933   1.379  0.3566  0.2370 -0.3522
 2305TIP3   OH228329   0.413   5.213   2.848 -0.2697  0.1694  0.5356
 2305TIP3    H128330   0.427   5.285   2.787 -1.5605 -1.3074 -1.6393
 2305TIP3    H228331   0.349   5.247   2.911 -2.6945  0.2975 -1.8273
 2306TIP3   OH228332   2.493   1.729   1.022  0.3683 -0.1458  0.1832
 2306TIP3    H128333   2.491   1.808   1.076 -0.0013  1.4227 -1.9827
 2306TIP3    H228334   2.540   1.756   0.943  0.2476 -2.1198 -0.6030
 2307TIP3   OH228335   1.572   0.715   1.697 -0.4125 -0.3076 -0.2285
 2307TIP3    H128336   1.651   0.708   1.644 -0.5918 -0.1730 -0.5117
 2307TIP3    H228337   1.601   0.690   1.785  0.1525  0.6151 -0.1371
 2308TIP3   OH228338   3.439   6.694   5.586  0.1486 -0.2843  0.5789
 2308TIP3    H128339   3.500   6.734   5.649 -0.2848 -0.3856  1.0752
 2308TIP3    H228340   3.353   6.727   5.612 -0.0296 -0.2774 -0.0108
 2309TIP3   OH228341   6.707   1.108  16.341  0.1496 -0.2313 -0.3179
 2309TIP3    H128342   6.701   1.024  16.386  0.0261 -0.3020 -0.4643
 2309TIP3    H228343   6.783   1.099  16.284  0.0203 -0.3147 -0.4793
 2310TIP3   OH228344   0.852   6.397   2.824 -0.2019  0.3629 -0.0966
 2310TIP3    H128345   0.945   6.398   2.844 -0.0004 -0.5714 -0.8952
 2310TIP3    H228346   0.808   6.418   2.907  0.6352 -1.4451  0.8505
 2311TIP3   OH228347   6.529   2.923   5.694  0.0473  0.1609  0.1858
 2311TIP3    H128348   6.440   2.897   5.720 -0.6629  1.8244 -0.4142
 2311TIP3    H228349   6.567   2.843   5.657 -0.8570 -0.8258  1.2693
 2312TIP3   OH228350   2.750   4.346   4.898 -0.0637 -0.3239 -0.4595
 2312TIP3    H128351   2.679   4.304   4.947 -0.0810  0.4321  0.1766
 2312TIP3    H228352   2.828   4.295   4.921 -0.1825 -0.3649 -0.1419
 2313TIP3   OH228353   1.483   5.277  14.155  0.2713 -0.2564 -0.3444
 2313TIP3    H128354   1.484   5.278  14.250  2.9167  2.0817 -0.2721
 2313TIP3    H228355   1.454   5.364  14.129  2.6437  0.2972 -1.5112
 2314TIP3   OH228356   1.926   6.071   6.431 -0.2220 -0.1295  0.0628
 2314TIP3    H128357   1.906   6.067   6.525  0.6645  1.0014  0.3142
 2314TIP3    H228358   2.016   6.102   6.427 -0.1362 -0.4864 -1.1695
 2315TIP3   OH228359   1.164   2.425  11.343  0.2551 -0.6949  0.6074
 2315TIP3    H128360   1.173   2.409  11.249 -0.8859 -1.5038  0.6210
 2315TIP3    H228361   1.114   2.506  11.349  0.6353 -0.4512  0.5253
 2316TIP3   OH228362   4.699   0.860   6.546  0.1317 -0.3540  0.2471
 2316TIP3    H128363   4.741   0.794   6.491 -0.5533 -0.6003  0.0230
 2316TIP3    H228364   4.732   0.943   6.512 -1.0670 -0.4414 -1.2280
 2317TIP3   OH228365   5.492   0.963   4.828 -0.2334 -0.2815 -0.2426
 2317TIP3    H128366   5.468   0.922   4.911 -0.5430 -0.9158 -0.6408
 2317TIP3    H228367   5.418   0.946   4.770 -0.2406  0.5909 -0.5096
 2318TIP3   OH228368   6.006   0.313  10.931  0.8851 -0.7398 -0.3798
 2318TIP3    H128369   5.959   0.230  10.922  1.9647 -1.3413 -0.7329
 2318TIP3    H228370   5.972   0.368  10.861 -0.3028 -0.6497  0.2569
 2319TIP3   OH228371   2.231   1.722  13.277 -0.0381 -0.5742  1.1048
 2319TIP3    H128372   2.274   1.783  13.336  0.2665 -0.7932  1.1086
 2319TIP3    H228373   2.241   1.761  13.190  0.4363 -0.7770  1.0683
 2320TIP3   OH228374   4.745   0.522   5.172  0.8342  0.0083  0.4109
 2320TIP3    H128375   4.757   0.521   5.077 -1.7572 -1.6437  0.0063
 2320TIP3    H228376   4.673   0.461   5.188  2.1011 -0.8797  3.6007
 2321TIP3   OH228377   4.866   4.196   0.449 -0.0431  0.4365 -0.8480
 2321TIP3    H128378   4.947   4.239   0.421  0.9495  0.2933  1.5483
 2321TIP3    H228379   4.894   4.108   0.475 -0.5042  1.0158  1.9182
 2322TIP3   OH228380   4.655   2.458   1.063 -0.2022  0.2205  0.7216
 2322TIP3    H128381   4.720   2.392   1.040  2.3175  3.0618 -1.1506
 2322TIP3    H228382   4.684   2.492   1.147  0.1760  0.8012  0.3629
 2323TIP3   OH228383   2.083   2.069   0.123 -0.2253 -0.2816 -0.0384
 2323TIP3    H128384   2.054   2.154   0.157  1.4411  0.3735 -0.1718
 2323TIP3    H228385   2.178   2.077   0.115 -0.3456 -0.7095 -3.9584
 2324TIP3   OH228386   2.380   4.519   4.109  0.6126 -0.2945 -0.0597
 2324TIP3    H128387   2.393   4.602   4.156  1.2057  1.0240 -2.4013
 2324TIP3    H228388   2.288   4.498   4.124  0.2743  1.1371  0.0915
 2325TIP3   OH228389   6.365   5.591  11.256  0.6151  0.0457 -0.0680
 2325TIP3    H128390   6.278   5.553  11.244 -0.0452  1.4625 -0.0317
 2325TIP3    H228391   6.380   5.642  11.176  0.4682  1.5111  0.7931
 2326TIP3   OH228392   3.849   0.807  15.372  0.8129  0.3246 -0.4233
 2326TIP3    H128393   3.813   0.884  15.415 -2.1962 -0.2633 -1.5917
 2326TIP3    H228394   3.816   0.813  15.282 -0.4582 -2.7662 -0.2928
 2327TIP3   OH228395   2.278   5.386  12.725 -0.5480  0.3561  0.8124
 2327TIP3    H128396   2.301   5.417  12.638  0.9433 -1.3006  0.5698
 2327TIP3    H228397   2.190   5.421  12.740 -0.4090  1.5686 -0.8836
 2328TIP3   OH228398   5.510   4.266   2.190 -0.3994  0.3426 -0.2503
 2328TIP3    H128399   5.527   4.266   2.096 -0.5713 -3.1294 -0.3969
 2328TIP3    H228400   5.596   4.258   2.230 -0.4442  0.3723 -0.1474
 2329TIP3   OH228401   1.870   4.475   5.072 -0.5188 -0.3039  0.0339
 2329TIP3    H128402   1.800   4.485   5.136 -0.0004 -0.8432  0.6985
 2329TIP3    H228403   1.828   4.492   4.988 -0.9316  1.6394  0.5940
 2330TIP3   OH228404   0.319   0.430   2.909 -0.1452 -0.0856 -0.1257
 2330TIP3    H128405   0.280   0.469   2.831  3.2351  2.4772 -0.7653
 2330TIP3    H228406   0.359   0.504   2.955  0.0568 -1.8660  2.7674
 2331TIP3   OH228407   6.112   2.400  12.824  0.6456  0.2937 -0.4743
 2331TIP3    H128408   6.111   2.364  12.736 -0.5605 -2.8118  0.6517
 2331TIP3    H228409   6.031   2.450  12.831  0.0081 -0.6696 -0.7272
 2332TIP3   OH228410   0.336   5.044   4.383 -0.4251  0.4830 -0.0655
 2332TIP3    H128411   0.321   5.028   4.290  1.3520 -1.4484 -0.0913
 2332TIP3    H228412   0.376   5.130   4.387  1.0012 -0.0741 -1.3033
 2333TIP3   OH228413   1.486   6.288  13.960 -0.7049 -0.0512  0.0221
 2333TIP3    H128414   1.549   6.256  14.025 -0.6601 -0.8022 -0.3692
 2333TIP3    H228415   1.497   6.383  13.960  0.4437 -0.1628 -0.0321
 2334TIP3   OH228416   6.017   4.059   1.426 -0.1391 -0.3079 -0.3161
 2334TIP3    H128417   6.112   4.048   1.418  0.1536  1.2173  0.7433
 2334TIP3    H228418   5.991   4.102   1.344  0.4623  1.3036  0.3009
 2335TIP3   OH228419   5.306   1.604  11.420 -0.1805 -0.0886  0.2842
 2335TIP3    H128420   5.219   1.573  11.448  1.1587 -3.2447  1.3708
 2335TIP3    H228421   5.327   1.552  11.343  0.9831  0.2415  0.3594
 2336TIP3   OH228422   6.284   0.021   5.829  0.6107 -0.0425 -0.6294
 2336TIP3    H128423   6.318   0.021   5.739  1.3302 -0.0113 -0.3646
 2336TIP3    H228424   6.359   0.045   5.883 -0.3098  1.9698 -0.1811
 2337TIP3   OH228425   2.138   6.014   1.767 -0.6525 -0.1755 -0.3533
 2337TIP3    H128426   2.199   6.005   1.840 -0.9993 -0.5795 -0.1077
 2337TIP3    H228427   2.066   5.955   1.788 -2.3262  2.0506  0.5743
 2338TIP3   OH228428   0.388   5.220  14.851  0.4472  0.6817 -0.3003
 2338TIP3    H128429   0.475   5.196  14.880 -0.2539 -0.4702  0.9780
 2338TIP3    H228430   0.382   5.186  14.761  0.3053 -2.0056  0.6510
 2339TIP3   OH228431   4.033   3.557  14.702 -0.3565  0.0721 -0.3371
 2339TIP3    H128432   4.078   3.518  14.777  0.2213  0.0084 -0.7040
 2339TIP3    H228433   3.947   3.582  14.735  0.3872  1.3344  0.7287
 2340TIP3   OH228434   1.333   5.659   1.988  0.3635  0.0958 -0.1220
 2340TIP3    H128435   1.334   5.689   2.079 -0.7725 -1.4782  0.4436
 2340TIP3    H228436   1.368   5.733   1.938 -2.4902  2.4828  1.1452
 2341TIP3   OH228437   3.500   0.985  16.303 -0.0990  0.1283  0.2793
 2341TIP3    H128438   3.437   1.010  16.235  0.6684  0.8661 -0.1827
 2341TIP3    H228439   3.460   1.014  16.384 -1.4302 -1.5361  0.2815
 2342TIP3   OH228440   5.565   4.003   5.850  0.4806  0.3933  0.3800
 2342TIP3    H128441   5.536   3.914   5.870 -0.0670  0.2688 -0.8283
 2342TIP3    H228442   5.484   4.053   5.839  0.7197  0.4973 -1.1398
 2343TIP3   OH228443   3.485   3.420  11.575 -0.2536  0.3177 -0.1799
 2343TIP3    H128444   3.490   3.331  11.540  0.3317  0.2406  0.0972
 2343TIP3    H228445   3.546   3.421  11.649  0.3820  1.1748 -0.6930
 2344TIP3   OH228446   0.475   6.450  12.446  0.5014 -0.8961  0.0510
 2344TIP3    H128447   0.398   6.429  12.500  0.2273  0.0602  0.0484
 2344TIP3    H228448   0.477   6.380  12.381  1.7739 -3.0210  2.1869
 2345TIP3   OH228449   6.371   3.430   6.203 -0.3948  1.1971 -0.5659
 2345TIP3    H128450   6.332   3.433   6.116 -2.2063 -0.4726  0.1125
 2345TIP3    H228451   6.462   3.455   6.189 -0.4843  0.4177 -3.0346
 2346TIP3   OH228452   5.523   4.138  12.012 -0.4621 -0.3618  0.3267
 2346TIP3    H128453   5.449   4.192  12.040 -0.9255 -0.5044 -0.5810
 2346TIP3    H228454   5.600   4.191  12.030 -0.8808  0.4295 -0.1412
 2347TIP3   OH228455   1.314   4.219  11.771 -0.1337 -0.1807  0.4171
 2347TIP3    H128456   1.222   4.206  11.750 -0.2748 -0.1241  0.9863
 2347TIP3    H228457   1.337   4.145  11.827  0.1185 -0.0994  0.4230
 2348TIP3   OH228458   5.703   2.762   4.812 -0.5165  0.3629  0.1271
 2348TIP3    H128459   5.664   2.843   4.843  0.5609  0.7929  0.4142
 2348TIP3    H228460   5.651   2.693   4.853 -0.5531  0.9202  1.0537
 2349TIP3   OH228461   6.602   5.605   6.156  0.0651 -0.7613 -0.1380
 2349TIP3    H128462   6.509   5.624   6.167  0.5381  0.9725  1.4829
 2349TIP3    H228463   6.606   5.542   6.084 -2.4409 -1.9640  0.6751
 2350TIP3   OH228464   5.583   4.626  11.931 -0.2592  0.5194 -0.0756
 2350TIP3    H128465   5.596   4.702  11.875  0.5056  0.0172 -0.5903
 2350TIP3    H228466   5.506   4.583  11.896 -0.6645  1.0159  0.1858
 2351TIP3   OH228467   4.243   3.664   5.138  0.1485  0.2099 -0.1864
 2351TIP3    H128468   4.325   3.686   5.181  0.7863  1.5649 -1.9374
 2351TIP3    H228469   4.180   3.726   5.175  0.3884  0.5087 -0.2723
 2352TIP3   OH228470   6.414   0.347  16.296  0.1826 -0.1547  0.3581
 2352TIP3    H128471   6.345   0.414  16.288 -0.4332 -0.7615  0.5008
 2352TIP3    H228472   6.493   0.391  16.265 -0.1478  0.7406  0.7408
 2353TIP3   OH228473   5.554   1.714  16.365 -0.0323  0.5287 -0.0342
 2353TIP3    H128474   5.483   1.733  16.304 -1.3497  0.1191  1.3115
 2353TIP3    H228475   5.592   1.799  16.386 -0.4519  0.8063 -0.3872
 2354TIP3   OH228476   4.040   1.168  17.184  0.5750  0.6025 -0.6641
 2354TIP3    H128477   4.104   1.106  17.151  1.0433  0.2884  0.7793
 2354TIP3    H228478   4.087   1.221  17.248 -1.0637 -1.2068  2.2717
 2355TIP3   OH228479   2.446   1.212   1.268  0.1866  0.6419 -0.0132
 2355TIP3    H128480   2.450   1.246   1.179  0.7855 -0.0085 -0.2433
 2355TIP3    H228481   2.376   1.147   1.267  0.3597  0.4555 -0.0746
 2356TIP3   OH228482   4.224   6.143   3.488  0.0803  0.6210 -0.3528
 2356TIP3    H128483   4.255   6.193   3.563  2.2207  0.0068 -0.7510
 2356TIP3    H228484   4.191   6.061   3.524  1.6544  0.0789 -0.0951
 2357TIP3   OH228485   5.109   0.798  14.270  0.2028 -0.0670 -0.0720
 2357TIP3    H128486   5.119   0.703  14.276 -1.7264 -0.2468  1.6228
 2357TIP3    H228487   5.187   0.834  14.311  0.6700 -0.9245 -0.1957
 2358TIP3   OH228488   3.288   3.230  13.249 -0.6521  0.3884 -0.0305
 2358TIP3    H128489   3.257   3.139  13.242 -1.0342  0.5298 -0.1995
 2358TIP3    H228490   3.255   3.260  13.333  0.7247 -0.0963  0.7025
 2359TIP3   OH228491   5.712   5.431  11.189  0.2383  0.4735  0.5642
 2359TIP3    H128492   5.683   5.460  11.103  0.4023  3.0662  1.2891
 2359TIP3    H228493   5.632   5.417  11.239  0.1554 -0.4996  0.1816
 2360TIP3   OH228494   4.416   0.943   2.452  0.2521 -0.2442 -0.0096
 2360TIP3    H128495   4.344   1.006   2.452  0.5901  0.1477  0.2006
 2360TIP3    H228496   4.389   0.876   2.390 -0.0824  0.1414 -0.2906
 2361TIP3   OH228497   1.270   3.127  11.103  0.3932 -0.3957 -0.2813
 2361TIP3    H128498   1.207   3.078  11.156  1.6505 -0.5421  1.1253
 2361TIP3    H228499   1.272   3.214  11.144  1.7128 -0.6485  0.2239
 2362TIP3   OH228500   4.286   5.745   3.787 -0.2813 -0.0372 -0.2532
 2362TIP3    H128501   4.228   5.670   3.798 -0.2757 -0.1015 -0.6470
 2362TIP3    H228502   4.367   5.720   3.831 -1.2243  0.8575  2.1428
 2363TIP3   OH228503   3.258   4.694  12.547  0.4128 -0.5094  0.3445
 2363TIP3    H128504   3.328   4.749  12.581  1.4038 -0.5502 -1.4726
 2363TIP3    H228505   3.205   4.671  12.623  3.1343 -1.6178  2.0221
 2364TIP3   OH228506   1.772   1.300   5.374  0.0203 -0.3227  0.3709
 2364TIP3    H128507   1.788   1.206   5.372 -0.3612 -0.3768 -0.5274
 2364TIP3    H228508   1.758   1.325   5.283 -0.4882  0.5027  0.6557
 2365TIP3   OH228509   3.818   0.564   4.130  0.3284 -0.4125  0.0491
 2365TIP3    H128510   3.828   0.627   4.201 -2.9941  0.7872 -0.3833
 2365TIP3    H228511   3.861   0.606   4.055 -0.8196  0.8462  0.0632
 2366TIP3   OH228512   6.750   5.344   1.136 -0.0847  0.0086  0.0334
 2366TIP3    H128513   6.817   5.345   1.068  1.0360  1.5638  1.0889
 2366TIP3    H228514   6.798   5.348   1.218 -1.4313 -1.0049  0.9172
 2367TIP3   OH228515   0.465   0.557   3.860  0.2313  0.5954  0.3961
 2367TIP3    H128516   0.535   0.498   3.886 -0.4257  0.3294  1.6531
 2367TIP3    H228517   0.388   0.501   3.848 -0.1475  1.0662  0.5595
 2368TIP3   OH228518   3.914   6.084  14.719  0.2239  0.2031  0.6567
 2368TIP3    H128519   3.947   6.111  14.634  1.8078  1.9701  1.7713
 2368TIP3    H228520   3.990   6.087  14.777 -0.4555 -2.4884  1.8578
 2369TIP3   OH228521   0.613   0.738  17.311  0.2351  0.0636  0.4711
 2369TIP3    H128522   0.533   0.789  17.325  2.1737  3.3041  0.6721
 2369TIP3    H228523   0.655   0.780  17.236  1.2430 -2.3177 -0.3858
 2370TIP3   OH228524   4.626   5.174   1.386  0.2770  0.7129  0.1020
 2370TIP3    H128525   4.550   5.224   1.417 -0.1411  0.4568 -0.5040
 2370TIP3    H228526   4.667   5.231   1.320  1.4872  1.5016  1.4653
 2371TIP3   OH228527   3.250   4.884  11.592 -0.4469 -0.1125 -0.1725
 2371TIP3    H128528   3.285   4.932  11.517 -0.6291  0.7408  0.2822
 2371TIP3    H228529   3.326   4.845  11.634 -0.2459  0.1717 -0.2716
 2372TIP3   OH228530   4.109   1.936   2.930 -0.3757 -0.4581  0.0543
 2372TIP3    H128531   4.125   1.864   2.869 -1.7493 -0.8027  0.0653
 2372TIP3    H228532   4.016   1.931   2.949 -0.7107  1.8848 -0.6620
 2373TIP3   OH228533   0.790   4.079   0.337 -0.3866  1.0571  0.9078
 2373TIP3    H128534   0.856   4.018   0.304  0.4770  1.1453  2.4026
 2373TIP3    H228535   0.718   4.023   0.366 -0.0238  0.8155  1.3440
 2374TIP3   OH228536   6.506   3.522   4.708 -0.1450  0.5822  0.5171
 2374TIP3    H128537   6.511   3.458   4.637  0.2009  0.7762  0.3686
 2374TIP3    H228538   6.460   3.475   4.778 -1.0717  0.6063 -0.0627
 2375TIP3   OH228539   0.375   5.891   4.686  0.3569  0.1175 -0.2304
 2375TIP3    H128540   0.401   5.918   4.774  0.2687  0.6172 -0.3563
 2375TIP3    H228541   0.380   5.970   4.634 -0.9673  0.1446 -0.3595
 2376TIP3   OH228542   0.690   5.600   1.472 -0.2093  0.2986  0.0563
 2376TIP3    H128543   0.659   5.582   1.384 -0.7319 -0.7821  0.4379
 2376TIP3    H228544   0.759   5.535   1.487  1.1425  1.6390 -0.1996
 2377TIP3   OH228545   3.696   0.083  14.781 -0.0177  0.2727 -0.5456
 2377TIP3    H128546   3.654   0.168  14.796  0.7357  0.5040  0.3769
 2377TIP3    H228547   3.662   0.054  14.696 -1.6505  0.6566 -0.0549
 2378TIP3   OH228548   3.739   4.012   3.582  0.6900  0.3849 -0.4022
 2378TIP3    H128549   3.695   4.092   3.611  0.9309  0.8225 -1.1900
 2378TIP3    H228550   3.725   4.011   3.487 -1.2192 -1.6958 -0.1636
 2379TIP3   OH228551   2.918   4.235   4.094 -0.1170 -0.2201  0.4933
 2379TIP3    H128552   2.829   4.254   4.064  0.0654  0.3138  0.2774
 2379TIP3    H228553   2.959   4.189   4.020  0.4194  1.3398 -0.2155
 2380TIP3   OH228554   6.766   3.156  11.838 -0.2406 -0.8480  0.4102
 2380TIP3    H128555   6.685   3.205  11.845  0.4404  0.1217  2.0761
 2380TIP3    H228556   6.769   3.101  11.916  0.7182 -0.8401  0.3968
 2381TIP3   OH228557   6.768   3.690   5.976 -0.0588  0.2429  0.9329
 2381TIP3    H128558   6.739   3.780   5.987  0.9029  0.5271  1.2486
 2381TIP3    H228559   6.782   3.659   6.065 -0.7053 -0.3394  0.8420
 2382TIP3   OH228560   5.430   4.022  14.784  0.2031 -0.5538 -0.1945
 2382TIP3    H128561   5.345   3.997  14.820  0.2295 -0.9453 -0.3953
 2382TIP3    H228562   5.482   4.049  14.860  0.7774 -2.8505  0.3133
 2383TIP3   OH228563   1.175   6.335   6.153  0.3895  0.0424 -0.1893
 2383TIP3    H128564   1.177   6.242   6.174  1.7025 -0.1840 -1.2150
 2383TIP3    H228565   1.090   6.348   6.111  0.7533 -0.9936 -1.2902
 2384TIP3   OH228566   2.987   4.728  10.863  0.4523 -0.4062 -0.0393
 2384TIP3    H128567   2.998   4.633  10.869 -3.5925 -1.0229  1.0480
 2384TIP3    H228568   3.003   4.759  10.952 -2.9829 -0.9757  0.9458
 2385TIP3   OH228569   1.750   2.640   6.089  0.1830  0.1171  0.4657
 2385TIP3    H128570   1.768   2.687   6.008  1.1312  1.0285  1.1656
 2385TIP3    H228571   1.753   2.708   6.157 -0.6577 -0.6034  1.2584
 2386TIP3   OH228572   1.118   2.437  12.258  0.8270  0.1889 -0.3614
 2386TIP3    H128573   1.157   2.350  12.271  3.0273  1.1801  0.1668
 2386TIP3    H228574   1.184   2.485  12.208  0.0121  1.7993  0.0410
 2387TIP3   OH228575   0.399   4.776   5.320 -0.0044  0.0473  0.3177
 2387TIP3    H128576   0.479   4.821   5.293  1.3015 -2.8303 -1.0235
 2387TIP3    H228577   0.338   4.788   5.247 -0.1425  0.6630  0.5260
 2388TIP3   OH228578   4.429   5.045  13.996 -0.4162 -0.0580 -0.4420
 2388TIP3    H128579   4.437   5.088  13.911 -3.5171  0.3204 -0.6583
 2388TIP3    H228580   4.339   5.012  13.998 -0.0895 -1.0528  2.2575
 2389TIP3   OH228581   3.901   6.563   0.982 -0.3082  0.0503  0.1684
 2389TIP3    H128582   3.867   6.577   0.894  0.0001 -1.8510 -0.2945
 2389TIP3    H228583   3.826   6.527   1.031 -0.3002  0.4909  0.5118
 2390TIP3   OH228584   4.037   5.880   6.271  0.1718  0.0109 -0.1556
 2390TIP3    H128585   4.076   5.961   6.239  0.3000 -0.1269 -0.3485
 2390TIP3    H228586   3.943   5.890   6.255  0.0548  0.5661  0.7946
 2391TIP3   OH228587   3.895   2.560   5.686 -0.1688  0.1945  0.0821
 2391TIP3    H128588   3.988   2.580   5.691  0.2144 -1.4362 -0.0148
 2391TIP3    H228589   3.868   2.593   5.600  1.1423 -2.2975 -1.3896
 2392TIP3   OH228590   6.447   2.838  16.777 -0.1042  0.0593 -0.2795
 2392TIP3    H128591   6.482   2.808  16.693  0.9440 -2.2228  0.8858
 2392TIP3    H228592   6.382   2.772  16.801 -1.4466  1.4532  0.0868
 2393TIP3   OH228593   1.197   4.390   1.737 -0.3258 -0.1478 -0.0781
 2393TIP3    H128594   1.190   4.467   1.794 -0.7472 -0.3612  0.1704
 2393TIP3    H228595   1.280   4.401   1.692  0.4870 -0.4454  1.2794
 2394TIP3   OH228596   6.361   1.849  14.237  0.4709 -0.1617 -0.2503
 2394TIP3    H128597   6.451   1.817  14.247  1.0072  1.4496  0.5488
 2394TIP3    H228598   6.341   1.889  14.322 -0.8541 -0.1241 -0.5626
 2395TIP3   OH228599   4.413   1.849   1.976  0.6672 -0.1969  0.8265
 2395TIP3    H128600   4.321   1.820   1.973  0.4130  0.6910 -0.6730
 2395TIP3    H228601   4.447   1.829   1.889  1.8017 -0.1653  1.2568
 2396TIP3   OH228602   4.874   6.766  15.530 -0.1201  0.6078  0.9116
 2396TIP3    H128603   4.946   6.797  15.585 -0.2718  1.1991  0.7830
 2396TIP3    H228604   4.877   6.671  15.538  0.8563  0.6075  0.6978
 2397TIP3   OH228605   3.978   2.273  12.396 -0.3252  0.3399  0.3612
 2397TIP3    H128606   4.027   2.299  12.318  0.7063  1.7216  1.4228
 2397TIP3    H228607   3.914   2.210  12.364 -1.1047  2.1371 -1.9180
 2398TIP3   OH228608   2.188   0.896  14.224 -0.6347  0.1729 -0.0914
 2398TIP3    H128609   2.096   0.894  14.196 -0.6678 -1.2880  0.0542
 2398TIP3    H228610   2.238   0.875  14.145 -0.1443  3.7688 -0.9373
 2399TIP3   OH228611   1.151   1.511   0.844 -0.2333 -0.4691 -0.4739
 2399TIP3    H128612   1.072   1.458   0.857 -0.1954 -0.1855  1.1756
 2399TIP3    H228613   1.159   1.562   0.925  1.2233  0.0593 -0.9167
 2400TIP3   OH228614   2.018   1.035  12.259  0.0468 -0.3584 -0.4233
 2400TIP3    H128615   2.018   1.001  12.348  0.3942  1.6074  0.3620
 2400TIP3    H228616   1.942   1.092  12.254  0.7449  0.5523 -0.9742
 2401TIP3   OH228617   6.203   2.120  14.852  0.2363  0.8035  0.2599
 2401TIP3    H128618   6.279   2.111  14.794 -0.1155 -0.2642 -0.0602
 2401TIP3    H228619   6.156   2.037  14.842  0.0899  0.6463  1.9670
 2402TIP3   OH228620   6.548   0.674  11.904  0.0112  0.0964 -0.4202
 2402TIP3    H128621   6.609   0.676  11.830  3.0972  0.5309  1.9133
 2402TIP3    H228622   6.570   0.594  11.951  3.4888  3.0698  3.8388
 2403TIP3   OH228623   4.888   1.507  14.789 -0.3511 -0.3754 -0.1566
 2403TIP3    H128624   4.837   1.563  14.731 -0.6856  1.5484  1.8698
 2403TIP3    H228625   4.965   1.560  14.813  1.4352 -2.3036 -1.2405
 2404TIP3   OH228626   4.909   3.456   3.418 -0.2647  0.2319  0.1975
 2404TIP3    H128627   4.921   3.403   3.339 -1.3847 -1.1314  0.8924
 2404TIP3    H228628   4.834   3.417   3.462  2.9949 -2.1524  4.3740
 2405TIP3   OH228629   5.741   6.522  14.262  0.3512 -0.5361 -0.1087
 2405TIP3    H128630   5.666   6.566  14.223 -0.3136 -0.5697  1.0764
 2405TIP3    H228631   5.704   6.470  14.334  1.2777 -2.0093 -0.6540
 2406TIP3   OH228632   6.486   1.500  14.738  0.5170 -0.0439 -0.1922
 2406TIP3    H128633   6.392   1.483  14.737  0.8968 -2.7865  0.3388
 2406TIP3    H228634   6.503   1.536  14.826  0.0243  0.0454 -0.1312
 2407TIP3   OH228635   3.349   0.715  11.963  0.6350  0.3209 -0.2068
 2407TIP3    H128636   3.395   0.633  11.946 -0.3788  0.1479 -2.4536
 2407TIP3    H228637   3.265   0.689  12.000  0.3407  0.3201 -0.8560
 2408TIP3   OH228638   4.359   0.284  11.936 -0.4800 -1.1805  0.3318
 2408TIP3    H128639   4.379   0.337  11.859  0.5643  1.1361  2.0580
 2408TIP3    H228640   4.264   0.289  11.944 -0.3508  2.1758  1.4229
 2409TIP3   OH228641   1.943   4.917   5.944 -0.3792 -0.0166  0.4711
 2409TIP3    H128642   1.922   4.824   5.941  0.1030 -0.1149  0.1613
 2409TIP3    H228643   1.943   4.938   6.038  1.0106 -0.6698  0.6306
 2410TIP3   OH228644   1.901   2.324   4.048 -0.0678 -0.1783  0.3843
 2410TIP3    H128645   1.816   2.340   4.008  0.3865 -3.8771 -2.6048
 2410TIP3    H228646   1.961   2.383   4.003 -0.3814 -0.7856 -0.8606
 2411TIP3   OH228647   0.169   0.801  11.544 -0.5589 -0.2589  0.2660
 2411TIP3    H128648   0.252   0.802  11.590 -0.4475  0.6131  0.0738
 2411TIP3    H228649   0.170   0.720  11.493  0.1710 -0.2612  0.2728
 2412TIP3   OH228650   3.110   1.992  13.106 -0.0477  0.1587 -0.0022
 2412TIP3    H128651   3.187   1.965  13.156 -1.1406 -0.9050  1.1690
 2412TIP3    H228652   3.146   2.033  13.027  1.7227 -1.3045 -0.0175
 2413TIP3   OH228653   2.669   4.717   1.239  0.3809  0.7111 -0.5005
 2413TIP3    H128654   2.740   4.780   1.253 -0.0953  1.0566  0.4286
 2413TIP3    H228655   2.711   4.644   1.193  1.0995  1.3790 -0.9518
 2414TIP3   OH228656   3.291   2.095  16.621  0.0601 -0.3948  0.2651
 2414TIP3    H128657   3.208   2.140  16.606  0.9014  0.5945 -1.8686
 2414TIP3    H228658   3.333   2.094  16.535  2.8045  0.2491  1.5069
 2415TIP3   OH228659   1.699   1.488   4.468  0.3375  0.4031 -0.1662
 2415TIP3    H128660   1.733   1.470   4.380 -2.4869  1.3029 -1.5791
 2415TIP3    H228661   1.743   1.569   4.494  0.6451  0.5570 -1.1134
 2416TIP3   OH228662   4.934   1.010  14.344 -0.3112 -0.0406 -0.3336
 2416TIP3    H128663   4.960   1.031  14.434  0.9328  0.7983 -0.8576
 2416TIP3    H228664   5.009   0.963  14.308  0.6606  2.5259 -1.9297
 2417TIP3   OH228665   5.459   6.695  16.263 -0.4064  0.6236 -0.2543
 2417TIP3    H128666   5.425   6.760  16.202  0.4876  0.9726 -0.4065
 2417TIP3    H228667   5.547   6.727  16.284  0.5291 -1.1117 -1.2454
 2418TIP3   OH228668   1.136   0.487  13.102 -0.5121 -0.0350 -0.1690
 2418TIP3    H128669   1.160   0.577  13.123  2.2107 -1.1417  2.0822
 2418TIP3    H228670   1.174   0.435  13.172 -2.3749 -2.9463 -1.1390
 2419TIP3   OH228671   4.484   5.982   2.244 -0.5427 -0.1792  0.3628
 2419TIP3    H128672   4.427   5.935   2.183  0.9348  0.4913 -1.6270
 2419TIP3    H228673   4.482   6.073   2.215  1.4568 -0.1208  0.2236
 2420TIP3   OH228674   0.234   0.130  16.655 -0.2020  0.1770  0.2973
 2420TIP3    H128675   0.315   0.179  16.666  2.3233 -3.3445 -0.6351
 2420TIP3    H228676   0.239   0.094  16.567 -1.4306 -2.2728  1.1274
 2421TIP3   OH228677   0.129   3.582  12.766  0.4971 -0.5179 -0.1168
 2421TIP3    H128678   0.084   3.589  12.682 -0.1695 -3.3027 -0.0832
 2421TIP3    H228679   0.062   3.606  12.831 -0.2887 -2.2513 -0.2155
 2422TIP3   OH228680   5.149   1.291   5.489  0.1382 -0.0070  0.2033
 2422TIP3    H128681   5.187   1.290   5.577 -0.5789 -0.8095  0.5100
 2422TIP3    H228682   5.190   1.367   5.447  0.7507  0.1832  1.1079
 2423TIP3   OH228683   1.160   2.525   0.054 -0.7491  0.4641 -0.1600
 2423TIP3    H128684   1.179   2.535   0.147 -0.9415  0.6158 -0.1361
 2423TIP3    H228685   1.119   2.438   0.048  0.0742  0.0769 -0.2339
 2424TIP3   OH228686   3.703   5.893   5.091  0.3910  0.3740  0.3955
 2424TIP3    H128687   3.694   5.804   5.056 -1.2969  0.5391  0.3146
 2424TIP3    H228688   3.749   5.881   5.174  0.8619 -0.4897  0.0217
 2425TIP3   OH228689   4.163   3.498   1.620 -0.0674  0.0276 -0.2665
 2425TIP3    H128690   4.124   3.584   1.629  1.0671  0.5973 -0.6271
 2425TIP3    H228691   4.176   3.487   1.526  0.4033 -0.2512 -0.1747
 2426TIP3   OH228692   1.400   5.483  15.762 -0.3644 -0.4000  0.6946
 2426TIP3    H128693   1.413   5.388  15.772 -0.9781 -0.5250  0.3614
 2426TIP3    H228694   1.394   5.515  15.852 -1.5792 -0.8960  0.8163
 2427TIP3   OH228695   2.934   5.413   5.631  0.1705  0.4595 -0.3065
 2427TIP3    H128696   2.983   5.479   5.581  0.3462  0.9560  0.5048
 2427TIP3    H228697   2.843   5.445   5.630 -0.2063 -0.5472 -1.9531
 2428TIP3   OH228698   1.046   5.640   1.301 -0.6972 -0.1659  0.8560
 2428TIP3    H128699   1.130   5.671   1.335  0.1646  0.3141 -1.4930
 2428TIP3    H228700   1.010   5.586   1.371  0.1425  1.9967  3.1096
 2429TIP3   OH228701   4.272   2.360  15.360  0.6450  0.3550  0.7122
 2429TIP3    H128702   4.221   2.286  15.330  0.3277  0.3074  1.3581
 2429TIP3    H228703   4.306   2.334  15.446  2.1359  0.2068  0.1133
 2430TIP3   OH228704   0.984   6.490   3.915 -0.3540 -0.3045  0.2254
 2430TIP3    H128705   0.935   6.426   3.965  0.7450 -1.6078 -0.2979
 2430TIP3    H228706   0.922   6.561   3.900 -0.7360  0.1608  3.3573
 2431TIP3   OH228707   5.552   2.313   3.493 -0.3736 -0.5879 -0.4554
 2431TIP3    H128708   5.482   2.370   3.461 -0.0119  1.6837  2.4420
 2431TIP3    H228709   5.621   2.321   3.428 -1.4636 -0.1517 -1.6097
 2432TIP3   OH228710   5.396   4.879   0.159  0.1387  0.5201  0.0196
 2432TIP3    H128711   5.468   4.824   0.190 -0.0253  0.2012 -0.1599
 2432TIP3    H228712   5.346   4.899   0.237 -1.4974 -2.0306 -0.2379
 2433TIP3   OH228713   4.060   4.042   0.212  0.1380  0.1615 -0.4434
 2433TIP3    H128714   3.982   3.989   0.197  0.1303  0.7209 -2.8623
 2433TIP3    H228715   4.035   4.103   0.282 -0.3606 -1.9067  1.2609
 2434TIP3   OH228716   0.391   2.404   0.157 -0.2291 -0.2720 -0.7573
 2434TIP3    H128717   0.435   2.488   0.144 -1.6250  0.4359 -1.0522
 2434TIP3    H228718   0.382   2.396   0.251 -1.1176  0.4631 -0.7751
 2435TIP3   OH228719   5.625   1.919  14.987 -0.2311 -0.6699 -0.1865
 2435TIP3    H128720   5.650   1.970  15.065 -0.4287 -0.5928 -0.1731
 2435TIP3    H228721   5.655   1.830  15.007 -1.6268 -0.9842  0.6399
 2436TIP3   OH228722   5.358   6.761   0.075 -0.1692 -0.4632  0.7062
 2436TIP3    H128723   5.281   6.751   0.131 -2.7820  2.0021 -2.1203
 2436TIP3    H228724   5.431   6.770   0.137 -2.6230  0.7746  3.7077
 2437TIP3   OH228725   1.990   4.430   0.819  0.0709  0.0755  0.3765
 2437TIP3    H128726   1.915   4.450   0.764  0.3010 -0.9098 -0.3230
 2437TIP3    H228727   2.043   4.510   0.818  0.6806 -0.2811 -1.8630
 2438TIP3   OH228728   2.222   0.564  14.662 -0.1283 -0.1574  0.4063
 2438TIP3    H128729   2.279   0.487  14.656  0.2222  0.2016 -1.5732
 2438TIP3    H228730   2.281   0.636  14.683 -0.5680 -0.5014  3.0691
 2439TIP3   OH228731   2.915   2.773   2.282 -0.1158 -0.6008  0.7395
 2439TIP3    H128732   2.857   2.803   2.353  1.7461  1.5696  1.4688
 2439TIP3    H228733   2.939   2.684   2.308 -2.4293 -1.2618  0.8196
 2440TIP3   OH228734   0.166   1.661   2.334 -0.7128 -0.0303  0.6152
 2440TIP3    H128735   0.204   1.603   2.400  0.4723  1.1411  1.0165
 2440TIP3    H228736   0.241   1.694   2.285 -1.5826 -1.1674 -1.6320
 2441TIP3   OH228737   2.977   1.392   5.489  0.3747 -0.0394 -0.1563
 2441TIP3    H128738   3.034   1.442   5.431 -2.2239  1.1131 -1.8713
 2441TIP3    H228739   2.956   1.453   5.560  0.3819 -0.1093 -0.0935
 2442TIP3   OH228740   1.177   0.493   1.453 -0.0362 -0.4355  0.0062
 2442TIP3    H128741   1.094   0.469   1.494  0.0175 -0.7544 -0.0689
 2442TIP3    H228742   1.239   0.426   1.483  0.8974  1.3642  2.3976
 2443TIP3   OH228743   1.691   1.763   4.782 -0.2910  0.0491  0.6121
 2443TIP3    H128744   1.617   1.719   4.823 -1.2306  1.3538  0.3870
 2443TIP3    H228745   1.695   1.848   4.825  0.5274  0.3199  0.0137
 2444TIP3   OH228746   1.414   5.053   4.195 -0.0229  0.4061  0.5721
 2444TIP3    H128747   1.326   5.072   4.229 -0.3254  1.3705 -0.6967
 2444TIP3    H228748   1.454   5.139   4.181  0.4568  0.0181 -0.5550
 2445TIP3   OH228749   5.657   2.285   2.561 -0.0797 -0.0717  0.2108
 2445TIP3    H128750   5.647   2.278   2.466  2.2649 -1.1829 -0.0149
 2445TIP3    H228751   5.567   2.296   2.594 -0.8496  1.5901 -2.1841
 2446TIP3   OH228752   5.268   2.747  14.702  0.0651  0.0231  0.2920
 2446TIP3    H128753   5.240   2.802  14.629  1.8184  1.0873  0.3641
 2446TIP3    H228754   5.318   2.805  14.759 -0.2854 -1.0555  1.7629
 2447TIP3   OH228755   4.826   3.947  16.536  0.2265  0.1067  0.5196
 2447TIP3    H128756   4.867   3.882  16.593  1.8441  1.2444  0.7335
 2447TIP3    H228757   4.885   3.953  16.460 -0.0256  1.1216  0.3900
 2448TIP3   OH228758   0.290   4.969   1.158 -0.4849 -0.1457 -0.4528
 2448TIP3    H128759   0.207   5.008   1.185  1.2090  1.9473  2.3845
 2448TIP3    H228760   0.295   4.887   1.207 -1.0146 -0.4385 -0.8886
 2449TIP3   OH228761   3.309   1.968  11.258 -0.1549 -0.1540  0.6537
 2449TIP3    H128762   3.402   1.960  11.279 -0.0644  1.0049  0.7705
 2449TIP3    H228763   3.267   1.983  11.343 -0.6822 -2.2699  0.8198
 2450TIP3   OH228764   0.844   3.717   5.255  0.7183  0.1196  0.5297
 2450TIP3    H128765   0.826   3.689   5.344  1.9596  1.2346  1.1609
 2450TIP3    H228766   0.804   3.650   5.200  0.6540 -1.0193  1.9254
 2451TIP3   OH228767   0.576   2.020   5.059 -0.0323  0.3336 -0.3361
 2451TIP3    H128768   0.617   1.934   5.063 -1.2531 -0.3710 -1.8926
 2451TIP3    H228769   0.485   2.004   5.082  0.3564  1.8055  2.7165
 2452TIP3   OH228770   2.210   0.047   4.457  0.5183 -0.3120  0.1174
 2452TIP3    H128771   2.176   0.118   4.512  1.9813 -0.0321  0.7292
 2452TIP3    H228772   2.304   0.047   4.475  0.7467 -1.4836 -0.9647
 2453TIP3   OH228773   5.212   5.800   4.186 -0.2457 -0.2214 -0.3340
 2453TIP3    H128774   5.307   5.806   4.176 -0.2242 -0.3202 -0.2077
 2453TIP3    H228775   5.190   5.869   4.248 -0.2764 -0.1016 -0.4782
 2454TIP3   OH228776   1.771   0.002  10.975 -0.0853  0.2069 -0.0205
 2454TIP3    H128777   1.733   0.089  10.967  0.0919  0.5713  2.4180
 2454TIP3    H228778   1.702  -0.051  11.014  0.7142  0.0021  1.1771
 2455TIP3   OH228779   2.425   4.469  16.348  0.2006 -0.2909  0.1159
 2455TIP3    H128780   2.516   4.499  16.353 -0.4882  2.2859 -1.0410
 2455TIP3    H228781   2.375   4.536  16.394 -1.3206 -0.3304 -1.3828
 2456TIP3   OH228782   4.853   2.505   1.265  0.1557  0.4862 -0.1448
 2456TIP3    H128783   4.851   2.600   1.275  0.2845  0.4739 -0.0019
 2456TIP3    H228784   4.930   2.487   1.211  2.1882  0.2220  2.6296
 2457TIP3   OH228785   2.932   5.997   4.535 -0.1367  0.1033 -0.1064
 2457TIP3    H128786   2.927   6.058   4.608 -1.7033 -1.3402  1.0595
 2457TIP3    H228787   2.939   5.911   4.575  2.3536 -0.5596 -1.7166
 2458TIP3   OH228788   4.018   2.966   4.019 -0.1350 -0.4899  0.4111
 2458TIP3    H128789   3.988   3.056   4.006 -0.9062 -0.9797 -1.5007
 2458TIP3    H228790   4.038   2.961   4.113 -1.5015  1.2419  0.8534
 2459TIP3   OH228791   4.746   0.564   3.469  0.6440  0.3060  0.4045
 2459TIP3    H128792   4.729   0.624   3.543 -3.8321 -0.0534 -0.0451
 2459TIP3    H228793   4.803   0.614   3.411  1.6668  1.8571  2.5672
 2460TIP3   OH228794   3.053   2.674  17.159 -0.1147 -0.1106  0.0739
 2460TIP3    H128795   2.959   2.654  17.161 -0.1981  0.3165  0.3695
 2460TIP3    H228796   3.082   2.639  17.074 -0.9720  1.6252 -1.0051
 2461TIP3   OH228797   4.383   1.008   5.605 -0.4412 -0.0642  0.0834
 2461TIP3    H128798   4.446   0.936   5.608  1.0084  1.1275 -0.1769
 2461TIP3    H228799   4.346   1.012   5.693 -0.5940 -1.1397  0.0847
 2462TIP3   OH228800   1.751   4.292  14.604  0.2222 -0.0443  0.0842
 2462TIP3    H128801   1.679   4.345  14.638  1.2861  2.1883 -0.9779
 2462TIP3    H228802   1.828   4.319  14.654  1.1373  0.8221 -1.6776
 2463TIP3   OH228803   4.464   1.732  16.173 -0.6526  0.6840  0.2942
 2463TIP3    H128804   4.441   1.663  16.110  0.5685  1.9165 -1.6030
 2463TIP3    H228805   4.388   1.790  16.173 -0.1321  1.4323 -1.2036
 2464TIP3   OH228806   3.313   3.023  12.009 -0.6192 -0.2817 -0.6143
 2464TIP3    H128807   3.270   2.961  11.951  1.1978 -1.6303 -0.5869
 2464TIP3    H228808   3.363   2.969  12.070  0.5537  1.1725 -0.2135
 2465TIP3   OH228809   3.545   6.188  13.719  0.3121 -0.3488 -0.8371
 2465TIP3    H128810   3.470   6.131  13.705  0.8871 -1.5732  0.7649
 2465TIP3    H228811   3.601   6.173  13.643  0.5777 -2.1904 -0.3376
 2466TIP3   OH228812   1.009   4.745   3.404  0.4308 -0.0979  0.2194
 2466TIP3    H128813   1.076   4.809   3.428  0.0610 -0.4378  2.3514
 2466TIP3    H228814   0.989   4.699   3.485 -0.6527 -1.6690 -0.8723
 2467TIP3   OH228815   2.456   1.278  11.664 -0.3669  0.2911  0.4589
 2467TIP3    H128816   2.459   1.183  11.651  0.1877  0.6444 -2.8244
 2467TIP3    H228817   2.366   1.303  11.645 -0.2482  0.5299  0.1986
 2468TIP3   OH228818   3.753   4.904   4.384  0.2142 -0.0310 -0.5945
 2468TIP3    H128819   3.845   4.919   4.365 -0.0783  4.4174  0.4894
 2468TIP3    H228820   3.706   4.942   4.310 -0.7409  0.4966  0.2583
 2469TIP3   OH228821   1.404   1.728  14.358  0.0370 -0.3356 -0.5699
 2469TIP3    H128822   1.323   1.755  14.401 -0.2484  0.9714 -1.8754
 2469TIP3    H228823   1.454   1.684  14.427 -1.3039 -0.1908  0.5359
 2470TIP3   OH228824   6.564   4.501  16.763 -0.4949  0.1372  0.1250
 2470TIP3    H128825   6.630   4.435  16.743  0.9754  1.6284 -0.1543
 2470TIP3    H228826   6.522   4.519  16.679  0.6693  1.1475 -0.2745
 2471TIP3   OH228827   0.436   3.148  11.837 -0.0763  0.1876 -0.6573
 2471TIP3    H128828   0.441   3.065  11.790  2.0274 -1.0758  1.6141
 2471TIP3    H228829   0.512   3.198  11.807 -0.9740  1.0737 -1.5308
 2472TIP3   OH228830   5.616   3.422  12.694 -0.0678 -0.2431  0.0855
 2472TIP3    H128831   5.522   3.433  12.709 -0.0077 -1.1935  1.2495
 2472TIP3    H228832   5.621   3.360  12.622 -0.3601 -2.1319  1.6241
 2473TIP3   OH228833   4.040   0.540   3.341 -0.0719 -0.0285 -0.5060
 2473TIP3    H128834   4.092   0.486   3.401 -0.9078 -0.1271  0.1457
 2473TIP3    H228835   4.009   0.478   3.275  1.2793  0.1677 -1.3786
 2474TIP3   OH228836   3.718   0.779  12.362 -0.1705 -0.1238 -0.2989
 2474TIP3    H128837   3.776   0.706  12.381  1.3598  0.8654 -0.9239
 2474TIP3    H228838   3.691   0.811  12.448  1.6154  0.4208  0.1095
 2475TIP3   OH228839   5.636   5.147   5.503 -0.2407  0.0435  0.3310
 2475TIP3    H128840   5.575   5.210   5.542  0.4054  1.8461 -1.3932
 2475TIP3    H228841   5.641   5.172   5.411  2.7813 -0.2537  0.2938
 2476TIP3   OH228842   5.928   2.380   0.863  0.4653 -0.6222 -0.2069
 2476TIP3    H128843   5.942   2.405   0.772 -0.2021  0.6132  0.0101
 2476TIP3    H228844   5.974   2.446   0.914 -1.4425  0.3343  0.3892
 2477TIP3   OH228845   6.278   5.321   5.992 -0.3263  0.0379 -0.4879
 2477TIP3    H128846   6.254   5.398   5.941  0.3486  2.0388  2.0474
 2477TIP3    H228847   6.196   5.291   6.031 -0.1139  1.5892  1.2316
 2478TIP3   OH228848   0.848   3.058  13.355  0.2682  0.1675 -0.2974
 2478TIP3    H128849   0.753   3.070  13.347  0.2553  1.7708  1.4845
 2478TIP3    H228850   0.878   3.136  13.403  2.6255  0.1396 -1.5528
 2479TIP3   OH228851   5.551   1.688   1.805  0.5078 -0.1217  0.0957
 2479TIP3    H128852   5.552   1.597   1.834  1.6426  0.2465  1.3403
 2479TIP3    H228853   5.495   1.689   1.728 -1.8010 -1.3647  1.6624
 2480TIP3   OH228854   5.515   6.376  12.786  0.5160 -0.2122 -0.0822
 2480TIP3    H128855   5.425   6.406  12.800  0.5577 -0.3952  0.6033
 2480TIP3    H228856   5.509   6.280  12.786  0.8366 -0.2395  0.8773
 2481TIP3   OH228857   5.887   5.589  12.311 -0.2357  0.1237  0.4243
 2481TIP3    H128858   5.968   5.593  12.259 -0.5398  1.3559  0.0206
 2481TIP3    H228859   5.878   5.496  12.334 -0.5944 -0.6798 -2.5417
 2482TIP3   OH228860   1.824   5.873  16.549 -0.1755  0.9782 -0.4083
 2482TIP3    H128861   1.741   5.877  16.501 -0.5327  2.6551  0.2969
 2482TIP3    H228862   1.799   5.882  16.641  0.7873  1.3405 -0.1752
 2483TIP3   OH228863   3.824   0.440   2.692 -0.5657 -0.4638  0.4485
 2483TIP3    H128864   3.824   0.381   2.767  1.1433 -0.7084  0.2941
 2483TIP3    H228865   3.916   0.451   2.670 -0.9754  0.4712 -0.9444
 2484TIP3   OH228866   6.454   6.633  16.438 -0.4945  0.0075  0.0630
 2484TIP3    H128867   6.467   6.596  16.525  0.2411 -0.7105 -0.3379
 2484TIP3    H228868   6.539   6.671  16.415 -1.0165  1.2858  0.1420
 2485TIP3   OH228869   2.443   5.995  13.896 -0.3444 -0.1305 -0.2337
 2485TIP3    H128870   2.452   5.980  13.990 -1.9500 -0.2172 -0.0728
 2485TIP3    H228871   2.442   5.908  13.858 -1.7033 -0.1993 -0.1001
 2486TIP3   OH228872   2.635   4.529  13.505 -0.0549 -0.1362 -0.1733
 2486TIP3    H128873   2.616   4.451  13.452  0.1082 -0.5431  0.3507
 2486TIP3    H228874   2.667   4.593  13.443  2.1718 -1.3036 -0.3452
 2487TIP3   OH228875   2.911   4.537  12.090 -0.0730  0.3209  0.6401
 2487TIP3    H128876   2.832   4.587  12.066  0.2528  0.3184 -0.4913
 2487TIP3    H228877   2.951   4.515  12.006  0.3212 -1.0007  1.1569
 2488TIP3   OH228878   2.642   3.197   0.791 -0.2174 -0.0042  0.1044
 2488TIP3    H128879   2.605   3.270   0.741  0.5746 -0.0486 -0.5581
 2488TIP3    H228880   2.726   3.230   0.823 -0.2915 -0.3018  0.6310
 2489TIP3   OH228881   0.141   0.778   1.848  0.0518 -0.3540 -0.0797
 2489TIP3    H128882   0.064   0.731   1.880 -0.6820 -0.0366 -1.2923
 2489TIP3    H228883   0.211   0.754   1.908 -1.1052 -0.2526  1.3726
 2490TIP3   OH228884   6.477   4.903   3.941  0.4258 -0.5440  0.0900
 2490TIP3    H128885   6.431   4.823   3.916 -3.7864  1.3554  0.8281
 2490TIP3    H228886   6.476   4.958   3.862  0.4176 -0.0808  0.4046
 2491TIP3   OH228887   0.372   5.821  17.208  0.4072 -0.0146  0.1115
 2491TIP3    H128888   0.349   5.822  17.115  1.1669 -0.8358 -0.1035
 2491TIP3    H228889   0.289   5.809  17.254  0.2503 -1.7767 -0.5760
 2492TIP3   OH228890   6.620   4.151  14.718 -0.3451 -0.0686  0.1372
 2492TIP3    H128891   6.562   4.161  14.643  1.0244  0.1046 -0.9572
 2492TIP3    H228892   6.587   4.074  14.765 -0.2909 -1.1897 -1.5789
 2493TIP3   OH228893   5.794   2.793   1.302 -0.7169  0.5786 -0.3815
 2493TIP3    H128894   5.760   2.708   1.275 -1.6654  0.7175  0.3062
 2493TIP3    H228895   5.805   2.785   1.397  0.8683  0.6666 -0.5309
 2494TIP3   OH228896   5.560   5.400  16.568 -0.8630  0.2563 -0.5970
 2494TIP3    H128897   5.626   5.403  16.499  0.7155  1.4825  0.8458
 2494TIP3    H228898   5.525   5.489  16.571  1.4360  1.2520  2.1515
 2495TIP3   OH228899   2.126   5.354   1.302  0.0540  0.1990  0.0562
 2495TIP3    H128900   2.045   5.365   1.252 -0.2343 -1.0565  0.2231
 2495TIP3    H228901   2.191   5.405   1.253 -0.4074 -0.3152 -1.1375
 2496TIP3   OH228902   1.417   2.032   0.743  0.0946 -0.3313 -0.2325
 2496TIP3    H128903   1.354   1.960   0.743  0.1076 -0.3521  0.4415
 2496TIP3    H228904   1.395   2.083   0.822  0.5169  0.0192 -0.3348
 2497TIP3   OH228905   4.531   5.163  16.449 -0.1407 -0.2931 -0.4465
 2497TIP3    H128906   4.533   5.147  16.543  0.4772 -0.0508 -0.4142
 2497TIP3    H228907   4.620   5.146  16.419  0.2417  1.7471 -0.6246
 2498TIP3   OH228908   0.457   4.911  14.989 -0.3881 -0.2283 -0.4144
 2498TIP3    H128909   0.405   4.878  14.915  0.1525  1.0789 -1.4166
 2498TIP3    H228910   0.528   4.849  14.999 -0.1795 -0.1535 -1.3485
 2499TIP3   OH228911   2.829   3.445  12.237 -0.2846 -0.5169 -0.5792
 2499TIP3    H128912   2.836   3.539  12.253 -0.2150 -0.6183 -0.0082
 2499TIP3    H228913   2.736   3.431  12.219 -0.1175 -0.1623 -1.8626
 2500TIP3   OH228914   4.501   4.001   6.512 -0.0243  0.7319  0.3819
 2500TIP3    H128915   4.445   3.948   6.570 -1.0135  0.5686 -0.6756
 2500TIP3    H228916   4.439   4.050   6.458  0.8757  1.2868 -0.1656
 2501TIP3   OH228917   2.002   5.022  14.234 -0.6190 -0.3655  0.5401
 2501TIP3    H128918   1.930   5.086  14.228 -1.5810 -1.4793 -0.2534
 2501TIP3    H228919   2.000   4.993  14.325 -0.0893  0.8065  0.9469
 2502TIP3   OH228920   5.026   3.732   0.059 -0.1542 -0.0396  0.0167
 2502TIP3    H128921   4.987   3.690   0.135 -2.4706  0.8838 -0.5856
 2502TIP3    H228922   4.981   3.816   0.051  1.1778  0.6015 -1.4358
 2503TIP3   OH228923   1.803   0.070   6.000 -0.1643 -0.2800 -0.0263
 2503TIP3    H128924   1.889   0.030   6.013  0.0188 -0.5109 -1.6671
 2503TIP3    H228925   1.821   0.163   5.989 -0.1414 -0.3050 -0.2018
 2504TIP3   OH228926   6.231   1.725   3.621 -0.0422  0.1618  0.0897
 2504TIP3    H128927   6.286   1.698   3.547  0.4771  3.3252 -0.8393
 2504TIP3    H228928   6.143   1.729   3.584  0.1479  1.3023 -0.2765
 2505TIP3   OH228929   6.272   4.536  16.944  0.2206 -0.6388 -0.2097
 2505TIP3    H128930   6.228   4.592  16.879  1.7667  0.4210 -0.4036
 2505TIP3    H228931   6.340   4.491  16.894  0.7608 -0.5982  0.4734
 2506TIP3   OH228932   4.105   5.638   6.372 -0.0833 -0.0241  0.1602
 2506TIP3    H128933   4.110   5.581   6.295  1.0514 -0.7195  0.7307
 2506TIP3    H228934   4.106   5.727   6.336  2.2891 -0.3004 -0.5879
 2507TIP3   OH228935   2.241   4.965   2.784  0.3390 -0.5745  0.0780
 2507TIP3    H128936   2.170   4.954   2.720  0.6967 -2.4135 -0.0601
 2507TIP3    H228937   2.209   4.922   2.863  2.3429 -4.1367 -0.8599
 2508TIP3   OH228938   0.974   0.663   6.103  0.0406  1.0555 -0.0860
 2508TIP3    H128939   0.921   0.646   6.181 -1.3006 -2.6736 -1.5457
 2508TIP3    H228940   1.062   0.633   6.128 -0.5254 -0.7669 -0.1108
 2509TIP3   OH228941   0.224   4.287   6.367  0.6419 -0.2101  0.0224
 2509TIP3    H128942   0.251   4.376   6.391 -1.2331  0.2351  0.6546
 2509TIP3    H228943   0.163   4.261   6.437 -0.0770 -1.3619 -0.9966
 2510TIP3   OH228944   4.079   5.392  12.204 -0.0286  0.0427  0.0232
 2510TIP3    H128945   4.124   5.476  12.210  1.3431 -0.5047 -1.6892
 2510TIP3    H228946   4.114   5.340  12.276  2.2037 -0.3641 -1.2582
 2511TIP3   OH228947   5.439   5.938  16.904  0.3645  0.3870  0.4045
 2511TIP3    H128948   5.362   5.991  16.927 -0.6258 -1.3614  1.3768
 2511TIP3    H228949   5.453   5.955  16.811  0.5522  2.8491  0.8160
 2512TIP3   OH228950   1.193   2.510  13.417 -1.0641 -0.1967  0.2263
 2512TIP3    H128951   1.138   2.444  13.460 -1.0767 -0.4582 -0.1914
 2512TIP3    H228952   1.233   2.558  13.490 -0.9071 -0.7844  0.5343
 2513TIP3   OH228953   0.822   1.961   1.106  0.2913  0.4977  0.2999
 2513TIP3    H128954   0.862   1.973   1.192  0.1083 -0.6408  0.5538
 2513TIP3    H228955   0.886   1.997   1.044 -0.0921  2.4320  0.9661
 2514TIP3   OH228956   4.166   4.189  14.434 -0.4393 -0.2135 -0.1927
 2514TIP3    H128957   4.220   4.126  14.483 -0.8121 -0.4596 -0.0952
 2514TIP3    H228958   4.110   4.229  14.501  0.2738  0.7344 -0.1384
 2515TIP3   OH228959   1.272   6.165   1.833 -0.5195 -0.8767 -0.7097
 2515TIP3    H128960   1.204   6.134   1.892 -0.6285  0.5725 -0.0441
 2515TIP3    H228961   1.354   6.136   1.873 -0.4747  1.5377  1.1331
 2516TIP3   OH228962   3.233   0.213  14.718 -0.1351 -0.7414  0.1257
 2516TIP3    H128963   3.194   0.226  14.804 -0.7372  0.0175 -0.2466
 2516TIP3    H228964   3.161   0.230  14.656  0.1648 -1.6984 -0.5238
 2517TIP3   OH228965   0.793   4.050   1.718 -0.5283 -0.0387 -0.0222
 2517TIP3    H128966   0.878   4.007   1.720 -0.2186  0.4553 -1.2621
 2517TIP3    H228967   0.736   3.991   1.668 -0.5449  0.2182 -0.3160
 2518TIP3   OH228968   3.524   1.051  12.364 -0.3269  0.1385  0.4095
 2518TIP3    H128969   3.607   1.064  12.411 -0.9463  0.7367  1.3709
 2518TIP3    H228970   3.528   0.960  12.334  0.0552 -0.3035  1.7157
 2519TIP3   OH228971   6.676   5.990  14.004 -0.0487 -0.3110  0.4835
 2519TIP3    H128972   6.626   5.911  14.028 -1.6570  1.2848  2.9070
 2519TIP3    H228973   6.760   5.978  14.048 -0.6928 -0.2267  1.7933
 2520TIP3   OH228974   6.334   1.015   1.146 -0.1648 -0.0602  0.5871
 2520TIP3    H128975   6.353   0.970   1.064 -0.7165  1.4110 -0.3854
 2520TIP3    H228976   6.322   0.944   1.209  2.4194 -1.2017 -0.0619
 2521TIP3   OH228977   6.442   1.455   5.607 -0.2420 -0.0429 -0.5011
 2521TIP3    H128978   6.437   1.545   5.639  1.1664 -0.4549  1.0210
 2521TIP3    H228979   6.352   1.430   5.590 -0.6213  1.7758 -1.3380
 2522TIP3   OH228980   2.490   3.669  12.147  0.0606  0.0203  0.5777
 2522TIP3    H128981   2.520   3.740  12.090 -1.8973  0.0611 -0.4967
 2522TIP3    H228982   2.508   3.700  12.236  1.2855  0.8687  0.0609
 2523TIP3   OH228983   5.602   6.766   3.668 -0.1090 -0.2606  0.4427
 2523TIP3    H128984   5.573   6.689   3.716  0.8114 -1.3179 -0.6402
 2523TIP3    H228985   5.650   6.818   3.733  0.4721 -1.3045  0.8764
 2524TIP3   OH228986   2.848   1.708  12.174  0.3930 -0.2996 -0.4592
 2524TIP3    H128987   2.935   1.687  12.141  1.1130  0.1575  1.0454
 2524TIP3    H228988   2.842   1.803  12.166  0.0398 -0.3232 -0.5059
 2525TIP3   OH228989   4.680   0.534  14.488 -0.0412 -1.0659  0.1226
 2525TIP3    H128990   4.753   0.588  14.518  0.0416 -1.6588  1.0233
 2525TIP3    H228991   4.704   0.509  14.399 -0.0374  0.2845 -0.2874
 2526TIP3   OH228992   2.329   5.305   2.300  0.0710  0.2452 -0.2856
 2526TIP3    H128993   2.341   5.381   2.243 -2.3244  1.0098  0.1296
 2526TIP3    H228994   2.418   5.273   2.317  0.9953  1.5129 -2.3690
 2527TIP3   OH228995   1.465   0.115   5.476 -0.0816  0.1848 -0.3415
 2527TIP3    H128996   1.476   0.165   5.395  0.8807  1.1477  0.3550
 2527TIP3    H228997   1.379   0.075   5.468  0.7266 -1.3099 -2.6777
 2528TIP3   OH228998   0.245   3.343  13.733  0.1029 -0.3018 -0.2157
 2528TIP3    H128999   0.195   3.425  13.741  0.2102 -0.2933  0.4149
 2528TIP3    H229000   0.270   3.322  13.822 -1.0094 -1.7043 -0.1963
 2529TIP3   OH229001   0.076   1.177  11.656  0.1108  0.2924 -0.1015
 2529TIP3    H129002   0.128   1.141  11.728 -0.5523  2.0806  1.3447
 2529TIP3    H229003  -0.004   1.209  11.697 -0.3390  1.2976 -1.6535
 2530TIP3   OH229004   1.058   5.556   2.254 -0.2911  0.2483  0.4034
 2530TIP3    H129005   1.127   5.593   2.199 -1.1524  0.3193 -0.6643
 2530TIP3    H229006   1.086   5.576   2.344  1.5288 -0.5450  0.0654
 2531TIP3   OH229007   4.604   0.732  16.657 -0.1821  0.4563 -0.0350
 2531TIP3    H129008   4.544   0.658  16.646  0.9211 -0.6810  1.2893
 2531TIP3    H229009   4.639   0.748  16.569 -1.1607  0.0543 -0.5102
 2532TIP3   OH229010   3.728   2.690   4.939  0.0822 -0.1887 -0.0571
 2532TIP3    H129011   3.655   2.725   4.888 -0.7178 -0.6145  0.7666
 2532TIP3    H229012   3.776   2.768   4.969 -0.6595  0.1436  0.2852
 2533TIP3   OH229013   5.496   3.362  16.498  0.0370 -0.5721  0.1332
 2533TIP3    H129014   5.489   3.415  16.418 -1.6279 -1.5358 -0.3899
 2533TIP3    H229015   5.466   3.275  16.472  0.9106 -1.3067  1.4619
 2534TIP3   OH229016   1.169   5.301  15.785  0.2006 -0.1760 -1.0013
 2534TIP3    H129017   1.200   5.383  15.822 -1.2540 -0.1463  0.3096
 2534TIP3    H229018   1.237   5.237  15.807 -0.5212 -0.1363  1.8462
 2535TIP3   OH229019   3.777   1.998   0.857  0.1968 -0.4302 -0.3407
 2535TIP3    H129020   3.817   2.082   0.879 -1.2286  0.9020 -2.4539
 2535TIP3    H229021   3.693   2.021   0.818 -0.5860 -2.9061 -0.2970
 2536TIP3   OH229022   1.401   1.247  16.208  0.0849  0.0822  0.1087
 2536TIP3    H129023   1.388   1.160  16.169  0.8257 -0.1270  0.3100
 2536TIP3    H229024   1.343   1.304  16.158  1.6164 -0.0061 -1.8961
 2537TIP3   OH229025   0.840   2.710   3.359 -0.5106  0.6330  0.3926
 2537TIP3    H129026   0.931   2.682   3.353 -0.0373  2.4650 -2.0496
 2537TIP3    H229027   0.800   2.682   3.277 -2.0909  0.2435  1.2406
 2538TIP3   OH229028   4.404   4.253  15.697 -0.3799 -0.2405 -0.0662
 2538TIP3    H129029   4.326   4.268  15.751 -0.6031  0.9818 -0.6805
 2538TIP3    H229030   4.379   4.286  15.610 -0.7584 -3.9216 -1.5345
 2539TIP3   OH229031   6.465   5.083   1.903 -0.2190  0.1644  0.4322
 2539TIP3    H129032   6.386   5.116   1.860 -0.2833 -1.4172 -0.7680
 2539TIP3    H229033   6.458   5.113   1.993 -1.7882  0.7566  0.1428
 2540TIP3   OH229034   2.888   1.091   4.876 -0.6552 -0.1253  0.7669
 2540TIP3    H129035   2.977   1.108   4.845  0.2575  0.5659  3.5135
 2540TIP3    H229036   2.832   1.140   4.816  1.1501  3.1729  1.5567
 2541TIP3   OH229037   0.807   3.617  13.661  0.4115 -0.1784 -0.2500
 2541TIP3    H129038   0.849   3.582  13.740  3.0834  0.2582 -1.3486
 2541TIP3    H229039   0.713   3.608  13.677  0.8809 -1.0352  2.5229
 2542TIP3   OH229040   1.387   2.563  15.093  0.3056  0.1976  0.8047
 2542TIP3    H129041   1.358   2.624  15.025 -0.3146 -1.3552 -0.3829
 2542TIP3    H229042   1.446   2.615  15.148  0.7625  1.5330 -0.8517
 2543TIP3   OH229043   0.674   4.407   2.876 -0.3171  0.8706 -0.6102
 2543TIP3    H129044   0.732   4.342   2.918 -0.6251 -1.0876 -2.9694
 2543TIP3    H229045   0.586   4.370   2.886 -0.5272  1.0248 -1.7239
 2544TIP3   OH229046   6.380   3.952   5.844 -0.0216 -0.2765  0.0102
 2544TIP3    H129047   6.357   3.942   5.752 -1.3392 -0.6588  0.3537
 2544TIP3    H229048   6.346   4.038   5.869 -1.2656 -0.8963  0.5555
 2545TIP3   OH229049   0.502   1.753   1.592  0.0213 -0.1100  0.3295
 2545TIP3    H129050   0.585   1.784   1.556 -0.5693  2.6293  1.1047
 2545TIP3    H229051   0.436   1.810   1.552 -1.3003 -1.0584  1.0987
 2546TIP3   OH229052   5.212   5.709   2.381 -0.0986  0.5907 -0.0725
 2546TIP3    H129053   5.261   5.649   2.438 -1.7467  0.1498  0.9387
 2546TIP3    H229054   5.238   5.683   2.292 -0.5702 -1.5134  0.3407
 2547TIP3   OH229055   2.729   4.666   0.023 -0.0142  0.5026 -0.3220
 2547TIP3    H129056   2.823   4.672   0.010 -0.0248  2.6674  0.3342
 2547TIP3    H229057   2.691   4.708  -0.054 -0.4825 -0.4280 -0.6234
 2548TIP3   OH229058   3.962   4.667   0.341  0.4470  0.1118 -0.5016
 2548TIP3    H129059   4.005   4.613   0.408 -0.0704 -0.5975 -0.7245
 2548TIP3    H229060   4.032   4.720   0.304  1.0467 -0.6800 -0.5261
 2549TIP3   OH229061   4.450   3.774  12.757 -0.0733 -0.0642 -0.0527
 2549TIP3    H129062   4.402   3.803  12.835 -0.7252  1.1169 -0.8569
 2549TIP3    H229063   4.383   3.732  12.703 -0.4524  2.1765 -1.4767
 2550TIP3   OH229064   4.299   0.785   4.532 -0.1220 -0.2608 -0.0870
 2550TIP3    H129065   4.352   0.775   4.453 -0.0255  0.8455 -0.1786
 2550TIP3    H229066   4.221   0.732   4.516  1.7636 -3.6588  0.8801
 2551TIP3   OH229067   0.420   0.547  12.074 -0.3519  0.4141  0.8613
 2551TIP3    H129068   0.513   0.539  12.052 -0.7607 -0.4327 -0.6908
 2551TIP3    H229069   0.380   0.584  11.995 -1.4868 -0.2073  1.1260
 2552TIP3   OH229070   3.942   3.143  13.918 -0.2626 -0.4957  0.4072
 2552TIP3    H129071   4.008   3.094  13.966  0.0077  1.6242  2.4007
 2552TIP3    H229072   3.890   3.077  13.873  1.6017 -2.3854  0.8915
 2553TIP3   OH229073   6.751   2.777  15.731 -0.7481 -0.4464 -0.4260
 2553TIP3    H129074   6.789   2.694  15.757 -0.0922  0.0735  0.3178
 2553TIP3    H229075   6.826   2.837  15.726 -1.5639  1.0821  2.9205
 2554TIP3   OH229076   4.911   1.044   5.967  0.1406 -0.1084  0.3770
 2554TIP3    H129077   4.930   1.046   6.061 -1.9989 -0.8390  0.8922
 2554TIP3    H229078   4.964   0.971   5.934  1.2260  0.4132  0.9217
 2555TIP3   OH229079   0.312   3.189   0.907  0.2806 -0.1343 -1.2545
 2555TIP3    H129080   0.243   3.203   0.841 -1.8997 -2.0792  0.4267
 2555TIP3    H229081   0.361   3.113   0.875  1.0011  0.6011 -1.9326
 2556TIP3   OH229082   4.365   3.322   3.185  0.2263  0.0689 -0.4838
 2556TIP3    H129083   4.324   3.243   3.152  0.2812 -0.9953  1.8079
 2556TIP3    H229084   4.295   3.388   3.184 -1.4715 -1.4465  2.4280
 2557TIP3   OH229085   5.456   6.018   1.368 -0.3387  0.2820 -0.1665
 2557TIP3    H129086   5.431   5.986   1.282 -1.6580 -0.8304  0.5951
 2557TIP3    H229087   5.373   6.028   1.415  0.4457 -1.1281  1.6403
 2558TIP3   OH229088   3.599   6.319   5.327  0.1829  0.4429 -0.2256
 2558TIP3    H129089   3.615   6.243   5.271 -1.3596 -0.5110  0.5710
 2558TIP3    H229090   3.589   6.283   5.415 -1.0065  1.5062  0.1024
 2559TIP3   OH229091   0.330   3.128  13.582 -0.6016  0.2031 -0.3438
 2559TIP3    H129092   0.341   3.208  13.633 -0.1825 -0.7441  1.1202
 2559TIP3    H229093   0.242   3.097  13.607 -0.8659  0.3355 -1.1016
 2560TIP3   OH229094   6.003   6.148  15.158  0.1378 -0.7365 -0.3931
 2560TIP3    H129095   6.054   6.127  15.236 -0.5928  0.5821  0.4629
 2560TIP3    H229096   6.060   6.123  15.085  2.2687  1.1559  0.5129
 2561TIP3   OH229097   2.071   5.022  14.965 -0.4319  0.1220 -0.0570
 2561TIP3    H129098   2.086   5.042  15.058 -0.3387 -0.1714 -0.0055
 2561TIP3    H229099   2.051   5.106  14.925 -2.7945 -0.0197  0.6668
 2562TIP3   OH229100   2.046   4.094   6.211  0.4386  1.0506 -0.5360
 2562TIP3    H129101   1.980   4.058   6.152 -0.7095 -0.4096  1.4938
 2562TIP3    H229102   2.004   4.170   6.251 -0.7371 -0.7817  1.9183
 2563TIP3   OH229103   5.809   0.436   5.313  0.4646 -0.1980 -0.3801
 2563TIP3    H129104   5.885   0.418   5.257  0.9909 -0.3826  0.3755
 2563TIP3    H229105   5.773   0.349   5.331  1.7079 -0.3890  1.4789
 2564TIP3   OH229106   0.095   6.582   0.560 -0.0352  0.7611 -0.9253
 2564TIP3    H129107   0.039   6.505   0.567  0.6362  0.2535 -0.9294
 2564TIP3    H229108   0.075   6.633   0.638  1.3976 -0.7466  0.5252
 2565TIP3   OH229109   1.897   5.472   4.119 -0.1406 -0.3830  0.2584
 2565TIP3    H129110   1.841   5.548   4.137  0.5336  0.1464  0.1912
 2565TIP3    H229111   1.986   5.507   4.125  0.1597 -0.8996 -0.9724
 2566TIP3   OH229112   2.924   5.609   2.016  0.7268  0.1174  0.2740
 2566TIP3    H129113   2.867   5.557   1.958 -0.1245 -0.0283  1.2179
 2566TIP3    H229114   2.875   5.690   2.030  1.4120  0.5935 -0.0429
 2567TIP3   OH229115   3.935   6.726  12.012  0.0396 -0.3657 -0.3566
 2567TIP3    H129116   3.844   6.750  12.024  0.0850  0.0106 -0.7433
 2567TIP3    H229117   3.978   6.750  12.094 -0.0495  0.2443 -0.4806
 2568TIP3   OH229118   3.983   3.291  13.371 -0.3783  0.2467  0.0383
 2568TIP3    H129119   4.028   3.217  13.331  0.6069 -0.0903  1.6696
 2568TIP3    H229120   4.017   3.295  13.460 -2.2124  1.1742  0.7601
 2569TIP3   OH229121   4.675   2.616   5.079  0.1019  0.0115  0.0780
 2569TIP3    H129122   4.698   2.699   5.037 -1.1354  0.0110 -0.6659
 2569TIP3    H229123   4.580   2.619   5.086 -0.0849 -1.8462 -1.0717
 2570TIP3   OH229124   4.012   2.375   0.857  0.1124 -0.2584  0.6213
 2570TIP3    H129125   4.074   2.393   0.927 -1.3469  4.2253  1.0478
 2570TIP3    H229126   3.926   2.396   0.894 -1.1855 -1.5278 -1.4125
 2571TIP3   OH229127   4.726   1.304   3.334 -0.0050  0.3822  0.1331
 2571TIP3    H129128   4.689   1.392   3.326  0.1348  0.5535  1.1512
 2571TIP3    H229129   4.790   1.297   3.263  0.8735  1.5734  0.7713
 2572TIP3   OH229130   2.424   4.177  12.154 -0.1139  0.6617 -0.1468
 2572TIP3    H129131   2.333   4.149  12.161  0.3672 -0.9269  0.3004
 2572TIP3    H229132   2.474   4.095  12.155  1.4567  1.5338  1.9043
 2573TIP3   OH229133   2.848   3.351   0.024 -0.1745  0.4419  0.3226
 2573TIP3    H129134   2.760   3.316   0.013 -0.1006  0.5221 -0.5674
 2573TIP3    H229135   2.889   3.341  -0.062  0.4718  0.9782  0.5596
 2574TIP3   OH229136   0.709   1.206  15.435  0.3999 -0.0467 -0.3036
 2574TIP3    H129137   0.799   1.233  15.448  0.2230  0.2371  0.3448
 2574TIP3    H229138   0.660   1.250  15.504 -0.0350 -1.2630  0.1963
 2575TIP3   OH229139   6.103   3.827  12.739 -0.6751  1.1400  0.5088
 2575TIP3    H129140   6.086   3.783  12.656  0.1758 -0.8800  1.3387
 2575TIP3    H229141   6.041   3.900  12.741 -1.6750  0.3896 -1.2569
 2576TIP3   OH229142   4.676   2.630   2.268  0.0399  0.2694 -0.3943
 2576TIP3    H129143   4.770   2.644   2.279 -0.1677  1.4379  0.0611
 2576TIP3    H229144   4.645   2.710   2.223 -0.6662 -0.2835 -0.9236
 2577TIP3   OH229145   6.661   1.730   4.847 -0.8101 -0.5150 -0.0914
 2577TIP3    H129146   6.577   1.744   4.890 -0.7394  2.2058 -0.6627
 2577TIP3    H229147   6.719   1.697   4.916 -1.4467  1.0124  1.2161
 2578TIP3   OH229148   3.685   0.282   5.014 -0.3112 -0.3630  0.0718
 2578TIP3    H129149   3.770   0.243   4.995 -0.3133 -1.7094  2.4333
 2578TIP3    H229150   3.705   0.359   5.068 -0.5096  0.9136 -1.5851
 2579TIP3   OH229151   0.807   0.506  14.221 -0.4063 -0.7547  0.0591
 2579TIP3    H129152   0.844   0.594  14.230  1.9552 -1.5449 -1.0286
 2579TIP3    H229153   0.780   0.501  14.129  1.0216 -1.6772 -0.3311
 2580TIP3   OH229154   0.113   2.832   4.764  0.6417 -0.2037 -0.4207
 2580TIP3    H129155   0.054   2.759   4.781  0.1042  0.2709 -0.2078
 2580TIP3    H229156   0.192   2.812   4.815  0.7717 -0.9616 -0.8991
 2581TIP3   OH229157   6.270   5.686   6.241  0.0070  0.6091  0.3079
 2581TIP3    H129158   6.238   5.702   6.152  1.1739  1.0930 -0.0367
 2581TIP3    H229159   6.202   5.632   6.281 -0.0183 -0.5515 -1.2204
 2582TIP3   OH229160   3.503   0.217   4.180 -0.6921 -0.3864  0.4698
 2582TIP3    H129161   3.461   0.131   4.186  0.4710 -0.8976  1.6715
 2582TIP3    H229162   3.527   0.225   4.087 -1.5939 -0.9548  0.1703
 2583TIP3   OH229163   2.070   3.613  14.808  0.2912  0.0126 -0.4130
 2583TIP3    H129164   1.977   3.611  14.831  0.1570 -2.1020 -0.9589
 2583TIP3    H229165   2.088   3.526  14.772  2.6372  0.1597  0.2374
 2584TIP3   OH229166   2.381   5.211  14.817 -0.9618  0.1112  0.4586
 2584TIP3    H129167   2.376   5.126  14.773  0.8673  0.3318 -0.2827
 2584TIP3    H229168   2.404   5.272  14.747  1.0500  0.6462  1.5156
 2585TIP3   OH229169   4.080   0.055  13.221  0.3628 -0.0521 -0.2565
 2585TIP3    H129170   4.088   0.044  13.315 -0.2456 -0.6262 -0.2691
 2585TIP3    H229171   4.153   0.113  13.197 -0.2800  1.2302  0.7540
 2586TIP3   OH229172   4.148   3.020  14.016  0.0970 -0.4227  0.1492
 2586TIP3    H129173   4.210   3.037  13.945  1.4571  0.2501  1.4427
 2586TIP3    H229174   4.160   2.928  14.037 -0.8779 -0.8315 -0.9782
 2587TIP3   OH229175   0.302   3.689   2.745  0.0424  0.0565 -0.2799
 2587TIP3    H129176   0.234   3.728   2.691  1.9269  0.7442 -2.2918
 2587TIP3    H229177   0.364   3.760   2.762  0.2032 -0.4901  1.6706
 2588TIP3   OH229178   5.586   2.170  12.361 -0.2378  0.9536 -0.0272
 2588TIP3    H129179   5.547   2.138  12.280 -0.9998  0.9174  0.3492
 2588TIP3    H229180   5.675   2.135  12.360 -0.7381 -0.3775 -0.0903
 2589TIP3   OH229181   0.599   5.967  14.458 -0.2006 -0.1965 -0.1855
 2589TIP3    H129182   0.686   5.928  14.465  0.1844  0.6987  0.1211
 2589TIP3    H229183   0.600   6.039  14.521 -1.7350 -1.2091  1.0899
 2590TIP3   OH229184   3.684   3.190  13.296 -0.1017 -0.7285  0.0233
 2590TIP3    H129185   3.734   3.156  13.370  0.2764  0.3742  0.2959
 2590TIP3    H229186   3.605   3.136  13.293  0.5524 -1.7184  0.3269
 2591TIP3   OH229187   6.051   1.874  14.790  0.1916 -0.0296 -0.0227
 2591TIP3    H129188   6.046   1.842  14.880 -1.0600 -0.4862 -0.2340
 2591TIP3    H229189   5.960   1.890  14.765  0.6284  1.6905 -0.6608
 2592TIP3   OH229190   2.021   3.010   5.653 -0.9613 -0.2689 -0.3853
 2592TIP3    H129191   2.031   3.088   5.708 -2.5099  0.4200 -1.0280
 2592TIP3    H229192   2.080   2.945   5.692 -0.1999  0.9747  0.6068
 2593TIP3   OH229193   4.551   6.672   2.184 -0.3380  0.2052  0.5162
 2593TIP3    H129194   4.551   6.767   2.172 -1.7002  0.3735  1.4831
 2593TIP3    H229195   4.483   6.657   2.250 -1.5997 -1.6087 -1.0801
 2594TIP3   OH229196   5.412   3.510   3.402 -0.0150  0.0511  0.4291
 2594TIP3    H129197   5.468   3.439   3.371 -0.5440  0.4694 -1.6475
 2594TIP3    H229198   5.362   3.472   3.474 -1.4360 -2.2408 -1.6076
 2595TIP3   OH229199   4.225   6.184  15.532  0.2714  0.0309 -0.6454
 2595TIP3    H129200   4.214   6.159  15.623 -0.3444 -1.1532 -1.0246
 2595TIP3    H229201   4.243   6.278  15.534 -2.9306  0.7313  0.4891
 2596TIP3   OH229202   1.273   2.490   1.617 -0.0887 -0.7887 -0.7043
 2596TIP3    H129203   1.214   2.560   1.648 -0.3963 -1.9164  1.4448
 2596TIP3    H229204   1.359   2.532   1.612 -0.2596 -0.2080  0.5762
 2597TIP3   OH229205   3.627   4.014   1.212 -0.0063 -0.4055 -0.1941
 2597TIP3    H129206   3.564   4.086   1.222  0.0314 -0.3565 -0.3066
 2597TIP3    H229207   3.573   3.936   1.198 -0.0432 -0.3679 -0.2630
 2598TIP3   OH229208   6.322   2.298  14.247 -0.2046  0.4159 -0.1007
 2598TIP3    H129209   6.369   2.292  14.330  0.2417  2.4583 -0.1313
 2598TIP3    H229210   6.329   2.391  14.223 -2.2886  0.3313 -1.2776
 2599TIP3   OH229211   5.809   0.828  15.361  0.2674 -1.1686  0.1707
 2599TIP3    H129212   5.776   0.764  15.298 -0.7711 -2.6721  2.1348
 2599TIP3    H229213   5.731   0.873  15.393  1.0739  2.5568 -2.4687
 2600TIP3   OH229214   4.025   1.477  15.751 -0.2457  0.2082  0.1425
 2600TIP3    H129215   3.956   1.542  15.763 -0.1729  0.3147 -0.0068
 2600TIP3    H229216   4.016   1.449  15.660  1.3470  1.9081 -0.6034
 2601TIP3   OH229217   1.689   4.608   2.287 -0.0698 -0.0217 -0.0949
 2601TIP3    H129218   1.740   4.547   2.234 -0.1026  0.2544 -0.4497
 2601TIP3    H229219   1.686   4.688   2.234 -1.2638 -0.1785 -0.2962
 2602TIP3   OH229220   1.883   3.831  13.497 -0.2612  0.1013 -0.2488
 2602TIP3    H129221   1.975   3.857  13.498 -0.8179  2.2764 -1.0606
 2602TIP3    H229222   1.866   3.803  13.407  0.0441 -2.2610  0.3521
 2603TIP3   OH229223   5.727   6.181  15.834  0.1438  0.3067 -0.1483
 2603TIP3    H129224   5.774   6.258  15.868  1.6465 -0.3131 -0.7298
 2603TIP3    H229225   5.727   6.193  15.739 -2.1743  0.9768 -0.1283
 2604TIP3   OH229226   4.989   0.984   0.862 -0.0096  0.1817  0.5474
 2604TIP3    H129227   4.953   0.911   0.812  1.9845 -2.0475  2.1783
 2604TIP3    H229228   5.003   1.053   0.797 -0.3221 -1.4818 -1.3790
 2605TIP3   OH229229   3.651   1.222   1.071  0.3292  0.1525 -0.0099
 2605TIP3    H129230   3.610   1.170   1.139 -0.8249  0.6420 -0.2958
 2605TIP3    H229231   3.581   1.238   1.008  1.2778  0.0114 -1.1379
 2606TIP3   OH229232   4.880   2.329  11.371 -0.8888 -0.4385  0.4004
 2606TIP3    H129233   4.864   2.382  11.293  0.0640 -1.4714 -0.5285
 2606TIP3    H229234   4.934   2.385  11.427 -1.5837  0.3131  0.3431
 2607TIP3   OH229235   6.557   0.954   6.274  0.2510  0.4872 -0.1700
 2607TIP3    H129236   6.580   1.041   6.307 -1.2286  1.1971 -0.9044
 2607TIP3    H229237   6.513   0.912   6.349 -1.3748  1.3825 -0.5631
 2608TIP3   OH229238   5.282   2.445   2.242 -0.0335  0.6489  0.2342
 2608TIP3    H129239   5.331   2.523   2.215 -0.1116  0.3109 -0.9355
 2608TIP3    H229240   5.281   2.389   2.165 -0.2935 -0.3638  0.9530
 2609TIP3   OH229241   0.406   5.913  13.011  0.4136 -0.0744  0.2628
 2609TIP3    H129242   0.335   5.977  13.022  1.3943  1.2650 -0.8615
 2609TIP3    H229243   0.383   5.864  12.932  0.0238 -0.6451  0.7220
 2610TIP3   OH229244   4.045   3.233   6.676  0.4053  0.1879  0.1340
 2610TIP3    H129245   3.974   3.182   6.635  0.4172 -0.1185  0.4955
 2610TIP3    H229246   4.112   3.238   6.608  1.0258 -1.5377  0.5650
 2611TIP3   OH229247   1.048   3.425  14.242  0.3649 -0.4135  0.4032
 2611TIP3    H129248   0.981   3.432  14.310  0.2408 -0.3563  0.2764
 2611TIP3    H229249   1.001   3.390  14.166 -0.0169  1.5476 -0.3385
 2612TIP3   OH229250   3.117   5.723   5.752  0.3128  0.3665 -0.7630
 2612TIP3    H129251   3.167   5.764   5.822 -0.2099  0.3242 -0.3598
 2612TIP3    H229252   3.035   5.771   5.750  0.2564  0.2531 -1.2325
 2613TIP3   OH229253   6.390   4.304  15.081 -0.4096 -0.0393  0.5101
 2613TIP3    H129254   6.451   4.338  15.146 -0.1016  0.0278  0.1891
 2613TIP3    H229255   6.332   4.245  15.130 -0.4152  0.2977  0.9100
 2614TIP3   OH229256   4.454   0.772   6.640  0.4843 -0.1363 -0.0575
 2614TIP3    H129257   4.404   0.768   6.559  1.5525  1.7848 -0.8884
 2614TIP3    H229258   4.538   0.811   6.615  1.9163 -2.0264  1.5103
 2615TIP3   OH229259   0.766   5.272   3.453 -0.0283  0.1606  0.4951
 2615TIP3    H129260   0.719   5.272   3.536 -1.3690  0.9196 -0.2358
 2615TIP3    H229261   0.775   5.364   3.429 -0.3025 -0.0695 -0.5499
 2616TIP3   OH229262   6.594   6.728  13.031 -0.5006 -0.1702  0.6650
 2616TIP3    H129263   6.629   6.640  13.041 -1.4797 -0.3753  2.9289
 2616TIP3    H229264   6.632   6.778  13.103  0.8588  1.5972 -1.1736
 2617TIP3   OH229265   0.428   0.802  11.955  1.4693  0.2872 -0.1846
 2617TIP3    H129266   0.366   0.847  12.012  1.7742  0.9382 -0.3494
 2617TIP3    H229267   0.451   0.722  12.003  1.6295  0.7636  0.5563
 2618TIP3   OH229268   5.819   1.047   1.080  0.0229  0.6412 -0.0627
 2618TIP3    H129269   5.907   1.056   1.116  0.5709  0.4501 -1.2985
 2618TIP3    H229270   5.773   1.126   1.108  0.6620  0.8661  0.3788
 2619TIP3   OH229271   3.446   2.257  15.616 -0.3719  0.3326  0.3057
 2619TIP3    H129272   3.440   2.342  15.660 -1.5402  0.2373  0.3485
 2619TIP3    H229273   3.386   2.264  15.542 -1.4897 -0.8910  1.0511
 2620TIP3   OH229274   1.097   4.140   2.827  0.4172 -0.5589  0.1813
 2620TIP3    H129275   1.142   4.055   2.831  0.1394 -0.6614  1.5385
 2620TIP3    H229276   1.065   4.145   2.737  1.1565 -1.5146 -0.1590
 2621TIP3   OH229277   3.056   6.194   1.769 -0.2971 -0.2584  0.1082
 2621TIP3    H129278   2.963   6.204   1.747 -0.6902 -0.9044  1.3344
 2621TIP3    H229279   3.074   6.102   1.754 -0.5192 -0.6747  2.0539
 2622TIP3   OH229280   4.039   5.280   5.877 -0.3540  0.5484  0.0648
 2622TIP3    H129281   4.050   5.301   5.784 -0.2052 -1.7461 -0.4983
 2622TIP3    H229282   3.966   5.335   5.905 -0.6977  0.9633 -1.5165
 2623TIP3   OH229283   3.206   3.029   5.935 -0.8357  0.0059  0.2539
 2623TIP3    H129284   3.166   2.983   5.862  1.7134  0.8460 -1.8361
 2623TIP3    H229285   3.219   3.118   5.903  1.5395  0.0590  1.1873
 2624TIP3   OH229286   1.995   2.300   4.915  0.2607 -0.5427  0.3225
 2624TIP3    H129287   1.903   2.300   4.890  0.1042  1.3132  0.7163
 2624TIP3    H229288   1.994   2.292   5.010  0.5952 -1.9874  0.2216
 2625TIP3   OH229289   4.789   1.657   3.823 -0.4782 -0.1090  0.2199
 2625TIP3    H129290   4.877   1.688   3.802 -1.1759  0.8539 -1.5005
 2625TIP3    H229291   4.736   1.737   3.829 -1.1404 -0.6267  1.9036
 2626TIP3   OH229292   2.656   1.515   1.643 -0.5400  0.5169 -0.0997
 2626TIP3    H129293   2.610   1.554   1.717 -0.4222  0.6288 -0.0867
 2626TIP3    H229294   2.740   1.560   1.640 -0.3854  0.2331 -0.0537
 2627TIP3   OH229295   0.541   3.491   1.416 -0.6145 -0.4299 -0.5433
 2627TIP3    H129296   0.469   3.527   1.468  0.5256 -0.8447  1.4398
 2627TIP3    H229297   0.550   3.401   1.446 -1.3097 -1.4429 -3.1007
 2628TIP3   OH229298   4.522   4.003  13.783 -0.4158 -0.0979 -0.0364
 2628TIP3    H129299   4.506   4.061  13.708  0.8039  1.3634  0.7851
 2628TIP3    H229300   4.617   3.994  13.786 -0.4253  0.1400  1.5418
 2629TIP3   OH229301   4.232   3.290   1.819  0.0062  0.1873 -0.2494
 2629TIP3    H129302   4.273   3.276   1.733  0.1287 -3.6321  0.2733
 2629TIP3    H229303   4.138   3.289   1.802  0.0336  0.4316 -0.4266
 2630TIP3   OH229304   4.319   1.057  12.279  0.0922 -0.2457  0.7276
 2630TIP3    H129305   4.386   0.993  12.254  1.2797  1.2828 -0.1391
 2630TIP3    H229306   4.326   1.126  12.213 -0.4592  1.2857  2.2134
 2631TIP3   OH229307   5.175   4.196   4.496  0.3997 -0.1050 -0.4916
 2631TIP3    H129308   5.215   4.207   4.410  0.5578  1.1069 -0.2781
 2631TIP3    H229309   5.084   4.224   4.483 -0.2616 -2.2464 -0.8262
 2632TIP3   OH229310   4.481   1.808   1.239  0.0441 -0.3927 -0.0563
 2632TIP3    H129311   4.532   1.743   1.191 -0.6047 -1.9331  1.2388
 2632TIP3    H229312   4.466   1.878   1.176  0.9986 -1.3610 -1.4263
 2633TIP3   OH229313   4.632   2.226  14.768  0.0264  0.1950  0.0667
 2633TIP3    H129314   4.710   2.255  14.722 -1.1287  3.6185  0.0177
 2633TIP3    H229315   4.651   2.240  14.860 -0.3385  0.5451  0.0910
 2634TIP3   OH229316   2.060   1.454  17.227  0.8147 -0.0919 -0.0180
 2634TIP3    H129317   2.132   1.403  17.189  0.5873 -0.6096  0.2386
 2634TIP3    H229318   2.016   1.393  17.285 -0.3542 -0.0198 -0.8080
 2635TIP3   OH229319   3.971   2.571  16.306 -0.5631  0.4303  0.0501
 2635TIP3    H129320   3.989   2.612  16.391  0.3465  0.6584 -0.2351
 2635TIP3    H229321   3.949   2.480  16.327  0.0577  0.3757  0.5103
 2636TIP3   OH229322   6.265   0.069  16.794  0.2896  0.1133  0.4244
 2636TIP3    H129323   6.171   0.081  16.810  0.2259  0.2592 -0.0389
 2636TIP3    H229324   6.269  -0.003  16.731  0.4237  0.8043 -0.3786
 2637TIP3   OH229325   3.000   3.154   4.644  0.0210 -0.0970 -0.2792
 2637TIP3    H129326   3.031   3.111   4.723 -0.2968  0.4153  0.1302
 2637TIP3    H229327   2.974   3.083   4.586  0.4519 -0.4811 -0.0079
 2638TIP3   OH229328   2.936   1.364   1.872 -0.0947 -0.7048  0.4376
 2638TIP3    H129329   2.910   1.428   1.939  0.4844  0.4734 -0.4179
 2638TIP3    H229330   2.963   1.287   1.922 -2.0706 -0.7976  1.4571
 2639TIP3   OH229331   1.567   1.828  16.013 -0.0369  0.4204 -0.5664
 2639TIP3    H129332   1.475   1.854  16.008  0.6013  2.7285 -1.1731
 2639TIP3    H229333   1.594   1.852  16.102 -0.3991 -1.8195  0.2133
 2640TIP3   OH229334   0.534   6.606   4.384 -1.0605 -0.9154 -0.3264
 2640TIP3    H129335   0.487   6.528   4.355 -0.9630 -1.3999  0.7700
 2640TIP3    H229336   0.471   6.677   4.377 -1.5333 -1.3168 -0.1745
 2641TIP3   OH229337   5.786   4.152   2.044  0.3480  0.0135  0.3322
 2641TIP3    H129338   5.752   4.133   1.957  0.2492 -1.2544  0.6361
 2641TIP3    H229339   5.819   4.242   2.038  0.6819 -0.1912 -1.1081
 2642TIP3   OH229340   4.243   2.578   0.026  0.0059  0.3958 -0.1808
 2642TIP3    H129341   4.216   2.515   0.092  0.8588 -1.3187 -1.3902
 2642TIP3    H229342   4.260   2.659   0.074  2.4336 -1.2777  1.9959
 2643TIP3   OH229343   1.172   0.156  12.981  0.4203 -0.0067 -0.0419
 2643TIP3    H129344   1.195   0.100  13.056 -0.9643 -0.9386 -0.2736
 2643TIP3    H229345   1.082   0.184  12.998 -0.6444 -1.7580 -2.1658
 2644TIP3   OH229346   5.847   4.603   4.934 -0.1466  0.1111 -0.4760
 2644TIP3    H129347   5.803   4.520   4.952  0.4273 -0.4295 -1.4497
 2644TIP3    H229348   5.930   4.578   4.894  0.3409  1.1488 -0.1496
 2645TIP3   OH229349   0.087   6.640  15.558 -0.3115 -0.6333 -0.5003
 2645TIP3    H129350   0.107   6.619  15.467  1.2337  1.4686 -0.7379
 2645TIP3    H229351  -0.000   6.679  15.556 -0.6243 -1.3370 -0.9290
 2646TIP3   OH229352   0.582   4.607   2.681  0.9861 -0.1312 -0.2864
 2646TIP3    H129353   0.576   4.669   2.754  1.7177 -0.9754  0.5052
 2646TIP3    H229354   0.606   4.524   2.722 -1.1774 -1.2624 -1.1872
 2647TIP3   OH229355   3.553   1.163  15.578  0.4016 -0.2803 -0.4041
 2647TIP3    H129356   3.509   1.135  15.498  1.8417  2.7234 -2.4279
 2647TIP3    H229357   3.500   1.236  15.611  0.2842 -0.9442  0.9693
 2648TIP3   OH229358   1.016   3.397  16.213 -0.6271  0.0181 -0.3140
 2648TIP3    H129359   1.009   3.482  16.169  1.0320 -0.6005 -1.8766
 2648TIP3    H229360   1.094   3.405  16.268 -0.1149 -0.6680 -0.9279
 2649TIP3   OH229361   6.177   0.215   5.051 -1.0014 -0.2941  0.6413
 2649TIP3    H129362   6.169   0.182   5.140 -3.0072 -1.9633 -0.0651
 2649TIP3    H229363   6.087   0.216   5.018 -0.1140 -3.1604 -2.4802
 2650TIP3   OH229364   5.075   3.850  14.678 -0.2148  0.5585  0.1060
 2650TIP3    H129365   5.139   3.888  14.618 -0.8130  3.0433  0.9577
 2650TIP3    H229366   5.103   3.877  14.765 -0.8379 -0.7673  0.7607
 2651TIP3   OH229367   1.604   5.560   5.254 -0.6456  0.1731  0.1712
 2651TIP3    H129368   1.668   5.530   5.318 -1.1112 -2.5046 -0.5103
 2651TIP3    H229369   1.640   5.534   5.169 -1.6835  0.4621 -0.3818
 2652TIP3   OH229370   5.439   0.499   3.280 -0.3317  0.4128  0.1510
 2652TIP3    H129371   5.517   0.485   3.227  0.8063  2.0555  1.2871
 2652TIP3    H229372   5.421   0.414   3.320  0.3104 -0.2114 -0.8412
 2653TIP3   OH229373   6.021   0.876   5.949  0.1385  0.4797 -0.0559
 2653TIP3    H129374   5.963   0.801   5.953 -0.9507  1.3193  0.5689
 2653TIP3    H229375   6.032   0.893   5.855  1.6625 -1.3645 -0.2551
 2654TIP3   OH229376   5.715   3.652   4.771 -0.2067 -0.5469  0.1786
 2654TIP3    H129377   5.787   3.589   4.778  0.9603  0.6693 -0.3289
 2654TIP3    H229378   5.653   3.612   4.710  0.7489 -1.0085 -0.5072
 2655TIP3   OH229379   3.159   6.422   3.855 -0.0880  0.0650  0.0107
 2655TIP3    H129380   3.204   6.351   3.901 -1.8746 -0.7152  0.6274
 2655TIP3    H229381   3.114   6.378   3.783  0.4146  0.8890 -0.8289
 2656TIP3   OH229382   0.440   5.876   2.398  0.3045 -0.1440 -0.1685
 2656TIP3    H129383   0.436   5.944   2.331 -1.0576  0.3195  0.3552
 2656TIP3    H229384   0.502   5.909   2.463  1.4088 -0.4682 -1.0316
 2657TIP3   OH229385   1.850   1.210   0.962 -0.0178  0.0681 -0.2420
 2657TIP3    H129386   1.934   1.255   0.959 -0.1650  0.2876 -2.1728
 2657TIP3    H229387   1.867   1.131   1.014  1.4115  0.0705 -0.6638
 2658TIP3   OH229388   2.195   4.077  14.811  0.3377 -0.1312 -0.0717
 2658TIP3    H129389   2.255   4.042  14.745 -0.5164 -3.9792  0.9195
 2658TIP3    H229390   2.249   4.135  14.864  2.0274 -0.0693 -1.7390
 2659TIP3   OH229391   3.543   4.789   5.236 -0.5173  0.0043  0.9004
 2659TIP3    H129392   3.564   4.778   5.143  0.2866  1.1866  0.9148
 2659TIP3    H229393   3.596   4.723   5.281 -1.6996 -1.2844  0.4705
 2660TIP3   OH229394   1.124   4.712   2.389 -0.6562 -0.1505  0.5650
 2660TIP3    H129395   1.138   4.798   2.349  0.1713 -0.7611 -0.5000
 2660TIP3    H229396   1.037   4.717   2.427 -0.9619  0.8782 -0.2285
 2661TIP3   OH229397   0.278   6.493   2.566 -0.2859 -0.9877 -0.3188
 2661TIP3    H129398   0.357   6.535   2.533 -0.9686  0.2351 -0.4387
 2661TIP3    H229399   0.225   6.477   2.488 -1.0919  0.2122 -0.0505
 2662TIP3   OH229400   3.680   1.707  15.264 -0.1339 -0.2614 -0.2294
 2662TIP3    H129401   3.657   1.786  15.313 -0.5566 -0.3949 -0.2160
 2662TIP3    H229402   3.776   1.705  15.267 -0.1647 -0.9426  1.6415
 2663TIP3   OH229403   4.343   3.134   4.882 -0.0298 -0.2167 -0.0037
 2663TIP3    H129404   4.383   3.216   4.910 -0.7082 -0.0672  0.5732
 2663TIP3    H229405   4.258   3.159   4.845 -0.4908 -0.6906  0.6957
 2664TIP3   OH229406   0.103   3.070   4.404  0.7416  0.3365  0.1650
 2664TIP3    H129407   0.083   3.096   4.494  0.8209  0.1823  0.2274
 2664TIP3    H229408   0.199   3.062   4.402  0.7614  0.5913 -0.0011
 2665TIP3   OH229409   2.791   5.195  14.489 -0.5495 -0.2945 -0.2675
 2665TIP3    H129410   2.695   5.195  14.490 -0.5589 -0.2555 -1.0358
 2665TIP3    H229411   2.815   5.131  14.556 -1.0806  1.3145  1.5865
 2666TIP3   OH229412   3.672   1.360  10.762  0.8508 -0.2399  0.1663
 2666TIP3    H129413   3.744   1.333  10.705  0.8005 -0.8535  0.3897
 2666TIP3    H229414   3.616   1.283  10.768 -0.2538  0.4608 -0.6383
 2667TIP3   OH229415   5.781   4.291   2.794  0.1017  0.5111  0.1386
 2667TIP3    H129416   5.718   4.257   2.730 -0.1184 -2.1704  1.6416
 2667TIP3    H229417   5.730   4.302   2.874  1.1559  0.0500  0.8940
 2668TIP3   OH229418   2.744   0.429   1.980  0.0225 -0.6182 -0.9262
 2668TIP3    H129419   2.673   0.447   1.919  0.1712  1.3864 -0.5511
 2668TIP3    H229420   2.818   0.404   1.924  0.1617  1.2237 -1.6031
 2669TIP3   OH229421   5.201   0.167  12.388  0.1166  0.1497  0.0448
 2669TIP3    H129422   5.243   0.083  12.403  0.9615  0.4460 -0.5784
 2669TIP3    H229423   5.135   0.174  12.457  0.0656 -0.9945  0.1246
 2670TIP3   OH229424   1.253   1.062   0.306 -0.0503 -0.0180  0.1019
 2670TIP3    H129425   1.330   1.051   0.362 -1.0164  2.0281  2.0074
 2670TIP3    H229426   1.284   1.117   0.234  0.4666  0.0578  0.3721
 2671TIP3   OH229427   3.077   3.320  15.757 -0.1071  0.3108 -0.0309
 2671TIP3    H129428   3.155   3.326  15.813  0.3489  1.4620 -0.7427
 2671TIP3    H229429   3.031   3.242  15.788  1.2118 -0.2727  0.5659
 2672TIP3   OH229430   3.374   5.712   1.126  0.4624 -0.1901 -0.1239
 2672TIP3    H129431   3.342   5.638   1.179 -0.2767  0.0384 -0.2469
 2672TIP3    H229432   3.465   5.722   1.152 -0.2589  0.8794  2.2431
 2673TIP3   OH229433   2.518   2.093   5.649  0.0642 -0.4851 -0.2251
 2673TIP3    H129434   2.476   2.155   5.589  1.3692 -0.3319 -1.0137
 2673TIP3    H229435   2.549   2.023   5.593  0.6789 -0.6960  0.3654
 2674TIP3   OH229436   0.691   1.256  11.300 -0.5874  0.1866  0.7846
 2674TIP3    H129437   0.779   1.276  11.333 -0.7217  0.8679  0.7460
 2674TIP3    H229438   0.634   1.315  11.348 -1.2079 -1.2055  1.8125
 2675TIP3   OH229439   0.750   0.973   4.781  0.7875  0.0158 -0.4668
 2675TIP3    H129440   0.663   0.943   4.756  0.0776  0.3300  1.5016
 2675TIP3    H229441   0.801   0.969   4.699 -0.8132 -0.9833 -1.4653
 2676TIP3   OH229442   1.865   6.033  15.535 -0.5528 -0.3890 -0.6028
 2676TIP3    H129443   1.935   5.967  15.539  2.7930  2.8913  0.0550
 2676TIP3    H229444   1.865   6.063  15.444 -0.9922 -0.2514 -0.5592
 2677TIP3   OH229445   1.972   0.628   4.654  0.2151  0.0788 -0.4206
 2677TIP3    H129446   1.878   0.641   4.671  0.1277 -0.6993 -0.2894
 2677TIP3    H229447   1.979   0.536   4.629  0.9303  0.1690 -0.5579
 2678TIP3   OH229448   6.412   1.182  15.052 -0.6965  0.2242 -0.0011
 2678TIP3    H129449   6.405   1.272  15.082 -0.4375 -0.5522  2.6872
 2678TIP3    H229450   6.330   1.141  15.081  0.0804 -0.8658  0.7558
 2679TIP3   OH229451   5.040   3.242   6.762  0.1911 -0.0611  0.3204
 2679TIP3    H129452   5.113   3.180   6.753  0.7952  0.0410  3.4117
 2679TIP3    H229453   4.962   3.186   6.764  0.3927 -0.3871 -0.4051
 2680TIP3   OH229454   1.921   2.908   4.830  0.0670  0.0603  0.2643
 2680TIP3    H129455   1.896   2.920   4.921 -1.1122 -0.7236  0.0591
 2680TIP3    H229456   1.903   2.816   4.811  0.8321  0.0709 -0.5999
 2681TIP3   OH229457   2.433   1.978  11.788  0.5577 -0.3753  0.6249
 2681TIP3    H129458   2.491   1.960  11.862 -1.1689 -0.2364  2.0793
 2681TIP3    H229459   2.361   2.029  11.825 -0.3426 -0.2519 -1.1683
 2682TIP3   OH229460   3.924   6.187  16.020  0.1370 -0.1187 -0.3113
 2682TIP3    H129461   3.862   6.198  15.948 -3.3196  2.0531  2.6813
 2682TIP3    H229462   3.946   6.094  16.018  0.1002 -0.1944 -3.9522
 2683TIP3   OH229463   5.442   6.443   3.305  0.3791  0.4585 -0.2278
 2683TIP3    H129464   5.473   6.436   3.215  2.2418 -0.4520  0.4356
 2683TIP3    H229465   5.464   6.533   3.331 -2.0112  1.4408 -1.2467
 2684TIP3   OH229466   4.833   1.191  11.696 -0.4884 -0.2648 -0.3381
 2684TIP3    H129467   4.881   1.243  11.761 -1.4647  0.9558 -0.5515
 2684TIP3    H229468   4.900   1.163  11.634  0.8466 -3.1264  2.1242
 2685TIP3   OH229469   2.741   4.711  12.816  0.7534  0.3645 -0.4942
 2685TIP3    H129470   2.756   4.780  12.751  0.4383 -0.4692 -1.4853
 2685TIP3    H229471   2.796   4.735  12.890 -0.6209  2.5929 -0.1011
 2686TIP3   OH229472   6.205   0.083   3.635 -0.0493 -0.4457  0.4313
 2686TIP3    H129473   6.220  -0.011   3.643  2.9928 -0.0941  0.0425
 2686TIP3    H229474   6.192   0.098   3.542 -0.6032 -0.4849  0.5014
 2687TIP3   OH229475   0.127   5.814  16.214  0.1421 -0.2719 -0.1365
 2687TIP3    H129476   0.105   5.907  16.206 -0.2163 -0.4482 -1.3828
 2687TIP3    H229477   0.049   5.773  16.250 -0.4508 -0.3950 -1.5164
 2688TIP3   OH229478   1.256   0.340  13.956  0.3654  0.3771  0.0317
 2688TIP3    H129479   1.226   0.350  14.047  0.3389  0.3237  0.0291
 2688TIP3    H229480   1.324   0.406  13.946  0.9725 -0.1915  0.3522
 2689TIP3   OH229481   5.353   6.500  13.125  0.1230  0.1098  0.0199
 2689TIP3    H129482   5.402   6.537  13.199 -0.7319  0.2471  0.5356
 2689TIP3    H229483   5.281   6.452  13.166  0.7041 -1.4261 -0.6678
 2690TIP3   OH229484   3.262   6.313   0.234  0.1560 -0.3322 -0.0699
 2690TIP3    H129485   3.168   6.300   0.237  0.2216 -0.9924 -0.7526
 2690TIP3    H229486   3.296   6.240   0.182  1.0141  0.0388 -0.0607
 2691TIP3   OH229487   1.389   3.506   0.362  0.4116 -0.0990  0.2677
 2691TIP3    H129488   1.419   3.417   0.343  1.9284  0.3572  0.3663
 2691TIP3    H229489   1.470   3.558   0.366 -0.5462  1.7409 -2.0050
 2692TIP3   OH229490   0.854   2.128   0.135  0.4448  0.9743 -0.6658
 2692TIP3    H129491   0.896   2.042   0.132 -1.6216 -0.0656 -1.0043
 2692TIP3    H229492   0.761   2.110   0.142 -0.4004  3.1135 -4.0885
 2693TIP3   OH229493   3.542   2.090   4.086 -0.1196 -0.1205 -0.6044
 2693TIP3    H129494   3.500   2.100   4.171 -0.8198  0.0279 -0.9647
 2693TIP3    H229495   3.616   2.031   4.103  1.3923  2.0004  0.6575
 2694TIP3   OH229496   1.093   0.156  13.442 -0.4526 -0.0468  0.3624
 2694TIP3    H129497   1.136   0.115  13.516 -0.3845 -2.6259 -0.9816
 2694TIP3    H229498   0.999   0.146  13.460 -0.4501  0.5978  0.7424
 2695TIP3   OH229499   3.448   3.761  13.716 -0.5053  0.0580 -0.5258
 2695TIP3    H129500   3.484   3.678  13.746 -1.0922 -0.7846 -2.0361
 2695TIP3    H229501   3.353   3.750  13.725 -0.5458  1.1230  0.5929
 2696TIP3   OH229502   5.055   3.165   3.537  0.2368  0.0059 -0.0657
 2696TIP3    H129503   5.064   3.139   3.445 -1.2249 -0.4777 -0.0900
 2696TIP3    H229504   5.031   3.085   3.583 -2.9609  0.9127  0.0749
 2697TIP3   OH229505   6.568   2.626   5.650  0.1545 -0.5018 -0.7960
 2697TIP3    H129506   6.571   2.615   5.745  0.9339  0.5586 -0.6783
 2697TIP3    H229507   6.512   2.555   5.619  2.4389 -2.8762  0.1288
 2698TIP3   OH229508   6.316   0.512  15.436 -0.3615 -0.1279  0.0618
 2698TIP3    H129509   6.255   0.455  15.388 -0.2109  0.8041 -1.2780
 2698TIP3    H229510   6.265   0.591  15.454 -0.6279 -0.7002  2.0751
 2699TIP3   OH229511   1.830   0.552  12.633 -0.2597 -0.1948  0.2175
 2699TIP3    H129512   1.768   0.525  12.701  0.0986 -1.1817  0.1628
 2699TIP3    H229513   1.830   0.481  12.570  2.2059 -1.0622  1.0731
 2700TIP3   OH229514   0.803   5.415  11.942 -0.0120 -0.5330 -0.1582
 2700TIP3    H129515   0.710   5.415  11.965 -0.1923 -1.8367 -0.7915
 2700TIP3    H229516   0.847   5.386  12.022  0.1180  2.3708  0.9147
 2701TIP3   OH229517   5.576   0.322  17.256  0.6435 -0.1563  0.7553
 2701TIP3    H129518   5.585   0.395  17.195  0.6648  0.9372  2.0239
 2701TIP3    H229519   5.492   0.336  17.298 -1.6095 -3.3986 -2.1261
 2702TIP3   OH229520   4.268   0.017   0.158  0.4332 -0.1251 -0.1201
 2702TIP3    H129521   4.208   0.087   0.183  1.4719  0.4155  0.9685
 2702TIP3    H229522   4.279   0.027   0.064 -0.4910  0.3131 -0.1901
 2703TIP3   OH229523   1.109   2.614  14.781 -0.1825  0.1711  0.3318
 2703TIP3    H129524   1.173   2.678  14.813 -0.4242  0.9146 -0.6304
 2703TIP3    H229525   1.024   2.652  14.802 -0.3550 -1.3217  2.5948
 2704TIP3   OH229526   5.472   5.363  11.319  0.0540  0.6731  0.4090
 2704TIP3    H129527   5.448   5.346  11.228  0.9301  0.6209  0.1844
 2704TIP3    H229528   5.468   5.277  11.361 -0.4015  0.7050  0.4400
 2705TIP3   OH229529   4.252   3.865  14.772 -0.4208  0.7516  0.2970
 2705TIP3    H129530   4.336   3.820  14.779 -0.0067  1.2593 -1.0881
 2705TIP3    H229531   4.214   3.858  14.860  1.1970  0.7721  1.0383
 2706TIP3   OH229532   0.965   0.830  13.014  0.1574 -0.4596  0.0985
 2706TIP3    H129533   0.990   0.793  13.099  1.2788  0.5785  0.2585
 2706TIP3    H229534   1.027   0.903  13.001 -0.6174  0.0035 -1.1611
 2707TIP3   OH229535   4.598   3.381  14.527 -0.6133  0.5949 -0.3715
 2707TIP3    H129536   4.580   3.407  14.436  1.9764 -2.4746 -1.9615
 2707TIP3    H229537   4.538   3.309  14.544  0.8969 -0.8563 -0.8751
 2708TIP3   OH229538   4.257   1.678  16.824 -0.0001 -0.2905  0.5419
 2708TIP3    H129539   4.341   1.634  16.836  0.9468  1.2331 -0.2223
 2708TIP3    H229540   4.261   1.753  16.883 -0.5455  0.1573  0.0117
 2709TIP3   OH229541   1.378   0.555   6.476  0.2912 -0.1231  0.6158
 2709TIP3    H129542   1.386   0.619   6.546  0.5295 -0.2450  0.7018
 2709TIP3    H229543   1.432   0.481   6.505  2.5340  0.8490 -0.8755
 2710TIP3   OH229544   3.722   6.031   1.853 -0.3137 -0.0786 -0.1744
 2710TIP3    H129545   3.660   6.103   1.865  0.7299  0.6257  1.4127
 2710TIP3    H229546   3.772   6.029   1.935  0.3532 -1.9826 -0.5709
 2711TIP3   OH229547   6.496   4.784   5.756  0.8026  0.2691  0.0799
 2711TIP3    H129548   6.464   4.785   5.846  1.4259  0.7936  0.2979
 2711TIP3    H229549   6.522   4.693   5.741 -0.2764 -0.0583  0.0691
 2712TIP3   OH229550   1.664   4.897   0.516 -0.3016 -0.3555 -0.0219
 2712TIP3    H129551   1.626   4.835   0.454 -1.0939  1.6748 -1.6454
 2712TIP3    H229552   1.590   4.932   0.564 -0.5088  2.6436 -2.2941
 2713TIP3   OH229553   5.061   2.193   0.623  0.2472  0.1659 -0.3476
 2713TIP3    H129554   5.032   2.147   0.544  1.5631 -0.4210 -0.5173
 2713TIP3    H229555   5.064   2.285   0.598 -0.2176  0.0907 -0.6938
 2714TIP3   OH229556   1.844   2.277  17.191 -0.0224 -0.6100 -0.1797
 2714TIP3    H129557   1.912   2.334  17.156  0.1332 -1.0424 -0.5931
 2714TIP3    H229558   1.863   2.271  17.285 -0.9169  1.2091  0.1501
 2715TIP3   OH229559   1.094   1.307  13.253  0.2934 -1.0976  0.0027
 2715TIP3    H129560   1.170   1.365  13.254 -1.2939  1.3013 -2.2355
 2715TIP3    H229561   1.129   1.220  13.236  2.5425 -0.0294 -1.2336
 2716TIP3   OH229562   1.459   5.920   1.533  0.7437 -0.0219 -0.1166
 2716TIP3    H129563   1.440   5.990   1.471 -1.1393 -0.9501 -0.6706
 2716TIP3    H229564   1.531   5.871   1.492  0.5948  0.3093 -0.7890
 2717TIP3   OH229565   6.070   1.554   5.314 -0.0249  0.1118 -0.1337
 2717TIP3    H129566   6.126   1.565   5.391 -0.7444 -0.5472  0.5000
 2717TIP3    H229567   6.126   1.511   5.249  0.4734  0.3202  0.1554
 2718TIP3   OH229568   6.503   0.147  11.777  0.8811  0.4891 -0.3814
 2718TIP3    H129569   6.415   0.177  11.798  0.6197  0.2564 -1.0982
 2718TIP3    H229570   6.554   0.227  11.765  0.0695  0.7293 -2.7758
 2719TIP3   OH229571   2.411   5.637   0.054  0.8074 -0.2285 -0.0079
 2719TIP3    H129572   2.322   5.642   0.089 -0.4629 -0.3638 -2.9340
 2719TIP3    H229573   2.458   5.709   0.097 -1.4665  1.5419 -0.3066
 2720TIP3   OH229574   0.383   1.119  15.905  0.2851 -0.3086 -0.8997
 2720TIP3    H129575   0.319   1.150  15.970  1.2421  0.7615 -0.4367
 2720TIP3    H229576   0.465   1.113  15.953  1.0852  0.8026 -2.0692
 2721TIP3   OH229577   1.236   4.246   5.224  0.0492 -0.3553 -0.3029
 2721TIP3    H129578   1.281   4.247   5.309  2.2137  1.4896 -1.3549
 2721TIP3    H229579   1.143   4.244   5.246  0.5268  0.5180  2.1308
 2722TIP3   OH229580   1.919   0.917   4.789 -0.2958 -0.0892 -0.1004
 2722TIP3    H129581   1.893   0.879   4.873 -0.8379  2.3915  0.9217
 2722TIP3    H229582   1.858   0.877   4.726 -0.6748 -1.0824  0.8481
 2723TIP3   OH229583   0.558   3.547   3.986 -0.0437  0.2820 -0.0766
 2723TIP3    H129584   0.483   3.497   4.016 -0.5773  0.5101 -0.9952
 2723TIP3    H229585   0.596   3.493   3.916 -0.8376  1.2912 -1.3225
 2724TIP3   OH229586   5.559   4.287   0.928 -0.3678 -0.2247 -0.2455
 2724TIP3    H129587   5.649   4.286   0.895  0.1037  2.0380  0.8004
 2724TIP3    H229588   5.568   4.288   1.023 -1.4171  1.1816 -0.1239
 2725TIP3   OH229589   5.828   5.002   3.731 -0.2078  0.3680  0.0898
 2725TIP3    H129590   5.811   5.088   3.693 -1.9375 -0.2079 -0.5189
 2725TIP3    H229591   5.852   4.947   3.657  1.6088  0.4461  0.5661
 2726TIP3   OH229592   1.335   3.230   4.117 -0.3149 -0.2213 -0.2120
 2726TIP3    H129593   1.329   3.324   4.099  0.4799  0.7920  3.7857
 2726TIP3    H229594   1.429   3.211   4.113  0.0777  0.3430  3.0749
 2727TIP3   OH229595   3.175   1.161   5.203 -0.4392 -0.5601  0.2625
 2727TIP3    H129596   3.146   1.162   5.294 -0.9573 -1.1594  0.1129
 2727TIP3    H229597   3.186   1.068   5.182 -1.6965 -0.5162 -0.7024
 2728TIP3   OH229598   5.773   4.907   1.837  0.0296 -0.3302 -0.1098
 2728TIP3    H129599   5.752   4.974   1.903 -0.5574 -1.8364  1.3114
 2728TIP3    H229600   5.695   4.902   1.783 -0.0468 -0.0937 -0.0259
 2729TIP3   OH229601   6.552   4.278   1.355  0.3999 -0.0478  0.4292
 2729TIP3    H129602   6.608   4.203   1.335  1.5207  1.0338 -0.6693
 2729TIP3    H229603   6.514   4.302   1.270  1.0220  1.3547  0.5290
 2730TIP3   OH229604   4.820   5.013   2.459  0.2863 -0.3337  0.3205
 2730TIP3    H129605   4.828   5.010   2.554  0.5168  0.7244  0.3465
 2730TIP3    H229606   4.784   4.927   2.435  1.3954 -1.0768  1.2375
 2731TIP3   OH229607   6.072   2.490   5.376  0.3056  0.4376 -0.2364
 2731TIP3    H129608   6.020   2.435   5.436 -0.3751 -0.0008 -1.2006
 2731TIP3    H229609   6.069   2.577   5.415 -0.4988  0.2516  0.1509
 2732TIP3   OH229610   3.959   6.288   4.669 -0.2113  0.2506  0.6182
 2732TIP3    H129611   4.035   6.326   4.625 -0.9623  1.1160  0.0273
 2732TIP3    H229612   3.889   6.292   4.603 -0.7906 -0.4596  1.1727
 2733TIP3   OH229613   2.754   6.686   2.020 -0.4221  0.5944  0.7339
 2733TIP3    H129614   2.801   6.769   2.015 -0.0900  0.3932  0.4689
 2733TIP3    H229615   2.795   6.631   1.952 -0.4705  0.1298  1.0769
 2734TIP3   OH229616   6.323   3.907  16.306  0.1780 -0.1239  0.9280
 2734TIP3    H129617   6.323   3.859  16.389  2.6155 -1.1904  0.4009
 2734TIP3    H229618   6.396   3.968  16.313  1.2402 -1.0889 -0.8316
 2735TIP3   OH229619   2.439   2.986  17.217 -0.5280 -0.1104  0.0750
 2735TIP3    H129620   2.524   3.016  17.183 -0.6725  1.2634  0.8523
 2735TIP3    H229621   2.379   2.996  17.142 -0.2458  0.0282 -0.1353
 2736TIP3   OH229622   0.275   4.879  16.519  0.0303 -0.1801 -0.2284
 2736TIP3    H129623   0.293   4.817  16.589 -0.3013 -0.5071 -0.4285
 2736TIP3    H229624   0.361   4.902  16.485  0.2003  0.0792  0.3655
 2737TIP3   OH229625   2.680   2.237  14.341  0.0381  0.3372  0.0639
 2737TIP3    H129626   2.766   2.216  14.304 -0.5986 -2.0926 -0.1946
 2737TIP3    H229627   2.638   2.291  14.274 -0.3146 -2.2786 -1.9835
 2738TIP3   OH229628   1.570   0.510  10.940 -0.2184  0.5132 -0.1180
 2738TIP3    H129629   1.623   0.563  10.880  2.0376  0.3087  1.5472
 2738TIP3    H229630   1.520   0.574  10.990  0.1294  0.8872 -0.2336
 2739TIP3   OH229631   0.841   3.501   2.592 -0.3962 -0.3830 -0.1407
 2739TIP3    H129632   0.801   3.420   2.560 -1.8341  0.7789 -1.4248
 2739TIP3    H229633   0.871   3.480   2.680 -2.9820 -1.6267  0.5181
 2740TIP3   OH229634   0.705   3.038  15.656 -0.0739 -0.6467 -0.0640
 2740TIP3    H129635   0.744   2.956  15.627  0.3457 -0.6103  0.3922
 2740TIP3    H229636   0.778   3.088  15.693 -0.0442  0.5234 -1.6004
 2741TIP3   OH229637   0.845   3.341   0.748 -0.4620  0.4216 -0.0465
 2741TIP3    H129638   0.819   3.355   0.657  0.1540  0.9150 -0.1562
 2741TIP3    H229639   0.788   3.271   0.779 -0.2232 -0.2310 -1.0190
 2742TIP3   OH229640   5.870   3.985  15.572  0.1017 -0.0353 -0.0272
 2742TIP3    H129641   5.955   4.005  15.612 -0.8612  0.5718  1.8079
 2742TIP3    H229642   5.838   3.909  15.621 -0.9525  0.5062  0.1541
 2743TIP3   OH229643   3.563   5.501   0.735 -0.2925 -0.5778  0.4695
 2743TIP3    H129644   3.546   5.595   0.744 -0.5044 -0.5797  0.1010
 2743TIP3    H229645   3.635   5.495   0.672 -0.4442 -0.6747  0.3056
 2744TIP3   OH229646   1.576   5.090   0.902 -0.0958 -0.2082 -0.0928
 2744TIP3    H129647   1.529   5.161   0.945 -1.0485 -0.6904 -0.3100
 2744TIP3    H229648   1.553   5.012   0.952  2.1317 -0.1951  1.0777
 2745TIP3   OH229649   3.411   3.971   2.219  0.0370 -0.1449  0.1245
 2745TIP3    H129650   3.407   3.882   2.255  0.0293 -0.5081 -0.7449
 2745TIP3    H229651   3.327   4.010   2.244 -0.4160 -0.7533 -0.3705
 2746TIP3   OH229652   1.618   1.045  13.741 -0.2386  0.1367  0.1895
 2746TIP3    H129653   1.530   1.070  13.770 -0.3664 -0.1852  0.0830
 2746TIP3    H229654   1.644   1.115  13.682 -0.3642  0.3122  0.3412
 2747TIP3   OH229655   5.231   1.077   2.686 -0.4793 -0.2269  0.1927
 2747TIP3    H129656   5.216   1.062   2.592  2.1148  1.1143 -0.5383
 2747TIP3    H229657   5.293   1.008   2.711 -0.6075 -0.1429  0.7479
 2748TIP3   OH229658   2.578   5.671  16.681 -0.4227 -0.2760 -0.7259
 2748TIP3    H129659   2.624   5.720  16.750 -1.6715  0.9941 -0.7514
 2748TIP3    H229660   2.647   5.621  16.637  0.4703 -0.7688  1.1344
 2749TIP3   OH229661   3.516   5.770  14.715  0.0999  0.4247  0.1728
 2749TIP3    H129662   3.558   5.824  14.782 -0.9320  0.8010  0.5294
 2749TIP3    H229663   3.475   5.699  14.764 -1.8154  1.4401  0.1006
 2750TIP3   OH229664   4.956   2.726  16.454 -0.1693  0.1713 -0.3439
 2750TIP3    H129665   4.991   2.803  16.409 -0.6582  0.0278 -0.9852
 2750TIP3    H229666   4.968   2.654  16.392  1.1364 -0.4745  0.6029
 2751TIP3   OH229667   4.210   5.085   3.162  0.0131 -0.2368 -0.4573
 2751TIP3    H129668   4.304   5.095   3.145  0.0705 -0.5799 -0.3488
 2751TIP3    H229669   4.195   5.135   3.242  0.0236  0.1563 -0.6966
 2752TIP3   OH229670   1.236   5.732   4.936 -0.1127 -0.1156  0.1224
 2752TIP3    H129671   1.242   5.687   5.021  0.1379 -0.6051 -0.1552
 2752TIP3    H229672   1.154   5.701   4.898 -0.5486  0.5956  0.4626
 2753TIP3   OH229673   5.571   3.707   0.337  0.4505 -0.7121 -0.8699
 2753TIP3    H129674   5.520   3.727   0.259 -0.5106  1.7480  0.2872
 2753TIP3    H229675   5.506   3.695   0.406  1.3030 -2.2833 -0.2802
 2754TIP3   OH229676   3.411   3.186   2.131 -0.3331 -0.6516 -1.0964
 2754TIP3    H129677   3.483   3.130   2.158  1.8568  2.2076 -0.5238
 2754TIP3    H229678   3.344   3.173   2.198  0.8137 -1.2709 -0.0194
 2755TIP3   OH229679   2.267   6.583  17.285  0.5632  0.0535  0.3313
 2755TIP3    H129680   2.266   6.487  17.274  0.2611  0.0427  0.4399
 2755TIP3    H229681   2.175   6.608  17.276  0.7712  0.4706 -0.8829
 2756TIP3   OH229682   1.000   2.284  12.823 -0.0522  0.1015 -0.7168
 2756TIP3    H129683   1.015   2.190  12.819  0.5995  0.1432  0.2584
 2756TIP3    H229684   1.069   2.322  12.767  1.5473  0.1153  1.1452
 2757TIP3   OH229685   2.752   2.795   5.722  0.4597 -0.4457 -0.2868
 2757TIP3    H129686   2.657   2.800   5.711  0.4675 -0.6616 -0.4742
 2757TIP3    H229687   2.783   2.753   5.642  1.0995  2.9003 -1.9934
 2758TIP3   OH229688   5.426   5.402   5.665  0.4560 -0.0524 -0.5070
 2758TIP3    H129689   5.521   5.403   5.654  0.6393 -1.3560  0.5976
 2758TIP3    H229690   5.393   5.458   5.595  1.9458 -0.9229 -1.9939
 2759TIP3   OH229691   3.257   4.458  16.625 -0.5638  0.1951 -0.3214
 2759TIP3    H129692   3.177   4.420  16.589  0.6389 -2.9368 -0.0251
 2759TIP3    H229693   3.326   4.395  16.603  1.5842  1.9879  0.7728
 2760TIP3   OH229694   5.620   2.669   2.881 -0.0344  0.9905 -0.7534
 2760TIP3    H129695   5.567   2.595   2.850  1.0999  0.9913 -2.8823
 2760TIP3    H229696   5.697   2.669   2.825  0.9812  2.5882  0.5383
 2761TIP3   OH229697   1.004   1.299   0.279  0.2850 -0.2984  0.6666
 2761TIP3    H129698   1.007   1.223   0.338 -0.5804 -0.2879  0.7368
 2761TIP3    H229699   1.082   1.349   0.301  0.6936 -1.0033  0.8470
 2762TIP3   OH229700   6.568   6.645  15.257  0.2927 -0.6560 -0.5138
 2762TIP3    H129701   6.601   6.729  15.289  1.1430 -1.4736  0.8897
 2762TIP3    H229702   6.640   6.584  15.275 -0.3873 -1.7187 -1.3241
 2763TIP3   OH229703   0.852   3.598  15.145 -0.1104 -0.2681 -0.0757
 2763TIP3    H129704   0.819   3.552  15.222  1.2395 -1.1605 -0.0058
 2763TIP3    H229705   0.841   3.536  15.073  1.4594 -0.6423 -0.0314
 2764TIP3   OH229706   4.470   2.689   3.460  0.2491  0.1080 -0.4687
 2764TIP3    H129707   4.405   2.630   3.421  0.4163 -0.3026 -0.1392
 2764TIP3    H229708   4.537   2.698   3.392  0.0983  0.1224 -0.6169
 2765TIP3   OH229709   0.534   0.718   0.668  0.3425 -0.3333  0.1738
 2765TIP3    H129710   0.555   0.711   0.761  1.7986  1.2718  0.0112
 2765TIP3    H229711   0.462   0.782   0.665 -0.1669 -0.8974  0.2358
 2766TIP3   OH229712   5.316   6.724  12.523 -0.7773 -0.0748 -0.7151
 2766TIP3    H129713   5.410   6.719  12.505 -0.9914 -0.8260 -1.6507
 2766TIP3    H229714   5.311   6.763  12.611  0.3825  0.4815 -0.8755
 2767TIP3   OH229715   6.152   6.299  17.019 -0.4578 -0.3160 -0.0521
 2767TIP3    H129716   6.193   6.263  17.098 -1.1653 -0.0470  0.4478
 2767TIP3    H229717   6.082   6.237  16.998 -1.4496  0.5437  0.6052
 2768TIP3   OH229718   1.218   4.114  16.853  0.2617  0.4001  0.1807
 2768TIP3    H129719   1.187   4.048  16.791  0.3976  0.9584 -0.4966
 2768TIP3    H229720   1.203   4.197  16.809  0.4395  0.8091  0.8704
 2769TIP3   OH229721   0.796   5.727  15.055  0.4251  0.1676 -0.1772
 2769TIP3    H129722   0.740   5.770  14.990  0.0475 -1.4385 -0.9496
 2769TIP3    H229723   0.767   5.763  15.139  0.5249  1.8440 -0.8144
 2770TIP3   OH229724   2.653   2.813  16.141 -0.0924 -0.1129 -0.2899
 2770TIP3    H129725   2.742   2.811  16.107  2.2788 -0.5224  4.8999
 2770TIP3    H229726   2.637   2.906  16.161  0.6023 -0.3658  1.6495
 2771TIP3   OH229727   5.023   5.962  15.545  0.2783  0.3141 -0.4912
 2771TIP3    H129728   4.975   6.045  15.534  0.9294  0.6115 -1.1670
 2771TIP3    H229729   5.063   5.969  15.632 -0.5544  0.2383 -0.0912
 2772TIP3   OH229730   4.295   6.695   2.382  0.4686 -0.1950  0.1455
 2772TIP3    H129731   4.281   6.617   2.436 -0.6036  0.5230  0.9496
 2772TIP3    H229732   4.304   6.766   2.445 -3.3578  1.1102 -0.5010
 2773TIP3   OH229733   4.396   4.776  11.196 -0.0499 -0.2519  0.0955
 2773TIP3    H129734   4.359   4.730  11.121 -1.3403 -1.2315  1.2539
 2773TIP3    H229735   4.396   4.868  11.170 -0.6765 -0.5447 -1.0201
 2774TIP3   OH229736   5.317   6.649   5.759 -0.4994  0.1763  0.0689
 2774TIP3    H129737   5.316   6.640   5.854  2.0780 -1.2697  0.0321
 2774TIP3    H229738   5.397   6.697   5.740 -2.2315  2.7657 -1.3075
 2775TIP3   OH229739   1.961   2.983  16.541  0.0695 -0.0551 -0.8488
 2775TIP3    H129740   1.992   3.009  16.627  1.6142 -0.8170 -1.1378
 2775TIP3    H229741   1.979   3.058  16.484  0.8400 -0.2699 -0.8918
 2776TIP3   OH229742   6.304   4.952  12.431  0.2042 -0.1534  0.1084
 2776TIP3    H129743   6.337   4.872  12.389 -0.8932 -0.3098 -0.4856
 2776TIP3    H229744   6.252   4.995  12.363  0.2574  0.7466  0.6276
 2777TIP3   OH229745   1.057   2.907   4.687 -0.1192  0.0054  0.0449
 2777TIP3    H129746   1.056   2.974   4.619  1.7621  0.1958  0.1541
 2777TIP3    H229747   1.074   2.825   4.640 -0.4854 -0.1200  0.1244
 2778TIP3   OH229748   3.847   6.377  16.409 -0.6502  0.0784 -0.0617
 2778TIP3    H129749   3.846   6.472  16.422 -0.4761 -0.0007  0.5509
 2778TIP3    H229750   3.878   6.342  16.492  0.5067 -0.4457 -0.6834
 2779TIP3   OH229751   4.043   6.542   2.939 -0.7908  0.0879 -0.9814
 2779TIP3    H129752   4.129   6.518   2.904 -0.1112 -0.3529  0.8513
 2779TIP3    H229753   3.990   6.561   2.862  0.7543 -0.2817 -2.1921
 2780TIP3   OH229754   1.951   6.745  14.306 -0.2212  0.1153 -0.0041
 2780TIP3    H129755   1.859   6.765  14.288  0.1648  1.8872 -0.2263
 2780TIP3    H229756   1.952   6.711  14.396 -1.2270 -1.2414 -0.4757
 2781TIP3   OH229757   2.958   3.656  11.252  0.2052 -0.2414 -0.3958
 2781TIP3    H129758   2.885   3.688  11.305  0.8031  0.8627 -0.2132
 2781TIP3    H229759   2.936   3.565  11.233 -0.7563 -0.1996  0.4547
 2782TIP3   OH229760   3.607   1.159  14.733  0.1632  0.3480  0.2293
 2782TIP3    H129761   3.641   1.248  14.725 -1.4195  1.3441  3.0582
 2782TIP3    H229762   3.579   1.152  14.824 -1.7295 -2.3382 -0.4238
 2783TIP3   OH229763   1.324   2.429   5.781 -0.7129  0.3962  0.1440
 2783TIP3    H129764   1.255   2.370   5.811 -0.3594  0.7359  1.7628
 2783TIP3    H229765   1.279   2.489   5.721 -1.5927 -0.0576  0.3231
 2784TIP3   OH229766   0.785   3.652  11.186 -0.0032  0.3971  0.1900
 2784TIP3    H129767   0.727   3.695  11.248 -1.1122  2.1281 -1.9096
 2784TIP3    H229768   0.851   3.719  11.165 -1.4044  1.0185 -2.6760
 2785TIP3   OH229769   0.342   3.600  14.001 -0.1770 -0.4209  0.7678
 2785TIP3    H129770   0.410   3.564  14.058 -0.3443  0.9838  1.9084
 2785TIP3    H229771   0.274   3.632  14.061 -1.5700 -1.2241 -0.3246
 2786TIP3   OH229772   0.716   4.407   3.657  0.2614 -0.1927 -0.2598
 2786TIP3    H129773   0.627   4.409   3.621  0.1285 -1.0151 -0.0101
 2786TIP3    H229774   0.703   4.412   3.752  0.5694  1.2022 -0.2722
 2787TIP3   OH229775   5.791   3.842   2.512 -0.3054 -0.3345 -0.0815
 2787TIP3    H129776   5.874   3.821   2.470  0.1328  0.6286  0.2549
 2787TIP3    H229777   5.752   3.908   2.455 -0.2597  0.1099  0.3941
 2788TIP3   OH229778   2.175   0.266  13.115  0.1138 -0.2130 -0.0487
 2788TIP3    H129779   2.176   0.356  13.146  1.7915 -0.5666  1.0621
 2788TIP3    H229780   2.090   0.231  13.143  0.1256  0.5408  0.9687
 2789TIP3   OH229781   6.323   3.927  14.198  0.6262 -0.0344 -0.4573
 2789TIP3    H129782   6.344   3.869  14.271  0.0271 -0.4015 -0.5695
 2789TIP3    H229783   6.376   3.895  14.125  2.2473  1.1565  0.1480
 2790TIP3   OH229784   4.017   0.559  14.427 -0.2532 -0.1294  0.1726
 2790TIP3    H129785   4.068   0.624  14.379 -0.6506 -0.0173 -0.1045
 2790TIP3    H229786   4.063   0.476  14.413  0.3836  0.1240  0.7187
 2791TIP3   OH229787   0.896   2.605  15.633  0.0316  0.5171 -0.3383
 2791TIP3    H129788   0.915   2.569  15.546 -0.1945  2.7342 -1.3900
 2791TIP3    H229789   0.888   2.528  15.690 -0.7307 -1.0772 -2.4525
 2792TIP3   OH229790   0.620   3.402   3.740  0.1911 -0.4304 -0.2310
 2792TIP3    H129791   0.549   3.339   3.752 -0.4402  0.1140 -1.0733
 2792TIP3    H229792   0.609   3.435   3.652  0.3534  1.0639  0.2861
 2793TIP3   OH229793   5.921   2.087   4.399  0.1594 -0.6225 -0.3705
 2793TIP3    H129794   5.936   2.114   4.490  1.6465 -2.5786  0.0472
 2793TIP3    H229795   5.837   2.042   4.401  0.3804 -1.0378  0.1728
 2794TIP3   OH229796   5.283   5.275   2.412 -0.5618 -0.0786 -0.1907
 2794TIP3    H129797   5.208   5.223   2.440 -0.6384  0.0970 -0.0706
 2794TIP3    H229798   5.323   5.224   2.342 -0.6692 -0.2731 -0.1094
 2795TIP3   OH229799   2.377   4.700  16.502  0.5282  0.3472  0.0500
 2795TIP3    H129800   2.292   4.744  16.511  1.5828  2.4788  0.1994
 2795TIP3    H229801   2.413   4.734  16.420  1.3193 -0.4222  0.0658
 2796TIP3   OH229802   0.282   4.505   3.309  0.4794  0.1187 -0.3189
 2796TIP3    H129803   0.215   4.556   3.264  0.5084 -0.0900 -0.6043
 2796TIP3    H229804   0.278   4.534   3.400 -1.1180 -1.0801  0.0163
 2797TIP3   OH229805   4.465   2.189   1.217  0.3845  0.1582  0.1541
 2797TIP3    H129806   4.378   2.151   1.201 -0.0408 -0.2267  2.8847
 2797TIP3    H229807   4.524   2.137   1.163 -0.7040 -1.8439  0.7904
 2798TIP3   OH229808   0.777   6.693  12.163 -0.1146  0.3571 -0.1779
 2798TIP3    H129809   0.788   6.769  12.220  1.0898  0.0481  0.0190
 2798TIP3    H229810   0.752   6.622  12.221 -1.4280  0.6131 -0.3845
 2799TIP3   OH229811   2.947   4.169   0.286 -0.2347  0.7642 -0.2806
 2799TIP3    H129812   3.040   4.165   0.266  0.1926 -2.5601  1.6194
 2799TIP3    H229813   2.904   4.128   0.212 -0.0778  1.1326 -0.5788
 2800TIP3   OH229814   4.847   3.890   2.259  0.0337 -0.5501  0.1020
 2800TIP3    H129815   4.801   3.815   2.295  0.3191 -0.9175 -0.2898
 2800TIP3    H229816   4.888   3.932   2.335  0.9135 -1.5097  0.1791
 2801TIP3   OH229817   4.761   2.531   1.573 -0.5063  0.0084 -0.2687
 2801TIP3    H129818   4.819   2.490   1.509  0.4665  1.2152 -0.2133
 2801TIP3    H229819   4.710   2.594   1.521 -1.0560 -0.3447 -0.1557
 2802TIP3   OH229820   1.076   2.800  16.683  0.6935  0.2295  0.0107
 2802TIP3    H129821   0.999   2.757  16.647  1.2176 -0.1509 -0.6807
 2802TIP3    H229822   1.047   2.834  16.768  0.0517 -0.8239  0.2340
 2803TIP3   OH229823   5.436   6.591   4.326 -0.4787  0.6700  0.4043
 2803TIP3    H129824   5.375   6.523   4.300 -0.9900  0.4903  1.9769
 2803TIP3    H229825   5.460   6.634   4.244 -1.6899 -0.0965 -0.3889
 2804TIP3   OH229826   2.456   3.871  15.625 -0.4460 -0.5109 -0.3213
 2804TIP3    H129827   2.425   3.873  15.715 -1.1622 -1.1313 -0.5460
 2804TIP3    H229828   2.400   3.807  15.581 -1.4107  1.1846 -1.6942
 2805TIP3   OH229829   4.296   4.619  14.677  0.0887 -0.6663  0.1939
 2805TIP3    H129830   4.318   4.540  14.628  2.5556  1.5616 -2.6499
 2805TIP3    H229831   4.378   4.644  14.720 -1.1095 -0.5116  2.5687
 2806TIP3   OH229832   5.885   4.406   2.053 -0.1062 -0.0836  0.0927
 2806TIP3    H129833   5.972   4.378   2.024 -0.2728  1.2658 -1.8837
 2806TIP3    H229834   5.900   4.490   2.098 -0.4195  0.5114 -0.8723
 2807TIP3   OH229835   6.139   4.821  16.466 -0.4299  0.1343  0.2973
 2807TIP3    H129836   6.230   4.800  16.442 -0.5952 -0.0423 -0.1810
 2807TIP3    H229837   6.086   4.769  16.406 -0.8529  0.0070  0.7760
 2808TIP3   OH229838   2.332   2.486  12.788 -0.0807 -0.1664 -0.0280
 2808TIP3    H129839   2.296   2.519  12.706 -0.1505  0.9107  0.4068
 2808TIP3    H229840   2.333   2.391  12.779 -0.9510 -0.0971 -0.9100
 2809TIP3   OH229841   6.601   4.943   1.710  0.4759 -0.2279  0.2308
 2809TIP3    H129842   6.560   5.011   1.764 -0.5042  0.2078 -1.0083
 2809TIP3    H229843   6.627   4.875   1.772 -2.2304 -0.5660  1.1161
 2810TIP3   OH229844   3.564   4.959  15.075 -0.2580  0.0812  0.5044
 2810TIP3    H129845   3.486   4.952  15.020  0.0853  2.3762 -0.3865
 2810TIP3    H229846   3.634   4.983  15.014  0.0383  3.2962  1.9211
 2811TIP3   OH229847   3.364   5.573  14.861  0.0653 -0.1938  0.1762
 2811TIP3    H129848   3.277   5.601  14.833  0.0320 -1.8426 -1.5846
 2811TIP3    H229849   3.390   5.637  14.927 -3.2486 -0.7161  2.2128
 2812TIP3   OH229850   6.054   1.113  12.526 -0.0165 -0.0866  0.1805
 2812TIP3    H129851   6.113   1.157  12.465  1.2422 -1.3813  0.4013
 2812TIP3    H229852   6.036   1.177  12.594 -0.4124  0.9540 -0.8713
 2813TIP3   OH229853   4.072   5.795  12.922  0.0275 -0.0434  0.6824
 2813TIP3    H129854   3.987   5.788  12.879  0.7757 -0.7350 -0.7754
 2813TIP3    H229855   4.052   5.816  13.013 -1.6425  1.2473  0.0671
 2814TIP3   OH229856   0.551   3.119  13.358 -0.5271  0.0643  0.1054
 2814TIP3    H129857   0.492   3.139  13.285 -0.7809 -1.5578 -0.1689
 2814TIP3    H229858   0.495   3.074  13.422 -0.0663  0.5100  0.8404
 2815TIP3   OH229859   6.771   0.731   6.246 -0.6032  0.2393 -0.1920
 2815TIP3    H129860   6.700   0.795   6.244 -0.6418  0.2411  0.6248
 2815TIP3    H229861   6.812   0.738   6.160 -1.0443  0.8592 -0.3657
 2816TIP3   OH229862   0.059   4.548  15.987 -0.2270  0.6449  0.1282
 2816TIP3    H129863  -0.013   4.582  16.042  0.2975  0.4940  0.9255
 2816TIP3    H229864   0.138   4.579  16.031  0.3231 -2.1404  1.3200
 2817TIP3   OH229865   5.697   6.421  16.190  0.5975 -0.1324  0.7279
 2817TIP3    H129866   5.761   6.356  16.218  1.6267  0.6085  0.1762
 2817TIP3    H229867   5.698   6.416  16.095  0.0088  0.0560  0.7094
 2818TIP3   OH229868   2.153   5.455  12.317  0.2589  0.3496 -0.1722
 2818TIP3    H129869   2.173   5.421  12.229  0.1425 -2.1687  0.6900
 2818TIP3    H229870   2.238   5.482  12.352  1.0384 -2.4689  0.3724
 2819TIP3   OH229871   0.910   5.371   3.825  0.8707 -0.4322 -0.0238
 2819TIP3    H129872   0.864   5.328   3.752  0.5527 -0.1588  0.0133
 2819TIP3    H229873   0.964   5.438   3.783  0.8099 -0.3810 -0.0200
 2820TIP3   OH229874   2.362   5.327  16.003  0.0683 -0.5734 -0.0584
 2820TIP3    H129875   2.340   5.288  16.088 -0.3265 -0.8561 -0.2862
 2820TIP3    H229876   2.404   5.257  15.954 -0.8623 -0.7989 -0.5565
 2821TIP3   OH229877   6.540   0.810   4.360 -0.3176  0.4420 -0.1045
 2821TIP3    H129878   6.528   0.717   4.340 -1.1214  0.6911 -0.8830
 2821TIP3    H229879   6.521   0.818   4.453 -2.3994  0.1374 -0.4595
 2822TIP3   OH229880   0.712   5.997   5.878  0.1925  0.2520  0.1345
 2822TIP3    H129881   0.676   6.011   5.790 -0.0948  0.2264  0.2492
 2822TIP3    H229882   0.637   6.000   5.936  0.2706 -0.5809  0.2925
 2823TIP3   OH229883   5.050   2.400   3.923  0.7050 -0.2717  0.1498
 2823TIP3    H129884   4.997   2.322   3.931  0.7576 -0.1666  1.7139
 2823TIP3    H229885   5.106   2.401   4.001 -1.1804  2.6953  1.6707
 2824TIP3   OH229886   2.231   3.835  15.003  0.1047 -0.2078  0.1339
 2824TIP3    H129887   2.297   3.901  14.983  0.5154 -0.5100  0.4758
 2824TIP3    H229888   2.262   3.756  14.959 -0.9285  0.0882 -1.1580
 2825TIP3   OH229889   1.221   2.432   6.214 -0.5506 -0.0007 -0.1537
 2825TIP3    H129890   1.226   2.365   6.146  0.2853 -0.3243  0.2049
 2825TIP3    H229891   1.131   2.428   6.245 -0.7599 -0.3104 -0.7860
 2826TIP3   OH229892   5.348   4.969   1.494  0.0813 -0.3256  0.4887
 2826TIP3    H129893   5.260   4.934   1.499  0.0108 -0.3220 -0.5450
 2826TIP3    H229894   5.369   4.971   1.401  1.6696 -1.5452  0.7626
 2827TIP3   OH229895   3.315   0.961  11.186  0.6631  0.4380 -0.0493
 2827TIP3    H129896   3.252   0.938  11.118  0.4020  1.3202 -0.1170
 2827TIP3    H229897   3.266   1.018  11.246  1.0440  0.1091  0.5849
 2828TIP3   OH229898   5.880   1.909   1.440  0.1776 -0.0458 -0.0655
 2828TIP3    H129899   5.931   1.956   1.506  0.2166 -1.0152  0.6264
 2828TIP3    H229900   5.797   1.956   1.435  0.8661  1.1505 -0.7134
 2829TIP3   OH229901   1.309   5.030  14.301 -0.2468  0.2249  0.2640
 2829TIP3    H129902   1.393   4.997  14.269 -1.0491 -0.4567 -1.2587
 2829TIP3    H229903   1.287   5.101  14.240 -0.9788  0.0898  0.3675
 2830TIP3   OH229904   1.808   4.156  11.940 -0.1253  0.2021  0.0137
 2830TIP3    H129905   1.740   4.223  11.928  0.6050  1.1137  0.8214
 2830TIP3    H229906   1.849   4.178  12.023  0.8937 -0.5819 -0.2580
 2831TIP3   OH229907   1.434   1.685   4.577 -0.2993  0.5710 -0.4085
 2831TIP3    H129908   1.524   1.652   4.569 -1.0131 -1.3239 -1.2794
 2831TIP3    H229909   1.411   1.667   4.668 -0.8932 -2.1602 -1.0132
 2832TIP3   OH229910   6.667   1.993  15.976  0.4138 -0.2119 -0.1660
 2832TIP3    H129911   6.580   1.983  16.015  0.7852  0.0004  0.7382
 2832TIP3    H229912   6.655   2.058  15.907  0.3458  1.8110  1.6573
 2833TIP3   OH229913   3.295   1.113   4.260 -0.1602  0.7527  0.1631
 2833TIP3    H129914   3.284   1.025   4.226  2.8978  0.2894  0.0715
 2833TIP3    H229915   3.213   1.132   4.306 -1.7397 -1.2328 -1.6213
 2834TIP3   OH229916   5.279   2.775   2.851  0.2318 -0.1239  0.4877
 2834TIP3    H129917   5.345   2.782   2.783 -0.9342 -0.2190 -0.7054
 2834TIP3    H229918   5.269   2.681   2.865 -0.1089 -0.1381  0.1772
 2835TIP3   OH229919   4.725   0.223   3.738  0.1339 -0.2150  0.4322
 2835TIP3    H129920   4.729   0.145   3.683  0.9496  0.1107  0.0265
 2835TIP3    H229921   4.805   0.220   3.790  0.8229  1.0340 -0.5205
 2836TIP3   OH229922   2.248   1.487  13.410 -0.1094  0.3344  0.4778
 2836TIP3    H129923   2.259   1.578  13.381 -0.0488  0.8944  2.1244
 2836TIP3    H229924   2.218   1.440  13.333  2.1840  1.2303 -1.0718
 2837TIP3   OH229925   4.206   0.446  16.030 -0.2546  0.2411  0.0764
 2837TIP3    H129926   4.223   0.445  15.936 -0.0584 -0.1310  0.1138
 2837TIP3    H229927   4.158   0.364  16.047 -1.8046  1.0923  0.0246
 2838TIP3   OH229928   6.171   1.789  12.699 -0.1533  0.1772 -0.0121
 2838TIP3    H129929   6.151   1.879  12.673 -1.1609 -0.2731 -0.8803
 2838TIP3    H229930   6.256   1.771  12.660 -0.1026  0.6417 -0.1226
 2839TIP3   OH229931   5.739   1.484  14.624  0.0621 -0.3940 -0.0110
 2839TIP3    H129932   5.785   1.427  14.563  1.5945  0.9358 -0.1702
 2839TIP3    H229933   5.722   1.564  14.573 -1.3923 -0.3880  0.4183
 2840TIP3   OH229934   4.075   2.568   2.870 -0.1494 -0.1984 -0.4674
 2840TIP3    H129935   4.115   2.481   2.864 -1.0129 -0.5525 -1.3321
 2840TIP3    H229936   4.149   2.628   2.876  0.4532 -1.0753  1.7294
 2841TIP3   OH229937   3.376   5.792  16.406  0.0086 -0.1309  0.4147
 2841TIP3    H129938   3.422   5.862  16.360  0.2724  0.0445  0.9390
 2841TIP3    H229939   3.408   5.712  16.365 -0.2949  0.0506 -0.1899
 2842TIP3   OH229940   4.464   5.505   1.928  0.3794 -0.3829  0.1756
 2842TIP3    H129941   4.465   5.461   2.013 -0.7443 -1.0101 -0.1091
 2842TIP3    H229942   4.385   5.559   1.930 -0.3785 -1.3770 -0.9175
 2843TIP3   OH229943   4.314   4.029  12.774 -0.0441 -0.4171  0.4371
 2843TIP3    H129944   4.237   4.041  12.719 -0.1059 -0.4801  0.5094
 2843TIP3    H229945   4.360   3.954  12.736 -0.3093 -0.7313  0.7228
 2844TIP3   OH229946   3.673   3.810  10.934  0.0398  0.3137 -0.3820
 2844TIP3    H129947   3.725   3.881  10.896  0.2825 -0.2143 -1.0373
 2844TIP3    H229948   3.706   3.803  11.024 -0.1272  1.1640 -0.2456
 2845TIP3   OH229949   0.779   5.302  11.175  0.1078  0.6711  0.1996
 2845TIP3    H129950   0.714   5.248  11.129 -1.6690  1.0942  2.0769
 2845TIP3    H229951   0.732   5.383  11.195  0.8826  0.6233  2.4544
 2846TIP3   OH229952   1.387   3.095   1.729  0.4512  0.2722  0.0416
 2846TIP3    H129953   1.398   3.144   1.647  0.9635 -0.4667 -0.3386
 2846TIP3    H229954   1.433   3.147   1.794 -1.2048  1.6417  0.1850
 2847TIP3   OH229955   1.325   2.695   0.227  0.2231  0.0487  0.4927
 2847TIP3    H129956   1.305   2.637   0.301 -0.7481 -0.9853 -0.5373
 2847TIP3    H229957   1.291   2.780   0.253 -1.7896 -0.7116  0.5247
 2848TIP3   OH229958   2.936   3.717   3.127  0.1768  0.3818  0.1809
 2848TIP3    H129959   3.030   3.703   3.132  0.2733  0.6642 -0.6630
 2848TIP3    H229960   2.909   3.671   3.047 -1.0150 -2.7842  2.2232
 2849TIP3   OH229961   4.788   2.897   4.288 -0.2626  0.4371  0.2469
 2849TIP3    H129962   4.718   2.857   4.340  0.7735 -1.7711  0.0468
 2849TIP3    H229963   4.747   2.974   4.249 -1.8839  0.5738  2.0205
 2850TIP3   OH229964   3.693   1.499   6.062  0.1079  0.5438 -0.3700
 2850TIP3    H129965   3.621   1.472   6.005  0.0540  0.9250 -0.4875
 2850TIP3    H229966   3.730   1.417   6.095 -0.0320  0.3303 -0.7407
 2851TIP3   OH229967   5.860   5.329  12.389 -0.5349  0.0174  0.8566
 2851TIP3    H129968   5.768   5.317  12.365 -0.4580  0.8998  0.1001
 2851TIP3    H229969   5.877   5.259  12.452 -1.9799  0.4178  1.7302
 2852TIP3   OH229970   1.288   4.139   1.859  0.0004  0.3833 -0.4378
 2852TIP3    H129971   1.376   4.110   1.834  0.2558  0.7590 -0.0028
 2852TIP3    H229972   1.270   4.213   1.800  0.8682  1.6871  0.8603
 2853TIP3   OH229973   5.064   1.856   0.263 -0.7881 -0.5125 -0.1015
 2853TIP3    H129974   5.067   1.767   0.298 -0.2332 -0.7754 -0.8168
 2853TIP3    H229975   5.123   1.856   0.189 -2.2685 -0.0762 -1.3406
 2854TIP3   OH229976   0.273   2.809   2.101 -0.5621  0.1781  0.3846
 2854TIP3    H129977   0.198   2.785   2.047 -1.1367  0.9595  0.8138
 2854TIP3    H229978   0.295   2.898   2.074 -0.0226  0.0905  0.5220
 2855TIP3   OH229979   1.871   2.665   0.279 -0.2122  0.2510 -0.4081
 2855TIP3    H129980   1.911   2.734   0.227 -0.8712  0.5211 -0.5651
 2855TIP3    H229981   1.867   2.701   0.368 -0.7219  0.4851 -0.5262
 2856TIP3   OH229982   3.053   4.651  14.754 -0.0738  0.4621 -0.1993
 2856TIP3    H129983   3.046   4.559  14.781  0.6694  0.5511  0.3414
 2856TIP3    H229984   2.994   4.697  14.812 -1.5156  0.1812 -1.3766
 2857TIP3   OH229985   3.260   0.286  15.576  0.1854 -0.5972 -0.0088
 2857TIP3    H129986   3.170   0.262  15.554  0.1920 -0.6490  0.0209
 2857TIP3    H229987   3.281   0.233  15.653  0.1749 -0.4453  0.1002
 2858TIP3   OH229988   5.132   2.688  13.333 -0.4250 -0.2626 -1.1100
 2858TIP3    H129989   5.162   2.635  13.260 -1.4543 -0.3329 -1.4972
 2858TIP3    H229990   5.159   2.777  13.310  0.6323 -0.4872 -0.8150
 2859TIP3   OH229991   6.028   3.012  12.049 -0.1542 -0.1666  0.4496
 2859TIP3    H129992   5.968   2.990  12.120 -1.2439  1.4258  0.0707
 2859TIP3    H229993   6.057   2.927  12.015 -2.6693 -1.0429  0.2735
 2860TIP3   OH229994   5.693   4.750  17.267  0.6890 -0.5235 -0.0044
 2860TIP3    H129995   5.691   4.828  17.322 -0.8702  1.0708 -2.1356
 2860TIP3    H229996   5.706   4.784  17.178  1.9610 -2.8868 -0.8169
 2861TIP3   OH229997   2.211   2.070  15.887  0.0046  0.3171 -0.0920
 2861TIP3    H129998   2.190   2.113  15.805  0.8512 -0.9823 -1.0303
 2861TIP3    H229999   2.192   2.135  15.954  0.1162  1.7038 -1.3648
 2862TIP3   OH230000   2.862   1.926   0.238 -0.1326  0.1796  0.1503
 2862TIP3    H130001   2.777   1.887   0.218  0.0715  0.5463 -1.6101
 2862TIP3    H230002   2.905   1.935   0.153  2.1792 -1.0713  1.0839
 2863TIP3   OH230003   1.782   4.724   0.051 -0.2113 -0.6403 -0.1471
 2863TIP3    H130004   1.812   4.728   0.142 -0.6551 -0.4959 -0.0009
 2863TIP3    H230005   1.807   4.809   0.014 -1.2582 -0.1522  0.2433
 2864TIP3   OH230006   6.139   0.537   0.551 -0.1883  0.3582 -0.0432
 2864TIP3    H130007   6.195   0.574   0.483 -0.6369  1.1316 -0.0021
 2864TIP3    H230008   6.076   0.606   0.571 -0.0533  0.1548  1.1753
 2865TIP3   OH230009   0.044   3.141  13.591  0.6150 -1.2229 -0.0717
 2865TIP3    H130010   0.031   3.225  13.635  0.1648 -0.4833 -1.5187
 2865TIP3    H230011  -0.040   3.096  13.599  0.9121 -1.6201  0.8605
 2866TIP3   OH230012   5.411   1.923   5.773 -0.6606 -0.2649  0.5403
 2866TIP3    H130013   5.323   1.927   5.811 -0.6472 -0.3498  0.5787
 2866TIP3    H230014   5.455   1.854   5.822 -0.8930 -0.9214 -0.1709
 2867TIP3   OH230015   3.122   2.426  16.381  0.3308 -0.0051 -0.1203
 2867TIP3    H130016   3.073   2.504  16.355 -1.7909 -1.5984 -1.2909
 2867TIP3    H230017   3.127   2.431  16.476  1.5547  2.2462 -0.2436
 2868TIP3   OH230018   5.872   0.009  11.960 -0.5720 -0.0621 -0.0313
 2868TIP3    H130019   5.811  -0.049  12.005  0.6849  0.0892  1.9704
 2868TIP3    H230020   5.817   0.082  11.929 -1.3441  0.5568  2.5612
 2869TIP3   OH230021   0.224   0.357  13.283  0.3970  0.0316 -0.0686
 2869TIP3    H130022   0.247   0.393  13.197  0.8144  2.3397  0.9279
 2869TIP3    H230023   0.304   0.366  13.335 -0.2244 -0.0829  0.9370
 2870TIP3   OH230024   5.408   5.667   6.376  0.6711 -0.7726 -0.0443
 2870TIP3    H130025   5.352   5.744   6.385 -1.2410 -1.9463 -1.1677
 2870TIP3    H230026   5.420   5.635   6.465  0.4011  0.0806  0.3054
 2871TIP3   OH230027   0.595   4.653   0.865  0.2359  0.7241 -0.9411
 2871TIP3    H130028   0.586   4.574   0.917  0.1675  0.2208 -1.7058
 2871TIP3    H230029   0.601   4.724   0.929 -2.2045  0.3801 -0.2358
 2872TIP3   OH230030   4.726   5.438   1.684  0.7141  0.2231 -0.3086
 2872TIP3    H130031   4.741   5.489   1.605 -1.1060 -1.4236 -1.8428
 2872TIP3    H230032   4.640   5.467   1.716  1.1314  0.4008  0.6889
 2873TIP3   OH230033   4.995   1.300  14.011  0.1867 -0.3429  0.1910
 2873TIP3    H130034   4.990   1.252  13.928  1.3813 -0.1074 -0.0263
 2873TIP3    H230035   5.077   1.271  14.051 -0.2935 -0.3227  1.2237
 2874TIP3   OH230036   0.524   2.687   0.578 -0.0154  0.0273  0.9201
 2874TIP3    H130037   0.574   2.768   0.567  0.2283 -0.1142  0.9672
 2874TIP3    H230038   0.578   2.620   0.534 -0.2250 -0.1048  0.8631
 2875TIP3   OH230039   5.555   0.007   5.715 -0.2386 -0.3153 -0.1712
 2875TIP3    H130040   5.612  -0.015   5.641 -0.0102 -1.4076  0.3070
 2875TIP3    H230041   5.612   0.001   5.792 -0.4561  0.8718  0.1121
 2876TIP3   OH230042   4.849   6.001   4.047 -0.5890 -0.2029 -0.3641
 2876TIP3    H130043   4.883   6.059   3.979 -1.6839 -0.1011 -0.8508
 2876TIP3    H230044   4.782   6.053   4.091 -0.7600 -0.6991 -0.0321
 2877TIP3   OH230045   3.045   6.183  16.596  1.1404 -0.0095 -0.3790
 2877TIP3    H130046   2.999   6.191  16.680 -0.7101  1.5284 -1.4477
 2877TIP3    H230047   3.089   6.098  16.601 -0.0606 -0.5907  1.5950
 2878TIP3   OH230048   4.845   1.571  17.321 -0.2297 -0.1769 -1.0180
 2878TIP3    H130049   4.867   1.527  17.403 -0.3831 -1.5335 -1.6857
 2878TIP3    H230050   4.777   1.634  17.345 -0.0681 -0.3516 -0.0636
 2879TIP3   OH230051   0.522   2.486  12.004  0.0742 -0.1647 -0.5819
 2879TIP3    H130052   0.614   2.515  12.011  0.0384  0.1230 -1.2579
 2879TIP3    H230053   0.528   2.391  11.993  0.3149 -0.1001 -1.0481
 2880TIP3   OH230054   1.740   6.392   2.369 -0.2800  0.5216  0.3487
 2880TIP3    H130055   1.799   6.447   2.318 -1.2492  1.0279 -0.2531
 2880TIP3    H230056   1.764   6.409   2.460  0.3646  0.8617  0.1201
 2881TIP3   OH230057   5.177   2.572  14.196 -0.4531 -0.5365  0.2772
 2881TIP3    H130058   5.161   2.517  14.273 -3.4540 -0.6515 -0.3010
 2881TIP3    H230059   5.223   2.649  14.230  0.7349 -1.7861  1.6604
 2882TIP3   OH230060   6.574   6.059   5.519  0.6050  0.2145 -0.0467
 2882TIP3    H130061   6.551   6.064   5.612 -2.3208 -2.1387 -0.4627
 2882TIP3    H230062   6.521   6.126   5.477 -0.3113 -0.6087 -0.2575
 2883TIP3   OH230063   0.011   3.066  12.630 -0.9512 -0.2818  0.7736
 2883TIP3    H130064   0.016   3.067  12.726 -0.1840 -1.0047  0.7530
 2883TIP3    H230065   0.027   3.157  12.604  0.1863 -0.3130  1.2908
 2884TIP3   OH230066   5.268   4.444  11.783  0.5873  0.0232 -0.1360
 2884TIP3    H130067   5.272   4.382  11.710 -0.3691 -0.7956  0.4918
 2884TIP3    H230068   5.268   4.530  11.741  0.7855 -0.4180 -1.0675
 2885TIP3   OH230069   2.881   5.712   0.147  0.4877  0.2582 -0.5218
 2885TIP3    H130070   2.946   5.679   0.085  1.0371 -0.9093  0.6240
 2885TIP3    H230071   2.926   5.710   0.232  0.0833  2.7384 -0.1667
 2886TIP3   OH230072   0.006   2.150  16.723  0.6398 -0.0942 -0.2190
 2886TIP3    H130073   0.020   2.137  16.817  0.6237 -0.8528 -0.3172
 2886TIP3    H230074  -0.013   2.062  16.689  1.1476  0.0941 -1.0166
 2887TIP3   OH230075   0.777   0.799   5.253 -0.3459 -0.5071 -0.5122
 2887TIP3    H130076   0.817   0.734   5.310 -0.0922  0.1354  0.0431
 2887TIP3    H230077   0.698   0.755   5.220 -0.8818 -0.6460  0.8781
 2888TIP3   OH230078   0.133   0.024   5.488 -0.3222  0.1579 -0.7809
 2888TIP3    H130079   0.223  -0.008   5.489 -0.5369 -0.4576 -0.8676
 2888TIP3    H230080   0.129   0.083   5.412  0.5134  1.7003  0.3220
 2889TIP3   OH230081   0.017   1.660  11.429 -0.1908  0.0705  0.1410
 2889TIP3    H130082   0.070   1.732  11.463  0.5058 -0.5767  0.4793
 2889TIP3    H230083   0.004   1.682  11.336  1.5767 -0.2331 -0.2252
 2890TIP3   OH230084   6.312   1.392   4.796 -0.4181 -0.0560 -0.5520
 2890TIP3    H130085   6.315   1.477   4.840  0.9977 -0.0718 -0.5441
 2890TIP3    H230086   6.322   1.413   4.703 -3.7860  0.0069 -0.9957
 2891TIP3   OH230087   0.465   3.576   1.100 -0.0785  0.2151 -0.2770
 2891TIP3    H130088   0.522   3.653   1.099 -0.2345  0.3515 -1.9695
 2891TIP3    H230089   0.379   3.609   1.076 -0.8571 -0.0562  1.8692
 2892TIP3   OH230090   2.948   0.318  13.352 -0.3421  0.4389  0.5492
 2892TIP3    H130091   2.938   0.223  13.352  0.9487  0.2694 -0.9625
 2892TIP3    H230092   2.859   0.351  13.341 -0.4924 -0.7245 -2.6596
 2893TIP3   OH230093   3.660   3.101   1.029  0.5522 -0.7922  0.0632
 2893TIP3    H130094   3.674   3.172   0.967 -0.1265  0.0692  0.8597
 2893TIP3    H230095   3.725   3.116   1.098  0.5959 -1.1109  0.0935
 2894TIP3   OH230096   4.748   1.937   4.892  0.4205  0.2270 -0.0211
 2894TIP3    H130097   4.720   1.851   4.860 -1.4473  1.0815 -0.8109
 2894TIP3    H230098   4.674   1.968   4.944  0.2704  2.1263 -1.2770
 2895TIP3   OH230099   1.065   3.979   1.805  0.1371 -0.1740  0.0307
 2895TIP3    H130100   1.144   4.031   1.822 -0.4733  1.7890 -2.5673
 2895TIP3    H230101   1.098   3.892   1.783  1.5141  0.3653 -0.1382
 2896TIP3   OH230102   2.203   0.517   6.148 -0.1388 -0.8289 -0.4038
 2896TIP3    H130103   2.189   0.612   6.153 -1.0298 -0.9109 -1.0542
 2896TIP3    H230104   2.159   0.482   6.226 -0.8129 -0.8035 -0.7692
 2897TIP3   OH230105   0.353   4.162  14.806  0.1217  0.3772  0.0097
 2897TIP3    H130106   0.367   4.104  14.881  0.3734  1.3979  0.7899
 2897TIP3    H230107   0.354   4.250  14.844  0.9411  0.9677 -1.2897
 2898TIP3   OH230108   0.602   1.317  15.717 -0.4609  0.0932 -0.0682
 2898TIP3    H130109   0.582   1.223  15.713  1.8766 -0.5806  1.8152
 2898TIP3    H230110   0.582   1.342  15.808 -1.0559  1.4600 -0.5466
 2899TIP3   OH230111   3.964   0.993  16.340  0.1996 -0.3559 -0.4478
 2899TIP3    H130112   4.049   0.965  16.304  1.1703  0.7004  0.8955
 2899TIP3    H230113   3.987   1.060  16.404 -1.4429 -1.7391  1.7385
 2900TIP3   OH230114   2.934   5.931  11.617  0.7426 -0.5728  0.7694
 2900TIP3    H130115   2.921   6.008  11.673 -0.5578 -0.1525 -0.0526
 2900TIP3    H230116   2.928   5.965  11.528 -0.0082 -1.6317  0.3910
 2901TIP3   OH230117   1.496   0.526  13.321 -0.3349 -0.1781 -0.1267
 2901TIP3    H130118   1.513   0.555  13.410  0.0123  0.4446 -0.3854
 2901TIP3    H230119   1.415   0.477  13.326  0.6480 -1.7870  0.8666
 2902TIP3   OH230120   0.890   3.168  11.344 -0.1693  0.0291 -0.2850
 2902TIP3    H130121   0.886   3.185  11.439 -2.3141 -0.7357 -0.1774
 2902TIP3    H230122   0.969   3.116  11.333  2.0015  2.8681  0.5351
 2903TIP3   OH230123   0.872   5.662   4.097 -0.3199  0.0069  0.0029
 2903TIP3    H130124   0.918   5.630   4.175 -0.3208  0.2853  0.1166
 2903TIP3    H230125   0.894   5.755   4.091 -0.1842 -0.0495 -0.4270
 2904TIP3   OH230126   2.660   0.246  13.698  0.5850  0.0730 -0.0863
 2904TIP3    H130127   2.581   0.205  13.663  0.2092 -0.2372  1.0807
 2904TIP3    H230128   2.641   0.260  13.791  2.1230 -0.5461  0.3572
 2905TIP3   OH230129   6.617   6.314   4.575 -0.1704 -0.2395  0.1582
 2905TIP3    H130130   6.583   6.246   4.633 -1.6444  2.1343  2.2809
 2905TIP3    H230131   6.551   6.322   4.507 -1.2894  0.6979  1.2994
 2906TIP3   OH230132   3.477   4.824  13.530 -0.1396  0.1997 -0.1854
 2906TIP3    H130133   3.509   4.779  13.608 -0.7275  1.0730  0.5778
 2906TIP3    H230134   3.385   4.797  13.522 -0.6913  1.6981  0.6505
 2907TIP3   OH230135   3.545   5.444   4.192  0.7864 -0.0756  0.4801
 2907TIP3    H130136   3.617   5.471   4.249  0.8690 -0.9696  0.8153
 2907TIP3    H230137   3.584   5.440   4.105  1.1415 -0.5312  0.6544
 2908TIP3   OH230138   2.986   3.275  14.473  0.0363  0.0797  0.2087
 2908TIP3    H130139   2.956   3.227  14.551  1.3560 -2.0641 -0.5063
 2908TIP3    H230140   2.947   3.228  14.399  0.4810  0.7932 -0.4948
 2909TIP3   OH230141   4.145   3.526   1.204  0.1006 -0.0878 -0.0135
 2909TIP3    H130142   4.183   3.543   1.118 -1.1902 -0.4165 -0.6788
 2909TIP3    H230143   4.097   3.607   1.225 -0.8799 -0.5707 -0.3355
 2910TIP3   OH230144   5.576   4.794   2.268 -0.1438  0.0828  0.2546
 2910TIP3    H130145   5.581   4.855   2.342  0.9968  1.8327 -1.1737
 2910TIP3    H230146   5.613   4.712   2.301  2.6432  1.5433  1.0027
 2911TIP3   OH230147   3.237   1.644  11.306  0.5076 -0.5216  0.0968
 2911TIP3    H130148   3.235   1.739  11.306  0.6037 -0.5200  0.1562
 2911TIP3    H230149   3.247   1.620  11.214  1.8330 -0.4499  0.2065
 2912TIP3   OH230150   2.013   1.584   3.645 -0.1565  0.0319  0.0447
 2912TIP3    H130151   2.053   1.579   3.558 -1.8052 -0.8389 -0.7143
 2912TIP3    H230152   2.057   1.658   3.687  2.6113 -1.2186 -0.4660
 2913TIP3   OH230153   6.441   0.797   6.507  0.1278  0.0729  0.3646
 2913TIP3    H130154   6.465   0.712   6.544  2.8788  0.2833 -0.6873
 2913TIP3    H230155   6.388   0.838   6.575 -0.4877 -2.1012  1.2856
 2914TIP3   OH230156   2.237   0.538   5.858 -0.1543 -0.2550  0.5293
 2914TIP3    H130157   2.234   0.634   5.860 -1.2996 -0.2537 -0.1827
 2914TIP3    H230158   2.210   0.511   5.946 -0.6045  0.0839  0.4997
 2915TIP3   OH230159   3.132   3.024  11.358  0.2048  0.3406  0.2386
 2915TIP3    H130160   3.192   3.049  11.288  0.7506  0.6184  0.7914
 2915TIP3    H230161   3.053   2.993  11.313  0.9670 -0.5622 -0.5074
 2916TIP3   OH230162   1.522   5.011  16.616  0.0119  0.7587 -0.8117
 2916TIP3    H130163   1.541   5.055  16.700 -1.8131 -1.2720  0.7887
 2916TIP3    H230164   1.609   4.992  16.580  0.8680  1.4797  0.7302
 2917TIP3   OH230165   0.771   2.045  12.591  0.2339  0.2170 -0.0881
 2917TIP3    H130166   0.703   2.001  12.539  0.2121  0.7087 -0.4876
 2917TIP3    H230167   0.835   1.976  12.610 -0.9864 -0.5649  1.4028
 2918TIP3   OH230168   2.394   0.582  17.235 -0.3253 -0.0746  0.2192
 2918TIP3    H130169   2.378   0.560  17.144 -1.0433  2.8760 -0.4935
 2918TIP3    H230170   2.376   0.502  17.284 -0.8008 -1.4735 -2.1258
 2919TIP3   OH230171   2.613   4.577   0.534 -0.3034 -0.1655  0.5347
 2919TIP3    H130172   2.561   4.511   0.580  0.1406 -0.3473  0.7884
 2919TIP3    H230173   2.631   4.538   0.449 -0.7336 -0.0276  0.3831
 2920TIP3   OH230174   3.868   3.426  13.835  0.1049 -0.2288  0.4589
 2920TIP3    H130175   3.798   3.404  13.774  0.7737 -0.3545 -0.2703
 2920TIP3    H230176   3.908   3.342  13.857  0.9634 -0.0165 -0.2709
 2921TIP3   OH230177   6.277   4.132   4.592  0.1838  0.8304 -0.0255
 2921TIP3    H130178   6.358   4.160   4.550  0.1832 -2.1421 -2.3366
 2921TIP3    H230179   6.219   4.107   4.519 -1.5280 -0.3719  1.6495
 2922TIP3   OH230180   2.140   0.537  13.208 -0.0701  0.2837  0.1874
 2922TIP3    H130181   2.217   0.577  13.250 -0.1975  1.8717 -0.9936
 2922TIP3    H230182   2.077   0.609  13.201  0.3404  0.4529 -3.6507
 2923TIP3   OH230183   5.162   3.159   1.251  0.0782 -0.3420 -0.3396
 2923TIP3    H130184   5.177   3.222   1.180  0.8678  1.2902  1.1911
 2923TIP3    H230185   5.226   3.090   1.236  0.7025  0.3314 -0.8612
 2924TIP3   OH230186   6.701   1.881   4.402  0.2776  0.2033  0.1151
 2924TIP3    H130187   6.611   1.862   4.430  1.2043 -1.3587  2.2776
 2924TIP3    H230188   6.738   1.933   4.474  1.7677 -1.0789  0.3182
 2925TIP3   OH230189   1.390   4.557  13.057  0.6947  0.1922  0.3238
 2925TIP3    H130190   1.421   4.615  13.126 -0.1586  0.5207  0.4503
 2925TIP3    H230191   1.309   4.598  13.025  0.3294 -0.6713  0.0898
 2926TIP3   OH230192   1.320   4.265   0.781  0.4810  0.1062  0.1968
 2926TIP3    H130193   1.409   4.269   0.817  0.8855  1.3550 -0.8797
 2926TIP3    H230194   1.295   4.173   0.790  0.6776  0.2641  3.2793
 2927TIP3   OH230195   4.777   6.534  12.197 -0.2250 -0.6928 -0.7028
 2927TIP3    H130196   4.752   6.570  12.282 -0.0406 -1.3458 -0.3590
 2927TIP3    H230197   4.792   6.441  12.214  0.8959 -0.6288 -1.2135
 2928TIP3   OH230198   4.362   6.722   1.867 -0.1072 -0.1689 -0.5231
 2928TIP3    H130199   4.456   6.705   1.871 -0.1368 -0.2879 -0.2757
 2928TIP3    H230200   4.353   6.798   1.810  0.2852  0.9784  0.8775
 2929TIP3   OH230201   5.881   4.403   5.220 -0.3752  0.1942 -0.4870
 2929TIP3    H130202   5.938   4.389   5.296  0.3882  1.5762 -0.7780
 2929TIP3    H230203   5.876   4.317   5.178  0.8683 -0.1275 -0.0277
 2930TIP3   OH230204   4.224   2.727  14.476  0.3288 -0.0549 -0.1417
 2930TIP3    H130205   4.289   2.666  14.441 -0.5404 -0.7414 -0.5850
 2930TIP3    H230206   4.222   2.709  14.570  2.0753  1.2303  0.1997
 2931TIP3   OH230207   5.530   3.022  15.345  0.0998  0.4124 -0.1668
 2931TIP3    H130208   5.604   3.067  15.386  0.0859 -0.3425  0.7286
 2931TIP3    H230209   5.569   2.974  15.272  0.6360 -0.5561  0.7317
 2932TIP3   OH230210   5.577   0.204  11.376  0.8572  0.0786  0.9676
 2932TIP3    H130211   5.578   0.169  11.287 -1.5072  0.6453  0.6593
 2932TIP3    H230212   5.629   0.284  11.371  2.8160 -1.1283  0.7253
 2933TIP3   OH230213   3.709   5.210   1.796  0.9088 -0.6131  0.1913
 2933TIP3    H130214   3.669   5.215   1.710 -0.3645  2.0032  0.8543
 2933TIP3    H230215   3.803   5.214   1.779  0.6795 -0.4249 -1.0939
 2934TIP3   OH230216   0.247   5.828   0.471  0.0742  0.3527  0.3665
 2934TIP3    H130217   0.335   5.811   0.505 -0.4194 -2.1586  0.5738
 2934TIP3    H230218   0.238   5.923   0.475  2.7343  0.6786  0.4124
 2935TIP3   OH230219   4.537   1.771   3.405  0.3600 -0.4092  0.1698
 2935TIP3    H130220   4.620   1.775   3.452  1.9753 -0.5088 -2.5166
 2935TIP3    H230221   4.494   1.854   3.427  0.5548 -0.8436  2.5053
 2936TIP3   OH230222   5.897   3.764   5.376  0.0659 -0.0977 -0.2548
 2936TIP3    H130223   5.983   3.738   5.344  0.1207  0.4875 -0.5924
 2936TIP3    H230224   5.883   3.710   5.454  0.5517 -0.4991 -0.4428
 2937TIP3   OH230225   4.147   0.430   5.147  0.4378 -0.0236  0.2088
 2937TIP3    H130226   4.124   0.362   5.082 -1.5080 -1.8156  2.5592
 2937TIP3    H230227   4.076   0.426   5.211  2.0211  1.9615  2.2395
 2938TIP3   OH230228   6.215   1.369   2.859 -0.1998 -0.3465  0.4280
 2938TIP3    H130229   6.175   1.287   2.887  0.4842 -0.4325  1.2023
 2938TIP3    H230230   6.298   1.343   2.820  0.0599 -0.0243  0.7547
 2939TIP3   OH230231   4.932   2.138  11.049 -0.5520  0.5645  0.4818
 2939TIP3    H130232   5.002   2.103  11.104 -0.2653  1.1089  0.4754
 2939TIP3    H230233   4.918   2.227  11.082 -1.1313  0.5171  0.3756
 2940TIP3   OH230234   5.016   4.536   2.681  0.1867  0.4598 -0.1307
 2940TIP3    H130235   5.007   4.494   2.595  0.8811  0.6703 -0.3166
 2940TIP3    H230236   4.946   4.498   2.734  0.7642 -0.9052 -0.3084
 2941TIP3   OH230237   3.477   1.736  16.406 -0.0541  0.2820 -0.0101
 2941TIP3    H130238   3.514   1.655  16.442  1.5297 -0.0630 -2.1858
 2941TIP3    H230239   3.474   1.796  16.480  0.1775 -1.2865  1.3319
 2942TIP3   OH230240   3.728   0.727  14.109  0.4559  0.0760 -0.3319
 2942TIP3    H130241   3.752   0.730  14.016  1.1402  1.0007 -0.1282
 2942TIP3    H230242   3.708   0.817  14.132  1.1543 -0.0029  0.6469
 2943TIP3   OH230243   5.732   2.902  14.487  0.5771  0.1052 -0.5246
 2943TIP3    H130244   5.760   2.988  14.520 -0.5437  1.0777 -1.9762
 2943TIP3    H230245   5.775   2.839  14.545  0.9059  1.6491  0.9973
 2944TIP3   OH230246   6.047   0.262   5.913 -0.2433 -0.1286 -0.3183
 2944TIP3    H130247   6.133   0.265   5.955 -1.1315  2.6931  1.6305
 2944TIP3    H230248   5.988   0.230   5.981 -1.3873  2.4848  0.0589
 2945TIP3   OH230249   5.163   6.002   0.836  0.1031  0.2017  0.2315
 2945TIP3    H130250   5.158   5.922   0.784  1.8878  0.1711  0.0710
 2945TIP3    H230251   5.101   5.988   0.908 -0.8345 -0.6175 -0.7118
 2946TIP3   OH230252   1.689   5.082   5.480  0.3462  0.6681 -0.4736
 2946TIP3    H130253   1.685   5.177   5.490  0.8749  0.8373 -1.5908
 2946TIP3    H230254   1.757   5.054   5.541 -1.7357  0.6085  1.9487
 2947TIP3   OH230255   2.242   0.771   2.318 -0.4976 -0.0524  0.0752
 2947TIP3    H130256   2.273   0.806   2.402 -0.7085  2.4252 -0.8064
 2947TIP3    H230257   2.319   0.775   2.261  0.9403 -5.5947  0.9826
 2948TIP3   OH230258   6.550   1.972   5.309 -0.2848  0.3262 -0.0039
 2948TIP3    H130259   6.504   2.053   5.288  0.1193  0.2296 -1.3388
 2948TIP3    H230260   6.642   1.999   5.319 -0.3372  0.2293  0.8841
 2949TIP3   OH230261   5.605   0.061  15.028  0.5746  0.1741 -0.0255
 2949TIP3    H130262   5.669   0.031  15.093 -0.4398 -0.2642  0.7832
 2949TIP3    H230263   5.614   0.156  15.028  1.5014  0.0980 -0.2128
 2950TIP3   OH230264   0.983   3.397  13.747 -0.1411 -0.6396 -0.5703
 2950TIP3    H130265   0.946   3.456  13.812 -1.0694  0.1119 -1.7420
 2950TIP3    H230266   1.066   3.437  13.722  0.0208 -0.7144 -0.1611
 2951TIP3   OH230267   0.589   2.122   0.240  0.3755  0.4418 -0.3511
 2951TIP3    H130268   0.551   2.035   0.230  0.1224  0.2875  1.5407
 2951TIP3    H230269   0.562   2.169   0.161 -0.5303 -0.8139 -0.8252
 2952TIP3   OH230270   2.688   6.499   6.817 -0.0481  0.1204 -0.0778
 2952TIP3    H130271   2.777   6.463   6.815  0.0556  0.3769 -0.8923
 2952TIP3    H230272   2.691   6.571   6.754 -0.6054  0.6890  0.5380
 2953TIP3   OH230273   4.937   3.634  13.918 -0.0349 -0.1917  0.3399
 2953TIP3    H130274   4.854   3.670  13.949  0.4859  1.0370  0.3658
 2953TIP3    H230275   4.986   3.614  13.998 -0.3324 -1.0132  0.3255
 2954TIP3   OH230276   6.443   3.370  15.069 -0.1306 -0.2196 -0.2340
 2954TIP3    H130277   6.516   3.310  15.053 -0.4332 -0.4810 -0.6826
 2954TIP3    H230278   6.370   3.312  15.092 -0.3364 -0.0035 -0.3315
 2955TIP3   OH230279   5.742   2.405   6.591  0.5634  0.7585  0.0070
 2955TIP3    H130280   5.718   2.312   6.594  1.2771  0.5347 -0.6229
 2955TIP3    H230281   5.663   2.452   6.616  0.0803 -0.0116 -0.0444
 2956TIP3   OH230282   6.014   3.050  11.538 -0.1538  0.1366  0.3597
 2956TIP3    H130283   5.921   3.064  11.520 -0.0668  0.1314 -0.1002
 2956TIP3    H230284   6.026   3.082  11.628 -0.8288 -0.8877  0.8314
 2957TIP3   OH230285   0.736   6.404  15.868  0.2134 -1.0127 -0.1924
 2957TIP3    H130286   0.801   6.457  15.823 -0.3870  0.8636  1.0312
 2957TIP3    H230287   0.756   6.416  15.961 -1.5282 -0.8358  0.1839
 2958TIP3   OH230288   0.948   1.302  12.251  0.3510 -0.4376  0.4052
 2958TIP3    H130289   1.035   1.279  12.218  0.5822 -1.2636  1.5455
 2958TIP3    H230290   0.902   1.219  12.259 -0.6834  0.0252 -0.5256
 2959TIP3   OH230291   1.087   6.567   0.331  0.4087  0.0606 -0.6322
 2959TIP3    H130292   1.156   6.520   0.377  0.3482  0.2640 -0.3281
 2959TIP3    H230293   1.104   6.659   0.351  1.2265  0.2768 -2.1726
 2960TIP3   OH230294   1.110   2.707   1.660  0.2117 -0.0150 -0.5738
 2960TIP3    H130295   1.098   2.761   1.582  1.6666  0.5352 -0.4425
 2960TIP3    H230296   1.126   2.769   1.730  1.1891 -0.5888 -0.2801
 2961TIP3   OH230297   6.473   4.514  11.768  0.5690 -0.0243 -0.6629
 2961TIP3    H130298   6.395   4.460  11.755  0.5392 -1.3786  3.7195
 2961TIP3    H230299   6.440   4.603  11.777 -0.3797 -0.4554  0.2531
 2962TIP3   OH230300   1.632   5.039  15.840 -0.4598 -0.2292 -0.1399
 2962TIP3    H130301   1.685   5.015  15.764  0.1437 -0.5165  0.3661
 2962TIP3    H230302   1.558   4.979  15.838 -0.2126 -0.5318 -0.2507
 2963TIP3   OH230303   5.361   5.481   2.569  0.1419 -0.1476  0.1086
 2963TIP3    H130304   5.328   5.416   2.507  0.3241  0.9249 -1.1733
 2963TIP3    H230305   5.453   5.458   2.581  0.3413  0.1497 -0.7522
 2964TIP3   OH230306   4.392   5.675  16.922 -0.7117 -0.0662 -0.1486
 2964TIP3    H130307   4.302   5.675  16.892 -0.7078  0.8272 -0.1911
 2964TIP3    H230308   4.395   5.608  16.991 -1.4604  0.0792  0.0256
 2965TIP3   OH230309   1.528   4.708   0.377  0.1478 -0.0128  0.4657
 2965TIP3    H130310   1.494   4.642   0.438 -1.3710 -0.9455 -1.3063
 2965TIP3    H230311   1.599   4.665   0.330 -0.5961 -0.2963 -0.4276
 2966TIP3   OH230312   3.199   3.078  16.776  0.3357 -0.8901 -0.0651
 2966TIP3    H130313   3.279   3.069  16.828 -0.8283  0.6576  2.1765
 2966TIP3    H230314   3.139   3.013  16.813 -0.6176  0.4521  0.8605
 2967TIP3   OH230315   5.193   5.074   2.232  0.0478  0.6973  0.1770
 2967TIP3    H130316   5.097   5.070   2.233 -0.0334  2.2013  0.2636
 2967TIP3    H230317   5.219   5.027   2.312 -0.5614 -0.4312 -0.2607
 2968TIP3   OH230318   1.686   6.635  13.389  0.2247  0.2221  0.3240
 2968TIP3    H130319   1.591   6.621  13.386  0.2882 -0.4033  1.1091
 2968TIP3    H230320   1.696   6.729  13.406 -0.2588  0.2207  0.6260
 2969TIP3   OH230321   2.058   6.606   2.765 -0.1006 -0.6680 -0.0036
 2969TIP3    H130322   2.008   6.578   2.842 -2.0918 -1.2489 -1.4270
 2969TIP3    H230323   2.054   6.702   2.769  0.3252 -0.6700  0.8970
 2970TIP3   OH230324   6.457   5.109  15.013  0.1357  0.3492  0.1230
 2970TIP3    H130325   6.484   5.050  15.083  0.6532  0.5645  0.1093
 2970TIP3    H230326   6.475   5.196  15.047  0.1835  0.4637 -0.1929
 2971TIP3   OH230327   4.876   2.927   1.590 -0.1069  0.1331  0.0430
 2971TIP3    H130328   4.799   2.966   1.631 -0.1857  0.4700 -0.4086
 2971TIP3    H230329   4.921   3.001   1.549 -0.3971 -0.2666 -1.0527
 2972TIP3   OH230330   5.116   3.071   3.270  0.0401 -0.5708 -0.3062
 2972TIP3    H130331   5.142   2.990   3.226 -1.4974 -0.6164 -1.2085
 2972TIP3    H230332   5.170   3.139   3.228  0.8890 -1.0218  0.0222
 2973TIP3   OH230333   4.622   0.691  15.858  0.0013  0.3075  0.2970
 2973TIP3    H130334   4.606   0.597  15.843 -0.4414  0.5398 -0.7534
 2973TIP3    H230335   4.714   0.695  15.885 -0.3381 -0.5622  1.7509
 2974TIP3   OH230336   3.311   5.858   5.134 -0.3881 -0.5172  0.4172
 2974TIP3    H130337   3.310   5.951   5.114  0.9194 -0.3422  1.0472
 2974TIP3    H230338   3.279   5.851   5.224 -0.7906 -0.7196  0.2632
 2975TIP3   OH230339   6.120   3.824   0.525 -0.0089 -0.1478  0.3647
 2975TIP3    H130340   6.067   3.904   0.526  2.4835  1.6605  3.5511
 2975TIP3    H230341   6.083   3.770   0.595  0.0438 -0.5803  0.0621
 2976TIP3   OH230342   3.240   1.244  14.954 -0.1557  0.5577  0.2603
 2976TIP3    H130343   3.185   1.212  15.026  0.3933  1.7560  1.2361
 2976TIP3    H230344   3.328   1.217  14.976 -0.2166 -0.7771 -0.9741
 2977TIP3   OH230345   5.567   4.269   2.599 -0.3079 -1.1470  0.7935
 2977TIP3    H130346   5.598   4.229   2.518 -1.6514 -2.6483  0.9867
 2977TIP3    H230347   5.494   4.214   2.627 -3.2474  2.2132  0.3584
 2978TIP3   OH230348   0.448   5.620  14.554 -0.5796 -0.7382  0.0515
 2978TIP3    H130349   0.399   5.684  14.503  1.3130  0.5021 -0.2632
 2978TIP3    H230350   0.380   5.575  14.605 -2.1839  0.0214 -1.2928
 2979TIP3   OH230351   3.490   3.150  17.284 -0.5140  0.1860  0.1126
 2979TIP3    H130352   3.440   3.204  17.224  0.7919 -0.3170 -1.5060
 2979TIP3    H230353   3.426   3.088  17.319 -1.4915  1.0966 -0.0006
 2980TIP3   OH230354   1.096   1.308   6.489 -0.7494 -0.3211  0.1683
 2980TIP3    H130355   1.009   1.269   6.487 -0.2843 -1.4423  0.7295
 2980TIP3    H230356   1.101   1.362   6.410 -1.9901 -0.1280  0.2047
 2981TIP3   OH230357   3.387   1.943  15.613  0.1124 -0.1126 -0.2523
 2981TIP3    H130358   3.391   2.036  15.589  2.2039 -0.6001 -2.1965
 2981TIP3    H230359   3.302   1.932  15.655 -0.2438  2.6419 -0.0828
 2982TIP3   OH230360   1.942   5.180  16.854  0.5580 -0.1560  0.3046
 2982TIP3    H130361   1.958   5.274  16.864 -0.6543 -0.0854  2.1603
 2982TIP3    H230362   1.961   5.162  16.762 -0.8861  2.2692 -0.5757
 2983TIP3   OH230363   1.007   4.800  15.321 -0.0421 -0.1929 -0.5507
 2983TIP3    H130364   0.963   4.880  15.292 -0.7046 -0.3097  0.1159
 2983TIP3    H230365   0.991   4.737  15.252 -0.1237  0.0396 -0.7461
 2984TIP3   OH230366   6.322   6.020   5.300 -0.0996  0.4087  0.2051
 2984TIP3    H130367   6.319   6.090   5.234 -1.1662  0.6407  0.4775
 2984TIP3    H230368   6.333   5.940   5.249  1.6527  0.7936 -0.0802
 2985TIP3   OH230369   2.053   1.682  14.060  0.2638 -0.4003  0.3678
 2985TIP3    H130370   1.994   1.635  14.118 -2.0418  0.9131 -0.7735
 2985TIP3    H230371   2.091   1.751  14.115 -1.1505  0.2302  0.6042
 2986TIP3   OH230372   2.911   6.262   6.275 -0.2319  0.1169  0.2768
 2986TIP3    H130373   2.827   6.255   6.320 -0.6746  0.5810 -0.4510
 2986TIP3    H230374   2.906   6.196   6.206 -0.8418  1.4697 -1.0363
 2987TIP3   OH230375   4.236   0.756   0.078  0.0800 -0.4628  0.1374
 2987TIP3    H130376   4.162   0.751   0.018  0.8438  1.4041 -1.0267
 2987TIP3    H230377   4.249   0.665   0.107 -3.7438 -0.6263  1.8320
 2988TIP3   OH230378   2.914   6.515   5.671  0.0415  0.8138 -0.5955
 2988TIP3    H130379   2.930   6.585   5.734  0.7998  0.8252 -0.7905
 2988TIP3    H230380   2.984   6.452   5.686 -1.8921 -1.1108  1.1808
 2989TIP3   OH230381   0.962   4.045   0.735  0.5990 -0.1264 -0.5611
 2989TIP3    H130382   0.941   4.094   0.815 -1.4240 -3.8038  1.4265
 2989TIP3    H230383   0.951   4.109   0.665  0.9775  2.9325  1.9315
 2990TIP3   OH230384   4.141   3.414  15.257  0.6442 -0.7023 -0.0093
 2990TIP3    H130385   4.212   3.469  15.291 -0.2446  0.5384 -0.0845
 2990TIP3    H230386   4.061   3.463  15.276 -0.0583 -1.0704 -1.7616
 2991TIP3   OH230387   0.210   1.836   5.946  0.4806  0.0565 -0.0899
 2991TIP3    H130388   0.222   1.931   5.947 -1.3304  0.3539 -1.4452
 2991TIP3    H230389   0.275   1.803   6.008  0.5445  2.2361  1.1010
 2992TIP3   OH230390   3.852   4.385   1.494 -0.1605 -0.5272 -0.1785
 2992TIP3    H130391   3.872   4.304   1.448  1.5751 -0.0590 -0.2980
 2992TIP3    H230392   3.865   4.454   1.428 -1.4458 -0.1054 -0.0324
 2993TIP3   OH230393   6.288   1.893   1.657  0.1419 -0.4895 -0.8802
 2993TIP3    H130394   6.263   1.872   1.567  1.0965 -0.2121 -1.2198
 2993TIP3    H230395   6.332   1.814   1.688  0.4904 -0.3094 -0.9169
 2994TIP3   OH230396   1.962   0.429   5.313 -0.8563 -0.0534  0.0923
 2994TIP3    H130397   1.953   0.372   5.389 -1.0894 -1.0867 -0.6958
 2994TIP3    H230398   1.986   0.514   5.350 -0.0444 -0.7646  1.2617
 2995TIP3   OH230399   0.478   6.282  16.831 -0.8316 -0.7072  0.3026
 2995TIP3    H130400   0.438   6.328  16.905 -0.8174  2.2556 -1.3675
 2995TIP3    H230401   0.560   6.248  16.865 -0.7101  0.7925  1.6030
 2996TIP3   OH230402   4.251   2.886   0.136 -0.3666  0.0247  0.5829
 2996TIP3    H130403   4.343   2.905   0.120 -0.6270 -0.3535 -1.6666
 2996TIP3    H230404   4.250   2.837   0.218  1.3480  0.5986  0.9801
 2997TIP3   OH230405   3.215   5.767  11.427  0.0049  0.3716  0.5359
 2997TIP3    H130406   3.239   5.859  11.417  1.2824  0.1897  1.6156
 2997TIP3    H230407   3.263   5.722  11.357 -1.6286  0.6330 -0.8193
 2998TIP3   OH230408   5.093   4.655  12.923  0.1688 -0.2283  0.6978
 2998TIP3    H130409   5.184   4.624  12.925 -0.0787 -1.0883 -0.6070
 2998TIP3    H230410   5.048   4.594  12.865 -1.2231  0.2807  1.2111
 2999TIP3   OH230411   0.091   1.272  12.128 -0.4401 -0.1584  0.2887
 2999TIP3    H130412   0.036   1.245  12.055  1.6257  1.9336 -2.2276
 2999TIP3    H230413   0.176   1.231  12.112  0.4359  1.3955  0.7129
 3000TIP3   OH230414   3.254   6.496  13.094 -0.1109 -0.4604  0.0805
 3000TIP3    H130415   3.178   6.553  13.101  0.9073  0.7068  3.8126
 3000TIP3    H230416   3.329   6.555  13.088  0.6919 -1.5798 -3.2390
 3001TIP3   OH230417   5.655   1.319  16.346 -0.2028  0.0365 -0.2132
 3001TIP3    H130418   5.683   1.262  16.417 -0.4695  0.3832  0.1754
 3001TIP3    H230419   5.686   1.406  16.371 -1.3596  0.3788  0.0920
 3002TIP3   OH230420   0.886   6.346  16.806  0.2724 -0.0707 -0.0744
 3002TIP3    H130421   0.815   6.299  16.849 -0.0736  1.6368  1.3096
 3002TIP3    H230422   0.963   6.329  16.861  0.7752 -1.1520 -1.0569
 3003TIP3   OH230423   3.030   5.529  12.184 -0.0803 -0.0119 -0.0013
 3003TIP3    H130424   2.994   5.603  12.235  2.5169  0.6879  0.9586
 3003TIP3    H230425   2.989   5.452  12.222  0.2696  0.6589  1.8536
 3004TIP3   OH230426   2.263   0.707   2.035  0.5981  0.4256  0.2495
 3004TIP3    H130427   2.199   0.756   1.983  0.9922  1.6461  0.8782
 3004TIP3    H230428   2.347   0.744   2.011  1.0756 -1.0231 -0.4098
 3005TIP3   OH230429   5.159   0.144  15.449 -0.0781  0.3499  0.3057
 3005TIP3    H130430   5.105   0.222  15.459 -0.0266  0.3793  0.3540
 3005TIP3    H230431   5.175   0.138  15.355 -0.9049 -0.1598  0.1822
 3006TIP3   OH230432   6.015   6.678   5.843  0.4847  0.2361 -0.2956
 3006TIP3    H130433   6.094   6.733   5.843  0.4466  0.2984 -1.1014
 3006TIP3    H230434   6.023   6.625   5.764  0.1008 -0.3212  0.0343
 3007TIP3   OH230435   5.409   2.504   5.921 -0.1646  0.2768 -0.8786
 3007TIP3    H130436   5.380   2.526   6.009  0.0459  0.8911 -0.9579
 3007TIP3    H230437   5.485   2.447   5.934 -1.1197 -0.9809 -0.6720
 3008TIP3   OH230438   6.114   5.826  13.383  0.6675 -0.1534  0.2746
 3008TIP3    H130439   6.055   5.873  13.442 -0.1689 -0.9146  0.0679
 3008TIP3    H230440   6.131   5.742  13.427  0.3284 -0.5779 -0.3771
 3009TIP3   OH230441   5.360   0.363  12.500 -0.6219 -0.4916 -0.0590
 3009TIP3    H130442   5.304   0.301  12.454 -0.6450 -1.0204  0.6589
 3009TIP3    H230443   5.441   0.364  12.450 -0.8367 -0.6539 -0.4098
 3010TIP3   OH230444   2.000   5.183  15.998  0.1252 -0.4811 -0.3729
 3010TIP3    H130445   1.951   5.242  15.940  0.3984 -0.5920 -0.7150
 3010TIP3    H230446   2.021   5.107  15.944 -0.1556 -0.8627  0.0438
 3011TIP3   OH230447   5.172   2.529   2.876  0.3402 -0.5317 -0.3952
 3011TIP3    H130448   5.112   2.476   2.928  1.2392 -1.6065 -0.3925
 3011TIP3    H230449   5.145   2.514   2.785 -0.4758  0.3849 -0.3135
 3012TIP3   OH230450   4.385   6.386   0.714  0.9288  0.0645  0.3497
 3012TIP3    H130451   4.459   6.356   0.662 -0.3943 -0.7008 -1.1745
 3012TIP3    H230452   4.398   6.346   0.800  2.0453 -0.3759 -0.0087
 3013TIP3   OH230453   1.137   3.769  13.121 -0.0981 -0.3557  0.6760
 3013TIP3    H130454   1.171   3.685  13.093 -0.2033 -0.4834  0.9293
 3013TIP3    H230455   1.208   3.831  13.101  0.8711 -0.8121  2.4768
 3014TIP3   OH230456   2.729   0.651  17.224  0.0499 -0.1742 -0.0275
 3014TIP3    H130457   2.679   0.712  17.170  0.4975 -0.3077 -0.6041
 3014TIP3    H230458   2.710   0.565  17.187 -0.8507 -0.4396  0.9979
 3015TIP3   OH230459   0.527   1.757  13.437  0.0596 -0.6677  0.0558
 3015TIP3    H130460   0.566   1.684  13.389  0.7208 -0.4934  0.3179
 3015TIP3    H230461   0.462   1.793  13.376  2.2135  0.7860 -1.5496
 3016TIP3   OH230462   2.320   3.986  10.996 -0.1845  0.3195  0.2176
 3016TIP3    H130463   2.311   4.018  10.906 -2.0350  2.6027  1.0997
 3016TIP3    H230464   2.283   4.056  11.050  1.6275 -0.6132  2.8509
 3017TIP3   OH230465   2.588   2.517   1.153  0.4020  0.0859  0.0989
 3017TIP3    H130466   2.571   2.610   1.137  0.5477 -0.0049 -0.6083
 3017TIP3    H230467   2.673   2.500   1.114  0.0088 -0.5299 -0.5123
 3018TIP3   OH230468   4.079   1.964   2.598  0.3368 -0.1708  0.3038
 3018TIP3    H130469   4.017   2.019   2.646  0.4733  0.9813 -0.7930
 3018TIP3    H230470   4.042   1.958   2.510  1.0752 -0.6234  0.0187
 3019TIP3   OH230471   1.842   4.837   0.301 -0.6244  0.7568  0.0986
 3019TIP3    H130472   1.810   4.856   0.389  0.6070  2.3475  0.2542
 3019TIP3    H230473   1.912   4.901   0.287  0.3346 -0.5374 -1.3954
 3020TIP3   OH230474   2.002   4.852  13.651 -0.3905  0.0157 -0.0941
 3020TIP3    H130475   1.965   4.876  13.736 -0.4833  3.5431 -0.9699
 3020TIP3    H230476   1.926   4.836  13.595 -0.4097  0.2859 -0.1467
 3021TIP3   OH230477   0.328   5.098   0.435 -0.3440  0.6362  0.3927
 3021TIP3    H130478   0.360   5.162   0.372  0.0205  1.0345  0.9722
 3021TIP3    H230479   0.236   5.085   0.411 -0.4555  1.4680  0.3407
 3022TIP3   OH230480   0.857   1.008   2.277 -0.1794  0.0195  0.0227
 3022TIP3    H130481   0.862   0.914   2.260  1.5408 -0.0378  0.6422
 3022TIP3    H230482   0.881   1.017   2.369 -1.4414  0.9948  0.2893
 3023TIP3   OH230483   3.792   1.289  14.982  0.5916 -0.3335  0.1631
 3023TIP3    H130484   3.722   1.227  15.003 -1.1572  1.4871  0.0827
 3023TIP3    H230485   3.849   1.242  14.921 -0.9788 -1.6660 -0.3442
 3024TIP3   OH230486   2.042   3.217  16.183  0.2916  0.3781  0.3858
 3024TIP3    H130487   2.100   3.141  16.186 -2.6317 -2.0549  0.5008
 3024TIP3    H230488   2.048   3.248  16.092  0.1708 -1.2385 -0.2158
 3025TIP3   OH230489   2.523   1.738  16.573 -0.1371 -0.3145  0.4242
 3025TIP3    H130490   2.499   1.722  16.481  1.7508 -0.3785 -0.1066
 3025TIP3    H230491   2.582   1.666  16.595 -1.6712 -1.1072  2.1914
 3026TIP3   OH230492   4.824   4.169   4.678  0.3179 -0.0539 -0.9155
 3026TIP3    H130493   4.838   4.078   4.653 -1.1094 -0.2059 -1.2605
 3026TIP3    H230494   4.729   4.177   4.686  0.3044  1.7340 -2.2129
 3027TIP3   OH230495   2.027   4.385  13.722  0.3336 -0.2152 -0.3789
 3027TIP3    H130496   1.941   4.353  13.695  0.6563 -0.4330 -1.1639
 3027TIP3    H230497   2.010   4.436  13.802 -0.5044 -0.3399 -0.4760
 3028TIP3   OH230498   1.668   2.898   1.505 -0.1241  0.2764 -0.5207
 3028TIP3    H130499   1.711   2.886   1.420  0.0342 -0.4909 -0.3405
 3028TIP3    H230500   1.624   2.983   1.498 -0.0692  0.2464 -1.3494
 3029TIP3   OH230501   4.147   5.299  12.437 -0.2164 -0.5061  0.2611
 3029TIP3    H130502   4.217   5.353  12.475 -1.3860  0.7017  0.7890
 3029TIP3    H230503   4.112   5.250  12.511  0.5662 -1.7138 -0.1459
 3030TIP3   OH230504   5.046   0.233  12.647  0.6607 -0.3625  0.3903
 3030TIP3    H130505   4.951   0.227  12.635  0.6690 -0.4399  0.3616
 3030TIP3    H230506   5.057   0.304  12.709  0.6403  0.3774 -0.4407
 3031TIP3   OH230507   6.004   5.459   5.556 -1.1513  0.2281 -0.3892
 3031TIP3    H130508   6.053   5.378   5.541 -2.6956 -1.2544  1.9164
 3031TIP3    H230509   5.917   5.442   5.521 -1.7455  0.5216  0.8615
 3032TIP3   OH230510   5.325   6.679   2.852 -0.1573  0.5894  0.1602
 3032TIP3    H130511   5.325   6.695   2.758 -1.7239 -0.8545 -0.1372
 3032TIP3    H230512   5.411   6.707   2.881  0.3837  1.0106 -1.7057
 3033TIP3   OH230513   2.069   3.466  10.682  0.9452 -0.0262  0.2570
 3033TIP3    H130514   2.035   3.513  10.606 -1.9940 -0.6466  1.0829
 3033TIP3    H230515   2.122   3.395  10.644 -0.8565 -0.6273 -1.2902
 3034TIP3   OH230516   4.328   5.525   2.751  0.2880  0.3816 -0.8728
 3034TIP3    H130517   4.267   5.527   2.677  0.3169  2.1948 -0.8822
 3034TIP3    H230518   4.413   5.544   2.711  0.6887 -0.8444 -0.6644
 3035TIP3   OH230519   2.956   0.426   5.995 -0.4445 -0.4210 -0.1284
 3035TIP3    H130520   2.935   0.473   6.076  0.6149  3.3318 -1.7614
 3035TIP3    H230521   2.878   0.436   5.940 -0.2299 -0.6385 -0.4788
 3036TIP3   OH230522   2.429   5.634  13.137 -0.8278 -0.0401 -0.0858
 3036TIP3    H130523   2.450   5.722  13.104  0.6366 -0.2629  0.1825
 3036TIP3    H230524   2.507   5.607  13.184 -1.8490 -0.8714  1.1971
 3037TIP3   OH230525   0.240   2.056   3.595  0.3529 -0.1925  0.0105
 3037TIP3    H130526   0.159   2.094   3.629  0.8729  0.4551  0.5626
 3037TIP3    H230527   0.293   2.132   3.569  1.0304 -0.5794  0.2214
 3038TIP3   OH230528   0.571   4.843  17.029  0.4508  0.5378 -0.6947
 3038TIP3    H130529   0.505   4.908  17.007 -1.4801 -1.0572 -0.0003
 3038TIP3    H230530   0.627   4.838  16.952  0.4825  2.7585 -0.8630
 3039TIP3   OH230531   0.451   3.137   0.246 -0.0701 -0.3166  0.1594
 3039TIP3    H130532   0.412   3.192   0.313 -0.4371 -1.4764  0.9377
 3039TIP3    H230533   0.420   3.048   0.267  0.3338 -0.7975 -1.1574
 3040TIP3   OH230534   4.119   1.876  13.258 -0.0707 -0.4772  0.0538
 3040TIP3    H130535   4.071   1.817  13.316 -0.5552  1.3591  1.6121
 3040TIP3    H230536   4.110   1.836  13.171 -0.9222 -2.3229  0.9390
 3041TIP3   OH230537   4.933   2.050  14.794  0.3263  0.6860 -0.1016
 3041TIP3    H130538   5.023   2.046  14.764  0.7659  0.3391  1.1900
 3041TIP3    H230539   4.881   2.016  14.720  1.0554  2.4130 -1.4757
 3042TIP3   OH230540   4.565   6.517  14.899  0.1511  0.0157 -0.3646
 3042TIP3    H130541   4.647   6.559  14.923  0.3691 -0.0212 -1.0194
 3042TIP3    H230542   4.586   6.424  14.893 -0.4519 -0.2936  1.5975
 3043TIP3   OH230543   1.260   1.390   0.383  0.1287  0.0624 -0.1344
 3043TIP3    H130544   1.238   1.473   0.340 -1.0749  1.1513  2.3399
 3043TIP3    H230545   1.297   1.416   0.467  1.5283 -1.9463 -0.0551
 3044TIP3   OH230546   2.518   3.756  15.281 -0.8399  0.0281  0.2018
 3044TIP3    H130547   2.514   3.669  15.321 -1.4480 -0.0106  0.0719
 3044TIP3    H230548   2.456   3.808  15.332 -0.3916  0.4177  0.3526
 3045TIP3   OH230549   0.272   1.601   3.895 -0.3690  0.4190  0.5995
 3045TIP3    H130550   0.245   1.689   3.870  0.0964  0.7239  1.1420
 3045TIP3    H230551   0.279   1.604   3.991  0.6426  0.0862  0.5465
 3046TIP3   OH230552   3.860   5.807  15.259  0.1935  0.9345  0.0165
 3046TIP3    H130553   3.941   5.828  15.306  0.5952  1.0313 -0.7073
 3046TIP3    H230554   3.868   5.714  15.237 -0.7461  0.4481  1.5770
 3047TIP3   OH230555   1.348   2.460  17.088  0.5712  0.1199 -0.1682
 3047TIP3    H130556   1.281   2.425  17.146  1.9861 -0.4304  1.1963
 3047TIP3    H230557   1.431   2.440  17.132  1.7004 -0.2190 -2.3293
 3048TIP3   OH230558   1.472   2.681  17.308 -0.3072  0.1379 -0.2294
 3048TIP3    H130559   1.422   2.663  17.387 -3.0352 -1.7044 -2.1908
 3048TIP3    H230560   1.562   2.695  17.338 -1.1532 -0.8752  3.0888
 3049TIP3   OH230561   1.867   4.628  16.055 -0.1486 -0.3374 -0.4460
 3049TIP3    H130562   1.841   4.608  15.965 -1.1057  0.6780 -0.4066
 3049TIP3    H230563   1.860   4.544  16.101 -0.0772 -0.7715 -1.2017
 3050TIP3   OH230564   4.770   5.361   5.321 -0.1710  0.3550  0.1708
 3050TIP3    H130565   4.765   5.417   5.243 -0.4775  0.2314  0.0966
 3050TIP3    H230566   4.863   5.349   5.337 -0.0900  1.7400  0.8102
 3051TIP3   OH230567   5.931   5.051  15.802  0.4924 -0.1227  0.1519
 3051TIP3    H130568   6.026   5.038  15.805  0.9188  1.7222 -2.1270
 3051TIP3    H230569   5.895   4.963  15.791  2.2393 -0.6481 -2.2347
 3052TIP3   OH230570   3.786   3.633  12.418 -0.0170 -0.0410  0.1435
 3052TIP3    H130571   3.692   3.621  12.424 -0.1510  0.2782 -1.1632
 3052TIP3    H230572   3.801   3.722  12.452 -0.1249 -0.2651  0.7879
 3053TIP3   OH230573   5.207   1.410  17.215  0.1838  0.4248  0.5714
 3053TIP3    H130574   5.118   1.377  17.218  0.0731  0.6045 -0.5932
 3053TIP3    H230575   5.204   1.492  17.264 -0.0097 -0.1620  1.5781
 3054TIP3   OH230576   5.413   1.404   1.571  0.2737 -0.0655  0.9873
 3054TIP3    H130577   5.395   1.498   1.574 -0.1175 -0.0343 -0.9239
 3054TIP3    H230578   5.501   1.395   1.606  0.1359  0.9508  1.6202
 3055TIP3   OH230579   3.620   0.307   4.701 -0.6897 -0.3867  0.1872
 3055TIP3    H130580   3.609   0.294   4.607  1.0834  0.2358 -0.1423
 3055TIP3    H230581   3.641   0.399   4.711 -1.6513 -0.2639  1.3038
 3056TIP3   OH230582   5.902   4.293  11.828  0.0313 -0.0022 -0.2084
 3056TIP3    H130583   5.900   4.360  11.896  0.2033  0.5396 -0.7350
 3056TIP3    H230584   5.811   4.266  11.817  0.0884 -0.6672  0.7910
 3057TIP3   OH230585   4.461   4.936  12.860  0.1225 -0.4182 -0.3684
 3057TIP3    H130586   4.448   5.016  12.808  0.7515 -0.1948 -0.1908
 3057TIP3    H230587   4.554   4.939  12.884  0.3278 -1.5609 -0.9577
 3058TIP3   OH230588   3.631   1.247   6.211  0.2391 -0.2837 -0.1236
 3058TIP3    H130589   3.546   1.209   6.232  0.2993  0.9805  2.8528
 3058TIP3    H230590   3.689   1.218   6.281  1.9296  0.0746 -1.2976
 3059TIP3   OH230591   3.273   1.394   1.109  0.0925 -0.0015  0.1014
 3059TIP3    H130592   3.346   1.388   1.171  0.8320  1.2084 -0.6210
 3059TIP3    H230593   3.315   1.409   1.025 -0.8641 -2.0671 -0.8197
 3060TIP3   OH230594   1.630   1.619  14.819  0.2545 -0.1155 -0.1616
 3060TIP3    H130595   1.714   1.617  14.864 -0.0481 -2.0097  0.4023
 3060TIP3    H230596   1.595   1.707  14.837  1.5494  0.2570  0.6288
 3061TIP3   OH230597   1.423   3.108  12.528 -0.1302 -0.3426 -0.2009
 3061TIP3    H130598   1.336   3.120  12.566  0.0939  0.0354  0.2099
 3061TIP3    H230599   1.459   3.032  12.573 -1.4897 -2.6189 -2.6956
 3062TIP3   OH230600   3.626   6.654   2.146  1.0788  0.2438  0.2444
 3062TIP3    H130601   3.704   6.698   2.113  1.1996 -0.5383 -0.5586
 3062TIP3    H230602   3.644   6.561   2.133 -0.5127  0.0929 -1.1810
 3063TIP3   OH230603   6.050   1.867  14.491 -0.2323 -0.1683 -0.0057
 3063TIP3    H130604   6.083   1.934  14.431 -0.5359 -0.1177 -0.1190
 3063TIP3    H230605   6.034   1.914  14.573  0.4695 -0.2966  0.2152
 3064TIP3   OH230606   2.541   6.483   0.230 -0.4430 -0.1831 -0.9112
 3064TIP3    H130607   2.559   6.390   0.246  2.8048  0.5696  0.6477
 3064TIP3    H230608   2.469   6.504   0.290  0.3107 -1.2069  0.4078
 3065TIP3   OH230609   2.694   0.019   3.448  0.3363  0.2609 -0.5056
 3065TIP3    H130610   2.736   0.076   3.384 -0.2003  1.7556  0.4082
 3065TIP3    H230611   2.744   0.033   3.529 -0.1211 -0.1723 -0.1400
 3066TIP3   OH230612   2.523   1.723   5.089 -0.2155  0.5267 -0.5662
 3066TIP3    H130613   2.580   1.666   5.141 -0.9974 -0.0481 -0.3172
 3066TIP3    H230614   2.577   1.749   5.014 -0.1967 -1.5199 -1.3235
 3067TIP3   OH230615   3.069   4.858   4.715  0.2995  0.2641 -0.0468
 3067TIP3    H130616   2.982   4.841   4.752  1.0354 -1.4843  0.9802
 3067TIP3    H230617   3.059   4.839   4.621  0.4248 -3.9243  0.6152
 3068TIP3   OH230618   2.856   1.714  15.180  0.6729  0.5781 -0.0100
 3068TIP3    H130619   2.791   1.769  15.135  1.1930  2.0445  0.9515
 3068TIP3    H230620   2.939   1.737  15.140  1.0759  1.5333  1.3026
 3069TIP3   OH230621   2.132   5.875   3.740 -0.6440 -0.1431 -0.2407
 3069TIP3    H130622   2.086   5.802   3.780  1.9865 -1.6942  0.1512
 3069TIP3    H230623   2.135   5.942   3.808  2.2733 -2.0966  1.7874
 3070TIP3   OH230624   4.743   0.848   4.793  0.2316  0.3779  0.0705
 3070TIP3    H130625   4.686   0.913   4.750  0.4377  0.5164  0.0068
 3070TIP3    H230626   4.708   0.763   4.763 -1.0364  0.3887  1.3952
 3071TIP3   OH230627   5.236   6.548   1.685 -0.6917  0.2759 -0.3471
 3071TIP3    H130628   5.275   6.461   1.695  1.4123  1.0598 -1.0313
 3071TIP3    H230629   5.258   6.593   1.766 -1.1999  0.3750 -0.2647
 3072TIP3   OH230630   0.929   1.268  11.878  0.2693  0.8103  0.2868
 3072TIP3    H130631   1.019   1.290  11.904  0.5515  0.1560 -0.1082
 3072TIP3    H230632   0.899   1.207  11.946  0.0014  1.2739  0.5924
 3073TIP3   OH230633   2.027   2.245   5.194  0.0234  0.1216 -0.3941
 3073TIP3    H130634   2.036   2.256   5.288 -0.2777  1.3960 -0.4971
 3073TIP3    H230635   2.117   2.232   5.163  0.4175  2.0752 -0.1870
 3074TIP3   OH230636   5.721   2.603   0.614 -0.1915  0.3818  0.6102
 3074TIP3    H130637   5.799   2.646   0.577  0.5064 -0.8142  0.6470
 3074TIP3    H230638   5.700   2.655   0.692  1.0494  0.2861  1.0359
 3075TIP3   OH230639   6.086   2.188   3.784 -0.1112  0.1022  0.7661
 3075TIP3    H130640   6.149   2.116   3.778 -0.6369 -0.2986 -0.1002
 3075TIP3    H230641   6.027   2.162   3.856  1.6442  1.2658  2.7480
 3076TIP3   OH230642   1.255   6.178   3.262 -0.3700  0.0278 -0.0388
 3076TIP3    H130643   1.247   6.204   3.170 -2.3653  0.3603  0.1873
 3076TIP3    H230644   1.349   6.180   3.279 -0.0287  1.0424 -1.7680
 3077TIP3   OH230645   3.119   5.481  11.903  0.0829  0.0030  0.6685
 3077TIP3    H130646   3.068   5.400  11.909 -2.0791  1.2171 -0.2695
 3077TIP3    H230647   3.120   5.515  11.993  0.4852 -0.7225  0.9520
 3078TIP3   OH230648   1.565   3.475   2.018 -0.4527  0.5194 -0.9125
 3078TIP3    H130649   1.498   3.530   2.059 -0.1752 -0.1681  0.5195
 3078TIP3    H230650   1.629   3.460   2.088 -0.4989 -1.5775 -1.2702
 3079TIP3   OH230651   4.094   0.891  13.791  0.1651 -0.6225 -0.4634
 3079TIP3    H130652   4.089   0.831  13.717 -0.0716 -0.0098 -0.9478
 3079TIP3    H230653   4.062   0.840  13.865 -0.6868 -0.8909 -0.9994
 3080TIP3   OH230654   1.199   6.572  16.704 -0.5036 -0.3308  0.1807
 3080TIP3    H130655   1.169   6.591  16.793 -0.6629  0.6921 -0.0742
 3080TIP3    H230656   1.232   6.482  16.708  0.3099 -0.0040  1.4906
 3081TIP3   OH230657   5.457   1.810  11.452 -0.1060 -0.1964 -0.5905
 3081TIP3    H130658   5.397   1.737  11.437  0.0097 -0.3459 -0.3271
 3081TIP3    H230659   5.544   1.773  11.437 -0.0053 -0.2666  0.1158
 3082TIP3   OH230660   6.066   4.420   1.136 -0.1964  0.7633 -0.3393
 3082TIP3    H130661   5.994   4.368   1.103  0.5768  0.4484 -1.6084
 3082TIP3    H230662   6.145   4.370   1.115  0.4898  1.8276 -0.4211
 3083TIP3   OH230663   4.210   1.390   1.909  0.2667 -0.3349 -0.3157
 3083TIP3    H130664   4.131   1.374   1.859 -0.7775  1.0256  0.8152
 3083TIP3    H230665   4.281   1.365   1.850 -0.9834 -2.3093 -1.0757
 3084TIP3   OH230666   2.980   6.736   2.695  0.2921 -0.5184  0.4682
 3084TIP3    H130667   3.011   6.645   2.701 -0.7852 -0.8223  1.8216
 3084TIP3    H230668   2.938   6.753   2.779  0.8850  1.4120  0.4250
 3085TIP3   OH230669   6.501   0.746   3.938 -0.5711  0.3760 -0.6738
 3085TIP3    H130670   6.579   0.755   3.883 -0.2820  0.1328 -0.3129
 3085TIP3    H230671   6.479   0.653   3.932  0.0003  0.1545  0.3216
 3086TIP3   OH230672   4.326   0.344   4.514  0.2144  0.4026 -0.4651
 3086TIP3    H130673   4.298   0.389   4.593 -0.6599 -0.9239  0.0207
 3086TIP3    H230674   4.291   0.255   4.523  1.0366 -0.0978 -1.8286
 3087TIP3   OH230675   0.924   4.282   1.835 -0.0782 -0.4170 -0.0310
 3087TIP3    H130676   0.909   4.228   1.757  1.6067 -1.8092  0.5464
 3087TIP3    H230677   1.016   4.308   1.829 -0.7820  2.3940 -0.2196
 3088TIP3   OH230678   3.629   3.726  12.086  0.2811 -0.0035 -0.7666
 3088TIP3    H130679   3.561   3.729  12.019  0.3126  0.1865 -0.7906
 3088TIP3    H230680   3.594   3.666  12.153 -0.8895  1.7840  0.2899
 3089TIP3   OH230681   2.647   4.839  13.465  0.2176 -0.2684 -0.5406
 3089TIP3    H130682   2.729   4.803  13.431  0.8320  0.7889 -0.2030
 3089TIP3    H230683   2.674   4.897  13.536 -0.8289  0.0682 -0.4077
 3090TIP3   OH230684   6.762   2.796  13.596  0.1324  0.2480 -0.3860
 3090TIP3    H130685   6.812   2.844  13.662 -0.1357 -1.0291  0.7928
 3090TIP3    H230686   6.689   2.854  13.574 -0.5353  0.1803  1.4778
 3091TIP3   OH230687   5.018   0.351  12.902 -0.0048  0.4589  0.2461
 3091TIP3    H130688   4.992   0.259  12.897  2.2828 -0.2318 -0.1294
 3091TIP3    H230689   4.975   0.384  12.981 -1.6682 -0.6226 -0.1596
 3092TIP3   OH230690   0.918   5.054  11.204 -0.3718  0.2279 -0.0175
 3092TIP3    H130691   0.866   5.133  11.184 -0.3066  0.2316 -0.1728
 3092TIP3    H230692   0.910   5.045  11.299 -0.5871  0.2782 -0.0275
 3093TIP3   OH230693   0.541   5.002  13.785  0.1595  0.5790  0.2212
 3093TIP3    H130694   0.492   5.028  13.863 -1.6722  1.7638 -1.2415
 3093TIP3    H230695   0.555   4.908  13.796 -1.7299  0.3584  1.1255
 3094TIP3   OH230696   5.732   2.964  14.852 -0.6082  0.1552 -0.2710
 3094TIP3    H130697   5.732   2.869  14.868  0.7905 -0.0513 -1.2918
 3094TIP3    H230698   5.662   2.978  14.789 -0.7220 -0.2246 -0.2309
 3095TIP3   OH230699   1.214   6.306  12.505  0.3227  0.4479 -0.1846
 3095TIP3    H130700   1.183   6.239  12.444  1.0855  0.0763 -0.1728
 3095TIP3    H230701   1.139   6.325  12.561  0.4968 -1.4267  0.7427
 3096TIP3   OH230702   1.169   6.296   4.535  0.1640 -0.5459  0.0431
 3096TIP3    H130703   1.212   6.377   4.509 -0.3042 -0.0826  0.6900
 3096TIP3    H230704   1.225   6.260   4.603  1.2395 -1.6164 -1.3359
 3097TIP3   OH230705   4.808   6.498   5.647  0.5524  0.4666  0.3806
 3097TIP3    H130706   4.739   6.508   5.581  0.0133 -0.6886  0.7407
 3097TIP3    H230707   4.809   6.581   5.694  1.0800  1.3908 -1.1925
 3098TIP3   OH230708   6.689   2.029   3.835  0.1982  0.6614 -0.0001
 3098TIP3    H130709   6.782   2.046   3.844  1.2205 -2.9613 -1.7213
 3098TIP3    H230710   6.666   1.978   3.913 -0.3791  1.5058  0.3984
 3099TIP3   OH230711   0.206   6.647   6.038  0.5482 -0.0339 -0.4249
 3099TIP3    H130712   0.286   6.596   6.022  1.0090 -0.2329  2.0611
 3099TIP3    H230713   0.234   6.738   6.030  1.0637 -0.1011  0.4433
 3100TIP3   OH230714   0.571   4.906   4.451 -0.0131 -0.2516 -0.2941
 3100TIP3    H130715   0.486   4.946   4.436 -0.9855 -2.6599 -1.6921
 3100TIP3    H230716   0.613   4.905   4.364  0.0573 -1.9846 -0.2752
 3101TIP3   OH230717   1.896   3.900  11.257 -0.2137  0.1281 -0.5464
 3101TIP3    H130718   1.972   3.891  11.314 -0.5242 -0.8587 -0.2724
 3101TIP3    H230719   1.892   3.994  11.237  0.0830  0.4511  0.7968
 3102TIP3   OH230720   1.186   2.575  13.135  0.1587 -0.5704 -0.5159
 3102TIP3    H130721   1.111   2.594  13.078 -0.2938  1.1305  0.5724
 3102TIP3    H230722   1.149   2.572  13.223  1.1296 -1.3616 -0.1175
 3103TIP3   OH230723   0.523   6.170   1.859 -0.1843  0.7683  0.3505
 3103TIP3    H130724   0.530   6.230   1.784  1.2744 -1.3619 -1.3449
 3103TIP3    H230725   0.473   6.095   1.825 -0.6207  0.3119  1.9249
 3104TIP3   OH230726   3.577   4.086  12.192  0.0734 -0.1450 -0.2538
 3104TIP3    H130727   3.658   4.035  12.193 -1.1568 -2.2575  0.7815
 3104TIP3    H230728   3.515   4.032  12.142 -1.0669  0.7550  0.1331
 3105TIP3   OH230729   3.590   4.353  13.155 -0.7447 -0.2119 -0.0505
 3105TIP3    H130730   3.558   4.266  13.131  1.1009 -1.2182  0.9347
 3105TIP3    H230731   3.623   4.390  13.073 -1.7159 -0.3119 -0.5133
 3106TIP3   OH230732   5.261   4.185  15.895  0.4084  0.6410 -0.2329
 3106TIP3    H130733   5.203   4.109  15.896  1.3594 -0.1705 -1.7353
 3106TIP3    H230734   5.294   4.191  15.985  0.7981 -1.1366 -0.2127
 3107TIP3   OH230735   1.090   4.490  11.915 -0.3204  0.2745  0.6906
 3107TIP3    H130736   1.027   4.443  11.969  0.3715 -1.7195 -0.1722
 3107TIP3    H230737   1.095   4.440  11.834 -0.3156  2.4318 -0.7328
 3108TIP3   OH230738   3.283   1.067  16.720  0.0358 -0.5355  0.7531
 3108TIP3    H130739   3.230   1.013  16.777 -0.1996 -1.3203 -0.1796
 3108TIP3    H230740   3.317   1.137  16.777  0.5752 -1.8115  2.0451
 3109TIP3   OH230741   2.264   0.996   1.858 -0.3307  0.1291 -0.3575
 3109TIP3    H130742   2.271   1.071   1.798  2.9083  0.8027  0.6589
 3109TIP3    H230743   2.234   1.034   1.940  2.0767  0.5726  0.3901
 3110TIP3   OH230744   3.851   1.401  12.295 -0.1838  0.7430  0.2866
 3110TIP3    H130745   3.899   1.334  12.246 -1.1911  0.0152  0.2508
 3110TIP3    H230746   3.881   1.390  12.385 -0.3256  0.2328  0.2788
 3111TIP3   OH230747   0.338   2.754  16.414 -0.4719  0.0180 -0.1186
 3111TIP3    H130748   0.249   2.769  16.384 -0.1281 -0.7838 -1.6143
 3111TIP3    H230749   0.392   2.759  16.335  0.6724 -0.6093  0.5837
 3112TIP3   OH230750   4.420   1.277  14.866 -0.1002  0.0608  0.0751
 3112TIP3    H130751   4.364   1.309  14.937  0.7708  3.5430 -0.6039
 3112TIP3    H230752   4.359   1.256  14.795 -0.7880 -0.4157  0.8008
 3113TIP3   OH230753   2.913   3.237  11.209 -0.0890 -0.5317 -0.0157
 3113TIP3    H130754   2.903   3.272  11.297  1.0506  0.2654 -0.1788
 3113TIP3    H230755   2.946   3.148  11.222  0.5220 -0.2530  0.3592
 3114TIP3   OH230756   4.415   1.658  14.765  0.1530 -0.1894  0.2676
 3114TIP3    H130757   4.502   1.695  14.754 -0.6720  2.5917  1.9387
 3114TIP3    H230758   4.417   1.616  14.851  0.4059 -2.1815 -0.6435
 3115TIP3   OH230759   4.142   3.687   6.108  0.3152  0.0867 -0.0043
 3115TIP3    H130760   4.110   3.775   6.088 -1.3046 -0.5838 -0.5488
 3115TIP3    H230761   4.152   3.686   6.203  1.1476  1.1006 -0.0664
 3116TIP3   OH230762   4.881   0.613   4.483 -0.1761  0.6028 -0.3205
 3116TIP3    H130763   4.889   0.703   4.515 -0.6686  0.1209  1.2819
 3116TIP3    H230764   4.850   0.564   4.559 -0.6986 -0.7801 -1.3835
 3117TIP3   OH230765   0.953   0.407  15.470 -0.4306  0.4651  0.1510
 3117TIP3    H130766   0.944   0.369  15.382  1.1340 -0.6233  0.4268
 3117TIP3    H230767   1.034   0.457  15.467 -0.0670 -0.0491  1.1443
 3118TIP3   OH230768   3.601   0.975   1.983 -0.1625  0.8241 -0.0223
 3118TIP3    H130769   3.641   0.914   1.921 -0.4091  1.0819 -0.4387
 3118TIP3    H230770   3.638   1.060   1.960  1.0959  0.6762  1.3239
 3119TIP3   OH230771   3.601   6.451   2.675  0.8080 -0.2647 -0.4158
 3119TIP3    H130772   3.541   6.517   2.642  0.9795  0.7815  1.2375
 3119TIP3    H230773   3.653   6.425   2.599 -1.3342 -0.8156 -1.7805
 3120TIP3   OH230774   0.541   1.071   0.626 -0.3262 -0.2922  0.2571
 3120TIP3    H130775   0.522   1.084   0.719  1.3796  0.8690  0.5111
 3120TIP3    H230776   0.625   1.025   0.625  0.0116  0.3017 -0.6858
 3121TIP3   OH230777   5.353   4.549  12.905  0.5059 -0.1520  0.1016
 3121TIP3    H130778   5.416   4.596  12.960  0.5584  2.5726 -2.0718
 3121TIP3    H230779   5.383   4.565  12.816 -2.1573 -0.4103 -0.9156
 3122TIP3   OH230780   2.760   2.448  15.821  0.1651  0.0513  0.3528
 3122TIP3    H130781   2.753   2.353  15.831  1.5406 -0.1365 -0.2545
 3122TIP3    H230782   2.854   2.465  15.814 -0.1157  1.3245 -0.7537
 3123TIP3   OH230783   6.089   0.822  15.372 -0.2966 -0.6858  0.0744
 3123TIP3    H130784   6.132   0.766  15.437  0.0207 -2.1128 -1.3109
 3123TIP3    H230785   5.996   0.808  15.385 -0.3558  0.9043  1.7797
 3124TIP3   OH230786   3.661   0.787  12.642 -0.1720 -0.0512  0.0391
 3124TIP3    H130787   3.566   0.778  12.649 -0.3666 -0.5457 -2.5113
 3124TIP3    H230788   3.694   0.757  12.727 -2.2614  0.1314  0.9783
 3125TIP3   OH230789   1.084   1.634  15.949  0.4476 -0.4700  0.3570
 3125TIP3    H130790   1.173   1.653  15.980  1.6847 -1.8192 -2.0835
 3125TIP3    H230791   1.065   1.704  15.887 -0.9120  0.6891  1.9723
 3126TIP3   OH230792   6.729   3.728   4.344 -0.0934 -0.6310  0.5310
 3126TIP3    H130793   6.710   3.821   4.332 -2.0915 -0.8285  1.6870
 3126TIP3    H230794   6.805   3.727   4.402 -0.3190  0.2822  0.8704
 3127TIP3   OH230795   0.716   4.258  14.898 -0.3575  0.0247 -0.4007
 3127TIP3    H130796   0.737   4.189  14.961 -1.5369 -2.6185 -2.6530
 3127TIP3    H230797   0.794   4.267  14.844  0.3374  1.6530  0.7901
 3128TIP3   OH230798   6.367   0.144   2.980 -0.0184 -0.3874 -0.3349
 3128TIP3    H130799   6.415   0.158   2.898 -0.0062 -1.3746 -0.4997
 3128TIP3    H230800   6.276   0.162   2.957  0.0980  0.2598 -0.3242
 3129TIP3   OH230801   6.455   2.971   2.327  0.4851  0.1777  0.0635
 3129TIP3    H130802   6.532   3.027   2.314 -0.8861  2.3300  0.6466
 3129TIP3    H230803   6.407   2.975   2.244  0.4671 -0.2941  0.0481
 3130TIP3   OH230804   0.726   0.773  12.302  0.2726 -0.2936 -0.2174
 3130TIP3    H130805   0.796   0.783  12.237  1.5532 -2.2548  0.7442
 3130TIP3    H230806   0.729   0.680  12.326 -0.8497  0.1470  1.8883
 3131TIP3   OH230807   6.438   0.522   6.825 -0.3977  0.0760  0.7578
 3131TIP3    H130808   6.491   0.516   6.746  0.1992 -1.6522  1.2389
 3131TIP3    H230809   6.377   0.594   6.808 -0.2660 -0.2308 -1.2475
 3132TIP3   OH230810   3.351   0.797   5.233 -0.9086  0.2625 -0.5497
 3132TIP3    H130811   3.271   0.842   5.262 -1.5378 -0.6509 -0.8159
 3132TIP3    H230812   3.415   0.867   5.220 -1.4663  0.9542  0.2943
 3133TIP3   OH230813   4.360   5.831   2.021 -0.2672 -0.3595 -0.0974
 3133TIP3    H130814   4.412   5.885   1.962 -0.1773  0.2265  0.5041
 3133TIP3    H230815   4.313   5.771   1.964  1.5127 -1.3228 -0.6450
 3134TIP3   OH230816   1.860   4.652  15.124 -0.0013  0.0694  0.0483
 3134TIP3    H130817   1.911   4.701  15.059  2.7283 -2.7236 -0.1621
 3134TIP3    H230818   1.796   4.604  15.072  0.2412  0.0744 -0.2656
 3135TIP3   OH230819   1.100   1.758  13.478 -0.1387 -0.2922  0.2008
 3135TIP3    H130820   1.137   1.843  13.457  0.8783 -0.3720  1.5192
 3135TIP3    H230821   1.176   1.705  13.504 -0.7444 -1.6228 -0.6636
 3136TIP3   OH230822   1.231   6.123   1.553  0.0155 -0.4820 -0.0919
 3136TIP3    H130823   1.225   6.103   1.646  1.6943 -0.0401  0.1383
 3136TIP3    H230824   1.320   6.156   1.540 -0.2105 -0.4177 -1.8323
 3137TIP3   OH230825   4.616   0.159   2.091  0.2886  0.3482  0.0311
 3137TIP3    H130826   4.657   0.215   2.157  0.4811 -1.1629  1.2263
 3137TIP3    H230827   4.672   0.167   2.014  0.0623  2.1228  0.0107
 3138TIP3   OH230828   6.518   0.062  14.040  0.3149  0.0677  0.0779
 3138TIP3    H130829   6.498   0.154  14.053 -0.3602 -0.1517  0.6534
 3138TIP3    H230830   6.506   0.022  14.126  2.4607 -0.2478  0.2778
 3139TIP3   OH230831   1.595   6.495   3.185  0.1050  0.4125  0.7340
 3139TIP3    H130832   1.562   6.527   3.269  0.3343  1.4379  0.4447
 3139TIP3    H230833   1.655   6.424   3.209  0.3423  0.8452  1.4525
 3140TIP3   OH230834   3.059   6.405  15.631  0.2475 -0.1511  1.0808
 3140TIP3    H130835   3.069   6.499  15.645 -0.6775 -0.2189  2.2763
 3140TIP3    H230836   3.149   6.372  15.621  0.5840  1.3849 -3.5227
 3141TIP3   OH230837   4.166   5.221   5.638  0.4709 -0.1762  0.0093
 3141TIP3    H130838   4.260   5.221   5.658  0.0613 -2.2833  2.4586
 3141TIP3    H230839   4.143   5.128   5.635 -1.4595  0.2964 -1.0836
 3142TIP3   OH230840   4.816   2.181  10.793  0.0317  0.0635  0.1000
 3142TIP3    H130841   4.825   2.206  10.885  0.1289  0.4890 -0.0236
 3142TIP3    H230842   4.876   2.239  10.746  0.4678 -0.5891 -0.1662
 3143TIP3   OH230843   4.418   6.412   2.432  0.0854 -0.1902  0.1565
 3143TIP3    H130844   4.451   6.330   2.470 -0.4074 -0.4567  0.0145
 3143TIP3    H230845   4.462   6.480   2.482  1.9836 -0.5105 -0.9911
 3144TIP3   OH230846   3.388   1.526   4.094 -0.0554 -0.4716 -0.4353
 3144TIP3    H130847   3.406   1.600   4.152 -0.9835  0.0736 -0.8179
 3144TIP3    H230848   3.436   1.453   4.133  1.3376  0.4367 -0.3392
 3145TIP3   OH230849   2.291   2.457   1.164  0.3820  0.4701  0.3698
 3145TIP3    H130850   2.308   2.374   1.119 -0.4539  0.8588 -0.6747
 3145TIP3    H230851   2.378   2.487   1.191  0.6875 -0.8112  0.9142
 3146TIP3   OH230852   2.907   2.194  15.862 -0.0657 -0.2046 -0.8420
 3146TIP3    H130853   3.002   2.181  15.868  0.5330  3.2756 -0.7215
 3146TIP3    H230854   2.877   2.196  15.952  0.1851  1.0317 -0.7716
 3147TIP3   OH230855   2.657   4.764  12.473  0.5742 -0.1803 -0.5839
 3147TIP3    H130856   2.701   4.823  12.534  0.3827 -0.4981 -0.1413
 3147TIP3    H230857   2.720   4.692  12.460  1.2637  0.6266 -1.9483
 3148TIP3   OH230858   1.587   3.180  17.266  0.2325  0.4322  0.7315
 3148TIP3    H130859   1.557   3.267  17.293 -0.8535  0.2004  0.3206
 3148TIP3    H230860   1.526   3.119  17.308  0.9590 -0.1335  0.9805
 3149TIP3   OH230861   2.780   3.950  13.535  0.0684  0.7975  0.5664
 3149TIP3    H130862   2.727   3.910  13.467 -0.1741 -0.1761  1.3058
 3149TIP3    H230863   2.726   4.021  13.569 -0.7710 -0.1640  1.2931
 3150TIP3   OH230864   3.059   6.388   5.999  0.3655  0.0700 -0.0668
 3150TIP3    H130865   3.138   6.433   6.029  1.3822 -1.9248  0.4115
 3150TIP3    H230866   3.077   6.295   6.013 -0.4482 -0.7949 -3.7413
 3151TIP3   OH230867   0.464   0.508   5.229 -0.2577  0.5876  0.3592
 3151TIP3    H130868   0.466   0.565   5.153  1.8208 -0.3673 -0.3772
 3151TIP3    H230869   0.436   0.565   5.301  0.2114  2.1431 -0.6375
 3152TIP3   OH230870   3.793   1.848  15.583  0.2402  0.1080  0.0313
 3152TIP3    H130871   3.843   1.781  15.537 -0.8532  0.3051 -1.5597
 3152TIP3    H230872   3.758   1.904  15.512 -0.8277  0.9372  1.1645
 3153TIP3   OH230873   5.665   6.533  13.743 -0.0654 -0.3107 -0.6067
 3153TIP3    H130874   5.681   6.494  13.829  0.4222 -1.2733 -1.1175
 3153TIP3    H230875   5.690   6.465  13.681  1.5995  1.0766 -1.5481
 3154TIP3   OH230876   6.308   1.614  11.427  0.0793 -0.6474  0.0348
 3154TIP3    H130877   6.330   1.621  11.334 -1.4968  1.7501 -0.2664
 3154TIP3    H230878   6.212   1.623  11.429  0.2413  1.7356  1.9883
 3155TIP3   OH230879   1.609   4.699  16.705  0.0655  0.0036  0.4679
 3155TIP3    H130880   1.705   4.709  16.704 -0.1342  2.5163  0.1228
 3155TIP3    H230881   1.589   4.662  16.619  0.7044 -0.5154  0.5274
 3156TIP3   OH230882   6.281   0.269  12.448  0.0642 -0.4046  0.3162
 3156TIP3    H130883   6.335   0.307  12.517 -0.1059  0.8550 -0.2251
 3156TIP3    H230884   6.191   0.282  12.477 -0.0194  0.4522 -0.2852
 3157TIP3   OH230885   2.485   3.328  11.048 -0.5739  0.7653  0.5987
 3157TIP3    H130886   2.551   3.366  10.991 -0.9633  5.0523  2.5596
 3157TIP3    H230887   2.403   3.336  10.999 -0.2137 -1.0980 -0.3906
 3158TIP3   OH230888   5.660   2.493   5.231 -0.6358 -0.5128  0.0783
 3158TIP3    H130889   5.619   2.435   5.167 -0.3095 -0.7412  0.0776
 3158TIP3    H230890   5.740   2.523   5.188  0.1093 -1.4699  0.7707
 3159TIP3   OH230891   5.128   6.628   4.779 -0.2390 -0.4894 -0.0352
 3159TIP3    H130892   5.069   6.575   4.726  0.7519 -2.0274  0.3576
 3159TIP3    H230893   5.182   6.565   4.826 -1.4377  0.7716  3.3014
 3160TIP3   OH230894   6.480   0.407  11.958 -0.4288  0.8724 -0.0760
 3160TIP3    H130895   6.396   0.389  11.915  0.4535 -1.1522 -1.0822
 3160TIP3    H230896   6.466   0.381  12.049 -0.4474 -1.1468 -0.6073
 3161TIP3   OH230897   5.975   5.515  14.146 -0.1472  0.0577 -0.8096
 3161TIP3    H130898   6.001   5.501  14.237 -0.4392  2.9191 -0.1781
 3161TIP3    H230899   5.880   5.527  14.151  0.0618  2.1909 -1.1208
 3162TIP3   OH230900   3.469   0.806  12.226 -0.6520  0.1523  0.7111
 3162TIP3    H130901   3.450   0.791  12.134 -0.3197  1.5924  0.3862
 3162TIP3    H230902   3.560   0.777  12.237 -0.6304  0.1552  0.5444
 3163TIP3   OH230903   3.373   0.703  10.856 -0.1450 -0.3471  0.1402
 3163TIP3    H130904   3.415   0.653  10.786  2.1874  0.2218  1.0502
 3163TIP3    H230905   3.281   0.709  10.829  0.4567 -1.0347 -2.3259
 3164TIP3   OH230906   0.427   1.972  14.839 -0.0348  0.4398 -0.4331
 3164TIP3    H130907   0.464   1.953  14.926 -2.1754 -0.1268  0.4369
 3164TIP3    H230908   0.495   2.020  14.794  1.4102  0.1788  1.3420
 3165TIP3   OH230909   2.750   6.104   3.811  0.0200  0.7715  0.6935
 3165TIP3    H130910   2.801   6.049   3.871 -0.7753 -1.1988 -0.3189
 3165TIP3    H230911   2.659   6.092   3.839 -0.1594  1.7507  0.5644
 3166TIP3   OH230912   2.256   2.226  17.141 -0.0580 -0.1918  0.4689
 3166TIP3    H130913   2.192   2.179  17.087  1.0999 -0.6958 -0.5120
 3166TIP3    H230914   2.219   2.314  17.151 -1.3229 -0.7271  0.6794
 3167TIP3   OH230915   4.076   4.430   2.171  0.3178  0.0630 -0.0939
 3167TIP3    H130916   4.067   4.400   2.261  0.7666 -1.9081 -0.6612
 3167TIP3    H230917   4.121   4.358   2.126 -1.1931  0.3500 -2.2034
 3168TIP3   OH230918   3.365   0.736  13.907 -0.0030 -0.0431  0.0509
 3168TIP3    H130919   3.312   0.766  13.980  1.0740  0.1170  0.7940
 3168TIP3    H230920   3.422   0.668  13.945  0.3107 -0.2199 -0.7145
 3169TIP3   OH230921   2.858   0.438   0.801  0.3989 -0.7143  0.1761
 3169TIP3    H130922   2.767   0.447   0.774  0.1405  0.4677  1.3597
 3169TIP3    H230923   2.905   0.415   0.720 -0.5069  1.4986 -1.0632
 3170TIP3   OH230924   0.151   5.740   4.804 -0.6204 -0.3291  0.5600
 3170TIP3    H130925   0.212   5.722   4.876  0.0399  0.4492  0.2113
 3170TIP3    H230926   0.196   5.805   4.750 -0.5520 -1.8051 -1.2786
 3171TIP3   OH230927   3.766   6.420   2.029 -0.1068 -0.1425 -0.0591
 3171TIP3    H130928   3.830   6.429   1.958  1.2417  0.7839  1.2101
 3171TIP3    H230929   3.815   6.384   2.102 -1.6035 -1.6170  0.2781
 3172TIP3   OH230930   2.048   1.677  12.047  0.0775  0.2492 -0.7966
 3172TIP3    H130931   1.991   1.749  12.076  1.3672  1.3694 -0.9130
 3172TIP3    H230932   1.998   1.632  11.979 -1.4194  0.0070  0.4041
 3173TIP3   OH230933   5.653   2.705  14.918 -0.1015 -0.3253  0.2007
 3173TIP3    H130934   5.615   2.758  14.987  2.3754 -0.2827  1.6337
 3173TIP3    H230935   5.599   2.626  14.915 -0.4001 -0.2180  2.0319
 3174TIP3   OH230936   4.035   5.092   6.274 -0.2175 -0.0430  0.2589
 3174TIP3    H130937   4.115   5.074   6.225  0.3290  3.2460 -0.2838
 3174TIP3    H230938   4.062   5.087   6.366  1.0951  2.3697  0.0951
 3175TIP3   OH230939   4.076   5.737   4.162  0.1409  0.2273  0.1264
 3175TIP3    H130940   4.145   5.749   4.098  0.4490  0.1681  0.4441
 3175TIP3    H230941   4.092   5.805   4.228  2.0116 -1.9020  2.0551
 3176TIP3   OH230942   3.050   6.078  13.294 -0.1571 -0.3379 -0.0196
 3176TIP3    H130943   3.140   6.085  13.260  0.2315  0.4120  1.1061
 3176TIP3    H230944   2.995   6.077  13.215  0.8212 -0.6402 -0.7210
 3177TIP3   OH230945   6.205   1.949   4.949 -0.0280  0.0377 -0.5744
 3177TIP3    H130946   6.229   2.040   4.963  0.0637  0.3492 -2.5105
 3177TIP3    H230947   6.143   1.929   5.019 -0.4628  1.7460 -0.4358
 3178TIP3   OH230948   3.970   6.084   5.042 -0.0645  0.0521 -0.3579
 3178TIP3    H130949   3.905   6.121   5.101 -2.0425 -1.5208 -1.4216
 3178TIP3    H230950   3.944   5.993   5.031  0.7684  0.0271 -2.8727
 3179TIP3   OH230951   3.382   4.621  16.872 -0.8900  0.1387  0.3705
 3179TIP3    H130952   3.443   4.669  16.816  0.5599 -0.2031  1.6048
 3179TIP3    H230953   3.321   4.580  16.811 -2.4827  3.7484 -0.7828
 3180TIP3   OH230954   6.700   4.731  16.866 -0.8467 -0.2273 -0.1284
 3180TIP3    H130955   6.731   4.741  16.777 -1.7748  1.3264 -0.3168
 3180TIP3    H230956   6.620   4.679  16.858 -0.8668 -0.1858 -0.1992
 3181TIP3   OH230957   2.419   6.409  16.566 -0.4164 -0.0541 -0.5579
 3181TIP3    H130958   2.471   6.428  16.488 -1.4517  0.2620 -1.1887
 3181TIP3    H230959   2.482   6.373  16.629  0.5117  0.1024 -1.3768
 3182TIP3   OH230960   1.165   1.746   3.268  0.2334  0.1554 -0.2994
 3182TIP3    H130961   1.172   1.705   3.182 -0.8457  0.0077 -0.3304
 3182TIP3    H230962   1.141   1.837   3.249  1.8762  0.6456 -0.2040
 3183TIP3   OH230963   5.482   1.550   4.959 -0.2310 -0.2514  0.1954
 3183TIP3    H130964   5.569   1.559   4.919 -0.3717 -0.5693 -0.1794
 3183TIP3    H230965   5.422   1.578   4.891 -0.4589 -0.5356  0.2828
 3184TIP3   OH230966   5.170   2.179   0.911  0.5115  0.3327 -0.0044
 3184TIP3    H130967   5.248   2.190   0.857 -0.8713  2.8004 -1.6820
 3184TIP3    H230968   5.110   2.129   0.856  0.0656  0.5088  0.3199
 3185TIP3   OH230969   3.190   6.025  11.298 -0.6423  0.4793 -0.2677
 3185TIP3    H130970   3.268   6.067  11.334 -0.6803  0.1444  0.2170
 3185TIP3    H230971   3.223   5.969  11.227 -0.4957  0.6899 -0.3650
 3186TIP3   OH230972   5.680   6.079   0.472 -0.2217  0.5637 -0.3486
 3186TIP3    H130973   5.757   6.083   0.414 -1.2834  0.3339 -1.8398
 3186TIP3    H230974   5.610   6.048   0.415 -1.3559  0.4646  1.0658
 3187TIP3   OH230975   0.669   3.022  16.230  0.5578  0.2437 -0.1726
 3187TIP3    H130976   0.579   3.040  16.260  0.3780 -0.5517 -0.2088
 3187TIP3    H230977   0.723   3.083  16.280 -0.0208  0.8822 -0.3062
 3188TIP3   OH230978   0.168   5.045   5.249 -0.2768 -0.2843 -0.1508
 3188TIP3    H130979   0.198   5.121   5.300  0.4108 -0.9360  0.4373
 3188TIP3    H230980   0.176   5.073   5.158  1.5111 -0.1899  0.0081
 3189TIP3   OH230981   3.653   5.241  10.878 -0.3482 -0.0748 -0.0038
 3189TIP3    H130982   3.600   5.261  10.801  0.7019  3.4896 -0.0066
 3189TIP3    H230983   3.741   5.228  10.843  0.3584  2.6505  0.5234
 3190TIP3   OH230984   6.012   6.526   1.194  0.2979  0.4496 -0.0751
 3190TIP3    H130985   5.965   6.479   1.125 -1.1395  0.3053  0.9844
 3190TIP3    H230986   6.089   6.472   1.211  0.5719  0.3777 -1.3904
 3191TIP3   OH230987   3.889   1.757   4.099  0.0783  0.0251 -0.1158
 3191TIP3    H130988   3.904   1.767   4.193 -0.0897 -0.3142 -0.0503
 3191TIP3    H230989   3.801   1.792   4.084 -0.0861 -0.3575 -0.0634
 3192TIP3   OH230990   1.925   6.662  14.571  0.1567 -0.1751 -0.1324
 3192TIP3    H130991   1.894   6.615  14.649 -2.6004  1.7262  0.0672
 3192TIP3    H230992   1.934   6.753  14.600  2.1193  0.0513 -1.3141
 3193TIP3   OH230993   4.930   1.759  13.219 -0.1242  0.1549  0.4198
 3193TIP3    H130994   4.901   1.786  13.306  0.4647  1.7743  0.1448
 3193TIP3    H230995   4.927   1.663  13.221 -1.3385  0.1987  1.7884
 3194TIP3   OH230996   5.511   6.225   5.941 -0.1142  0.1281  0.4408
 3194TIP3    H130997   5.427   6.236   5.897 -0.6699 -0.0610  1.4274
 3194TIP3    H230998   5.500   6.270   6.025  0.1988 -1.2954  1.2663
 3195TIP3   OH230999   5.932   0.259   1.496 -0.5697 -0.1822  0.1589
 3195TIP3    H131000   5.908   0.206   1.572 -0.7065  0.7696  0.8104
 3195TIP3    H231001   5.996   0.207   1.449  0.3579 -0.3356  1.5323
 3196TIP3   OH231002   2.380   5.185   2.671  0.9048 -0.1802  0.0935
 3196TIP3    H131003   2.311   5.135   2.714  2.2773 -2.2113  0.0724
 3196TIP3    H231004   2.403   5.133   2.594  1.0792  1.5103 -1.0619
 3197TIP3   OH231005   0.871   6.597  14.321 -0.4816  0.2205 -0.1464
 3197TIP3    H131006   0.963   6.574  14.308 -0.2101  1.0439  0.2737
 3197TIP3    H231007   0.859   6.595  14.416 -1.1416 -0.7579 -0.2273
 3198TIP3   OH231008   5.472   3.565  12.971 -0.3273  0.3588  0.2749
 3198TIP3    H131009   5.489   3.471  12.964  0.1347  0.5561 -2.0633
 3198TIP3    H231010   5.559   3.604  12.982 -0.5390  0.5330  1.5176
 3199TIP3   OH231011   6.468   4.469   2.143  0.6834 -0.2078 -0.4922
 3199TIP3    H131012   6.554   4.450   2.106  0.8886 -0.0250 -0.1169
 3199TIP3    H231013   6.485   4.537   2.209  0.4728 -1.1505  0.5687
 3200TIP3   OH231014   1.372   0.482  15.917  0.5492 -0.3375 -0.2174
 3200TIP3    H131015   1.374   0.576  15.898 -0.3509 -0.0156  1.0979
 3200TIP3    H231016   1.448   0.468  15.973 -1.1153  0.3618  2.4294
 3201TIP3   OH231017   2.731   6.416  14.688  0.5787 -0.4960 -0.7041
 3201TIP3    H131018   2.759   6.375  14.606  1.5873 -1.5830  0.1500
 3201TIP3    H231019   2.766   6.360  14.756 -0.1750  0.4340  0.4951
 3202TIP3   OH231020   4.119   5.218  13.499 -0.3695  0.2070 -0.0915
 3202TIP3    H131021   4.033   5.236  13.462 -1.2520 -0.4601  1.5393
 3202TIP3    H231022   4.113   5.250  13.589  1.4813  1.1906 -0.2684
 3203TIP3   OH231023   5.461   2.258  12.094 -0.1041  0.3076  0.0101
 3203TIP3    H131024   5.462   2.247  11.998 -0.0953 -0.3197  0.0776
 3203TIP3    H231025   5.541   2.306  12.113  1.5016 -2.1627 -0.0209
 3204TIP3   OH231026   5.201   6.527   5.257  0.0593  0.2252 -0.1737
 3204TIP3    H131027   5.124   6.578   5.279 -0.8260 -0.9596 -0.4506
 3204TIP3    H231028   5.253   6.527   5.338  1.3014  3.5246 -0.8142
 3205TIP3   OH231029   3.000   5.635   3.873 -0.5143 -0.4463 -0.0340
 3205TIP3    H131030   3.060   5.662   3.942 -0.6265 -0.7458  0.1786
 3205TIP3    H231031   2.975   5.546   3.896  0.1652 -0.8951 -0.9379
 3206TIP3   OH231032   3.655   0.752   0.063  0.3860 -0.1905  0.9751
 3206TIP3    H131033   3.738   0.754   0.015 -0.0956  0.6055  0.1433
 3206TIP3    H231034   3.673   0.697   0.139  1.2359 -1.3278 -0.0056
 3207TIP3   OH231035   2.840   3.556   0.206  0.1751 -0.0703  0.5184
 3207TIP3    H131036   2.885   3.631   0.168 -0.0495  0.6393  1.6170
 3207TIP3    H231037   2.870   3.481   0.154 -0.2588  0.8673 -1.1458
 3208TIP3   OH231038   1.455   4.489  14.298 -0.5563 -0.2787  0.9796
 3208TIP3    H131039   1.453   4.396  14.321 -1.6490 -0.2539  1.0362
 3208TIP3    H231040   1.523   4.526  14.355 -0.9872 -0.8147  1.8635
 3209TIP3   OH231041   1.501   4.398   2.263 -0.6355 -0.5445  0.1489
 3209TIP3    H131042   1.563   4.470   2.251 -0.1610 -0.8797  0.5879
 3209TIP3    H231043   1.504   4.379   2.357 -1.4977 -0.4844  0.2046
 3210TIP3   OH231044   5.908   2.590   3.724  0.6244 -0.1038  0.3902
 3210TIP3    H131045   5.956   2.562   3.647 -1.8177  3.4742 -2.8076
 3210TIP3    H231046   5.824   2.544   3.718  0.6952 -0.4024  1.4371
 3211TIP3   OH231047   2.587   5.293   0.432 -0.2104 -0.2419 -0.0484
 3211TIP3    H131048   2.609   5.326   0.520  0.1689  0.6554 -0.4610
 3211TIP3    H231049   2.671   5.291   0.386 -0.4069 -0.7116 -0.3959
 3212TIP3   OH231050   6.272   5.209   6.316 -0.4328 -0.2554 -0.1872
 3212TIP3    H131051   6.198   5.254   6.276 -0.8693  1.3001  2.1576
 3212TIP3    H231052   6.348   5.263   6.296 -0.3573 -0.4317 -0.3826
 3213TIP3   OH231053   2.952   5.341   6.838 -0.0449 -0.0227  0.5567
 3213TIP3    H131054   3.039   5.338   6.878 -0.8048  0.9400  2.3866
 3213TIP3    H231055   2.962   5.400   6.763  0.7578  0.5355  1.0911
 3214TIP3   OH231056   3.904   6.324   6.487  0.7202  0.1060 -0.2493
 3214TIP3    H131057   3.992   6.286   6.495  0.0503 -1.4131  0.1827
 3214TIP3    H231058   3.920   6.419   6.483  2.3104 -0.0590  0.9886
 3215TIP3   OH231059   2.923   2.196  14.244  0.2424  0.1534 -0.4734
 3215TIP3    H131060   2.993   2.242  14.198 -0.5391 -0.5377 -2.4385
 3215TIP3    H231061   2.968   2.138  14.305  1.6226 -2.3818 -3.6382
 3216TIP3   OH231062   1.671   1.193  12.457  0.2505  0.6890  0.5055
 3216TIP3    H131063   1.727   1.228  12.387 -1.0876  0.3104 -0.8329
 3216TIP3    H231064   1.714   1.112  12.485 -0.1296 -0.2001 -1.2968
 3217TIP3   OH231065   5.595   6.184   5.017  0.2247 -0.0894  0.2160
 3217TIP3    H131066   5.619   6.275   5.035 -0.5074  0.2451 -0.4461
 3217TIP3    H231067   5.601   6.141   5.102  1.1726  0.4304  0.4282
 3218TIP3   OH231068   1.333   6.066   2.924  0.0818 -0.3546 -0.4542
 3218TIP3    H131069   1.398   6.022   2.979  0.0279 -1.0841 -0.9682
 3218TIP3    H231070   1.262   6.003   2.915  0.1114 -0.2674 -1.4012
 3219TIP3   OH231071   3.658   3.904   2.427  0.4703 -0.1646  0.4877
 3219TIP3    H131072   3.641   3.975   2.364 -0.1652 -0.4425  0.3444
 3219TIP3    H231073   3.741   3.929   2.467  0.1529  0.7813  0.5940
 3220TIP3   OH231074   1.400   2.185   3.990  0.2456 -0.1973 -0.6218
 3220TIP3    H131075   1.480   2.133   3.997  1.5321  1.8311  0.7322
 3220TIP3    H231076   1.428   2.264   3.944 -0.6627  1.1093  1.0093
 3221TIP3   OH231077   3.443   3.716  15.158 -0.3696  0.4375  0.1635
 3221TIP3    H131078   3.411   3.723  15.069 -1.1257  0.7872  0.4561
 3221TIP3    H231079   3.433   3.804  15.195 -1.3393 -0.0083  1.0075
 3222TIP3   OH231080   4.713   4.213  11.540 -0.6141  0.1381 -0.1973
 3222TIP3    H131081   4.700   4.266  11.461  0.8262  1.0683  0.1349
 3222TIP3    H231082   4.805   4.230  11.565 -1.1172  0.1529  1.8511
 3223TIP3   OH231083   2.421   4.780   3.591 -0.2442  0.5248 -0.0153
 3223TIP3    H131084   2.468   4.734   3.521 -2.9040  0.5957 -1.9933
 3223TIP3    H231085   2.405   4.867   3.556  0.8240  1.5804  1.9155
 3224TIP3   OH231086   4.548   1.635   2.483  0.2109 -0.0805 -0.2611
 3224TIP3    H131087   4.456   1.626   2.506  0.2299  0.4079  0.0192
 3224TIP3    H231088   4.548   1.693   2.407  0.2869 -0.0940 -0.2718
 3225TIP3   OH231089   4.532   4.518  15.074 -0.4457  0.2819 -0.1975
 3225TIP3    H131090   4.561   4.465  15.000  0.1942 -0.7995  0.7965
 3225TIP3    H231091   4.607   4.522  15.132 -1.3228  0.0588  0.9845
 3226TIP3   OH231092   4.267   5.731  15.723 -0.4763  0.0499  0.4450
 3226TIP3    H131093   4.341   5.776  15.683 -0.3211 -0.0737  0.5885
 3226TIP3    H231094   4.306   5.678  15.792 -0.6083 -0.6051  0.0278
 3227TIP3   OH231095   0.695   1.455   0.476 -0.1254  0.0852 -0.0724
 3227TIP3    H131096   0.771   1.423   0.525  1.3038  0.4859 -1.9306
 3227TIP3    H231097   0.650   1.376   0.446  1.1995 -0.2108 -1.3653
 3228TIP3   OH231098   5.069   2.233  15.872 -0.1445 -0.5919  0.7079
 3228TIP3    H131099   5.103   2.307  15.922  0.6117 -1.6372  1.7841
 3228TIP3    H231100   4.976   2.231  15.894  0.0028 -0.4842  1.3657
 3229TIP3   OH231101   4.926   6.283   2.637  0.1365  0.6061 -0.0529
 3229TIP3    H131102   5.012   6.283   2.679  0.1649 -0.1613 -0.1107
 3229TIP3    H231103   4.889   6.369   2.659  1.1303  1.1642 -0.4697
 3230TIP3   OH231104   4.471   2.571  14.393 -0.9484 -0.6063 -0.0728
 3230TIP3    H131105   4.498   2.511  14.461  0.1926 -0.9308 -0.7853
 3230TIP3    H231106   4.535   2.642  14.396 -0.9118 -0.5987 -0.7621
 3231TIP3   OH231107   6.587   5.748   1.695 -0.2001  0.0046  0.0075
 3231TIP3    H131108   6.652   5.749   1.625 -1.9290 -0.8014 -1.7077
 3231TIP3    H231109   6.613   5.675   1.751  1.1375  0.5807  0.1724
 3232TIP3   OH231110   3.665   5.596   3.524 -0.4001 -0.3511 -0.7373
 3232TIP3    H131111   3.721   5.656   3.475  0.8771 -1.5272 -0.7564
 3232TIP3    H231112   3.591   5.650   3.552  0.5124  1.1235 -1.0938
 3233TIP3   OH231113   1.919   5.443  13.564 -0.3061 -0.1172  0.0203
 3233TIP3    H131114   1.942   5.480  13.649  0.0763  0.1691 -0.2046
 3233TIP3    H231115   1.978   5.367  13.554 -0.5544 -0.3255  0.1408
 3234TIP3   OH231116   0.964   6.112   3.503  0.2272  0.0943  0.1531
 3234TIP3    H131117   1.036   6.053   3.527  0.4392  0.3367  0.1105
 3234TIP3    H231118   0.888   6.074   3.546  0.4471  0.0407  0.5050
 3235TIP3   OH231119   4.081   4.082  13.539 -0.2578  0.4888 -0.2508
 3235TIP3    H131120   4.044   4.161  13.578 -0.6055  0.1191  0.1785
 3235TIP3    H231121   4.074   4.016  13.607 -0.8769 -0.1746 -0.9385
 3236TIP3   OH231122   3.820   5.351   4.900  0.7147  0.4340  0.3233
 3236TIP3    H131123   3.799   5.430   4.951 -1.2496  1.8893 -2.4922
 3236TIP3    H231124   3.910   5.366   4.870  0.6983  1.1372  0.6008
 3237TIP3   OH231125   1.604   4.298   2.504 -0.0065  0.4742 -0.0583
 3237TIP3    H131126   1.617   4.287   2.598  2.6155 -1.3914 -0.5096
 3237TIP3    H231127   1.690   4.323   2.470 -0.7823  0.7218 -2.0113
 3238TIP3   OH231128   1.031   1.696   0.287  0.3960 -0.0500  0.1424
 3238TIP3    H131129   1.084   1.743   0.352  1.3525 -1.3205  0.3230
 3238TIP3    H231130   1.090   1.629   0.252 -0.6332 -0.4962 -0.8109
 3239TIP3   OH231131   4.476   3.759  15.939 -0.0795 -0.5173  0.0700
 3239TIP3    H131132   4.433   3.811  16.007  1.0214  1.7317 -0.8443
 3239TIP3    H231133   4.506   3.681  15.984 -0.9432  0.0778  1.7595
 3240TIP3   OH231134   2.448   1.774   0.046 -0.1504 -0.4071  0.4860
 3240TIP3    H131135   2.460   1.683   0.020  0.8915 -0.0260 -0.4046
 3240TIP3    H231136   2.393   1.769   0.125 -1.1445 -1.7295 -0.2529
 3241TIP3   OH231137   1.536   0.965  11.880 -0.3023  0.3919 -0.3596
 3241TIP3    H131138   1.546   1.036  11.944 -0.5975  0.7308 -0.6796
 3241TIP3    H231139   1.485   0.898  11.926  0.2456  0.2454  0.0485
 3242TIP3   OH231140   6.607   0.851   3.329  0.9796 -0.4573 -0.3004
 3242TIP3    H131141   6.524   0.840   3.375  1.6816  0.8628  1.4104
 3242TIP3    H231142   6.589   0.825   3.239 -1.2541 -0.3003  0.0565
 3243TIP3   OH231143   4.841   4.198  14.550 -0.1296  0.3539  0.0401
 3243TIP3    H131144   4.773   4.256  14.583  0.7480 -0.1025  2.9742
 3243TIP3    H231145   4.862   4.141  14.625  1.8986 -0.9880 -1.4452
 3244TIP3   OH231146   5.182   2.095   3.432 -0.0464  0.1253 -0.1093
 3244TIP3    H131147   5.278   2.095   3.424 -0.0312  1.6438 -0.2037
 3244TIP3    H231148   5.165   2.145   3.512 -0.7821  0.2185 -0.3240
 3245TIP3   OH231149   3.480   6.681  14.697 -0.0920 -0.0608 -0.0814
 3245TIP3    H131150   3.427   6.688  14.618 -1.7608 -2.8290  0.6486
 3245TIP3    H231151   3.432   6.731  14.762 -0.1756 -0.0246 -0.1709
 3246TIP3   OH231152   5.481   2.335  14.471 -0.2819  0.2568  0.2553
 3246TIP3    H131153   5.568   2.346  14.431 -0.1432  0.4428  0.6023
 3246TIP3    H231154   5.476   2.405  14.535 -1.4806  1.5044 -1.1159
 3247TIP3   OH231155   5.222   0.256  10.724  0.1045  0.1079 -0.0322
 3247TIP3    H131156   5.210   0.161  10.713 -0.6192  0.4368 -2.6637
 3247TIP3    H231157   5.297   0.264  10.783 -0.8178 -2.0743  1.5749
 3248TIP3   OH231158   5.875   4.930  16.710  0.0358  0.6104  0.0761
 3248TIP3    H131159   5.964   4.965  16.724  1.2665 -2.6204  1.2775
 3248TIP3    H231160   5.847   4.969  16.627  2.9595  1.0439 -0.8313
 3249TIP3   OH231161   6.371   0.749   2.095  0.4297  0.2169  0.4693
 3249TIP3    H131162   6.331   0.663   2.082  0.4567  0.0685  1.3261
 3249TIP3    H231163   6.338   0.778   2.180 -1.8245  2.3085 -0.9679
 3250TIP3   OH231164   0.860   5.230  16.197  0.2505  0.5198  0.0234
 3250TIP3    H131165   0.890   5.140  16.211  0.6239  0.5868 -0.3211
 3250TIP3    H231166   0.926   5.268  16.139 -1.0623  0.3319 -1.6787
 3251TIP3   OH231167   4.420   0.069   0.485  0.0210  0.9550 -0.0758
 3251TIP3    H131168   4.351   0.132   0.466 -1.2152 -0.2340  0.3374
 3251TIP3    H231169   4.413   0.053   0.579 -2.0671 -2.3498 -0.6193
 3252TIP3   OH231170   1.943   0.606   0.974 -0.4034 -0.0924  0.0763
 3252TIP3    H131171   1.871   0.635   0.917  1.6207 -0.4539 -2.8921
 3252TIP3    H231172   2.007   0.677   0.971  1.8835 -2.0213 -2.2706
 3253TIP3   OH231173   2.146   2.278  15.706 -0.3845 -0.0206  0.3972
 3253TIP3    H131174   2.135   2.349  15.770 -0.6133 -0.5076  0.9098
 3253TIP3    H231175   2.103   2.311  15.627  0.5710  0.9023  0.2344
 3254TIP3   OH231176   5.613   6.435   3.954 -0.5195  0.3947 -0.1653
 3254TIP3    H131177   5.628   6.347   3.989 -1.3780  0.5894  0.7330
 3254TIP3    H231178   5.682   6.447   3.889  0.6506 -0.3082  0.8875
 3255TIP3   OH231179   3.168   6.085   4.808 -0.4303  0.2699  0.8881
 3255TIP3    H131180   3.102   6.143   4.770 -0.6006 -1.1529 -1.1454
 3255TIP3    H231181   3.244   6.141   4.822  0.3906  0.6211 -3.5660
 3256TIP3   OH231182   4.566   1.998  14.106  0.4479  0.3769  0.3740
 3256TIP3    H131183   4.497   1.932  14.112 -0.3532  1.2576  1.0996
 3256TIP3    H231184   4.633   1.957  14.052 -1.3976  0.1563 -1.8901
 3257TIP3   OH231185   5.498   6.500   3.725  0.1345  0.1553 -0.3260
 3257TIP3    H131186   5.521   6.458   3.808 -1.5067 -1.6101 -0.7086
 3257TIP3    H231187   5.488   6.428   3.663 -0.3680  1.3066 -1.6385
 3258TIP3   OH231188   1.319   0.984   5.243 -0.6104  0.5090 -0.1288
 3258TIP3    H131189   1.223   0.976   5.239 -0.5299 -2.1499  0.9487
 3258TIP3    H231190   1.348   0.899   5.276  2.2069  0.9855 -1.1526
 3259TIP3   OH231191   0.080   3.566  16.204  0.0703 -0.5683  0.0936
 3259TIP3    H131192   0.161   3.610  16.180 -0.6973  0.6692 -0.3181
 3259TIP3    H231193   0.108   3.482  16.241  1.4886 -0.5507 -0.8615
 3260TIP3   OH231194   3.739   2.247   0.226  0.0764 -0.0065  0.3136
 3260TIP3    H131195   3.676   2.313   0.196  1.7070  1.7343  0.5571
 3260TIP3    H231196   3.724   2.243   0.321 -0.2160 -0.2172  0.2615
 3261TIP3   OH231197   0.116   2.476   5.719  0.4197 -0.2053  0.4804
 3261TIP3    H131198   0.039   2.533   5.722  1.7537  1.7183  0.5621
 3261TIP3    H231199   0.131   2.450   5.809 -0.7612 -1.5439  0.3197
 3262TIP3   OH231200   2.522   0.584  15.672  0.3976  0.5318  0.5648
 3262TIP3    H131201   2.493   0.580  15.581 -0.4003  1.7655  0.7378
 3262TIP3    H231202   2.582   0.659  15.675  1.6490 -0.4510  0.7477
 3263TIP3   OH231203   6.089   5.745   2.641 -0.4511  0.5409 -0.0224
 3263TIP3    H131204   6.000   5.709   2.644  0.2114 -1.4619 -2.0529
 3263TIP3    H231205   6.092   5.795   2.560  0.2576  0.6292  0.0510
 3264TIP3   OH231206   1.332   5.509  11.925 -0.1335  0.0541 -0.3090
 3264TIP3    H131207   1.277   5.497  12.003 -1.3411 -0.6648 -1.2338
 3264TIP3    H231208   1.360   5.601  11.929 -1.3204  0.4139  0.2593
 3265TIP3   OH231209   3.855   1.708   4.421 -0.2724 -0.0629 -0.5493
 3265TIP3    H131210   3.949   1.697   4.409  0.0469 -0.3896  1.8055
 3265TIP3    H231211   3.840   1.803   4.414  0.2955  0.0293 -0.5115
 3266TIP3   OH231212   2.890   5.480   2.353 -0.4973 -0.5240 -0.3317
 3266TIP3    H131213   2.903   5.529   2.434  0.4594 -0.3184 -0.6076
 3266TIP3    H231214   2.932   5.396   2.368 -0.9828 -0.7778 -0.3476
 3267TIP3   OH231215   5.154   4.083   6.270 -0.5212  0.2696  0.4110
 3267TIP3    H131216   5.203   4.020   6.218 -1.3147  0.0944 -0.1449
 3267TIP3    H231217   5.068   4.044   6.281 -1.0840  1.3323 -0.1046
 3268TIP3   OH231218   3.357   3.579   2.566  0.6749 -0.3830 -0.8016
 3268TIP3    H131219   3.401   3.586   2.651 -0.8632 -0.6336  0.0445
 3268TIP3    H231220   3.267   3.607   2.583 -0.6383 -3.6545 -1.5234
 3269TIP3   OH231221   3.238   5.662  14.341  0.6738 -0.1842  0.3632
 3269TIP3    H131222   3.191   5.711  14.273  2.2593 -0.4857 -1.0164
 3269TIP3    H231223   3.287   5.728  14.390  0.4758 -0.0967  0.4463
 3270TIP3   OH231224   1.225   4.036  10.440  0.1817 -0.6022  0.0595
 3270TIP3    H131225   1.190   3.964  10.387  0.4168  0.5401 -1.7220
 3270TIP3    H231226   1.156   4.101  10.441  0.4248 -0.3428  0.6593
 3271TIP3   OH231227   2.246   6.002  14.150 -0.0720  0.4490 -0.9044
 3271TIP3    H131228   2.287   6.053  14.080  0.7928  1.8531  0.5690
 3271TIP3    H231229   2.319   5.958  14.193 -0.0717  2.5653  1.4286
 3272TIP3   OH231230   2.662   3.155  13.269  0.0059 -0.3907 -0.1490
 3272TIP3    H131231   2.636   3.087  13.332  1.7566 -1.5033 -0.5598
 3272TIP3    H231232   2.608   3.137  13.192 -0.6948 -0.2874  0.3004
 3273TIP3   OH231233   1.398   2.180   4.998  0.1764  0.1849  0.2369
 3273TIP3    H131234   1.395   2.230   5.079 -0.2188  0.2603  0.1762
 3273TIP3    H231235   1.325   2.119   5.004  1.4573 -1.3437  0.9251
 3274TIP3   OH231236   0.909   4.909   3.761  0.2611  0.1535 -0.9226
 3274TIP3    H131237   0.912   4.937   3.670  2.0360 -0.6457 -1.1582
 3274TIP3    H231238   1.000   4.916   3.791 -0.2363  0.0956  0.6852
 3275TIP3   OH231239   6.319   3.209  14.183 -0.0783  0.1462 -0.8521
 3275TIP3    H131240   6.285   3.296  14.206 -2.6449 -1.2592  1.0869
 3275TIP3    H231241   6.310   3.205  14.087 -1.2719  1.4920 -0.8249
 3276TIP3   OH231242   4.504   3.184  13.562  0.0937 -0.4028 -0.2002
 3276TIP3    H131243   4.561   3.222  13.495  0.1043 -0.9081 -0.4815
 3276TIP3    H231244   4.417   3.184  13.522 -0.1278  0.4263  0.2519
 3277TIP3   OH231245   2.117   4.784  15.300  0.5965  0.5841  0.1923
 3277TIP3    H131246   2.205   4.818  15.282  0.4976  1.1668  0.7684
 3277TIP3    H231247   2.064   4.862  15.317  0.2602  0.1711  1.0940
 3278TIP3   OH231248   4.496   1.356  11.862 -0.2111 -0.0695 -0.4412
 3278TIP3    H131249   4.472   1.297  11.791  0.2611 -0.9075  0.0747
 3278TIP3    H231250   4.585   1.328  11.887 -0.1071  0.6494  0.0285
 3279TIP3   OH231251   0.135   0.348   1.477  0.1619 -0.1809  0.4598
 3279TIP3    H131252   0.043   0.373   1.467  0.2423  0.0079  0.1819
 3279TIP3    H231253   0.145   0.269   1.424 -0.1032 -0.8500  1.3746
 3280TIP3   OH231254   6.692   6.002  14.586  0.4090 -0.3979 -0.1682
 3280TIP3    H131255   6.722   6.091  14.602  1.0787 -0.2261 -2.0837
 3280TIP3    H231256   6.764   5.946  14.613  0.3027 -0.3126  0.2931
 3281TIP3   OH231257   0.763   6.081   5.574 -0.0649  0.3896  0.4716
 3281TIP3    H131258   0.674   6.106   5.600 -0.4020  0.8885 -1.0693
 3281TIP3    H231259   0.752   5.999   5.526  0.1372  1.1207 -0.8485
 3282TIP3   OH231260   6.749   0.427  14.955  0.3764  0.3311 -0.4139
 3282TIP3    H131261   6.755   0.396  14.865 -0.7155 -0.8809 -0.1063
 3282TIP3    H231262   6.793   0.512  14.955 -0.8428  1.0395 -2.4061
 3283TIP3   OH231263   2.378   0.540   2.407  0.1722  0.0928 -0.7549
 3283TIP3    H131264   2.419   0.552   2.492 -1.9025 -0.8508  0.4371
 3283TIP3    H231265   2.333   0.623   2.390 -0.8805 -0.3260 -0.0741
 3284TIP3   OH231266   6.570   3.150  12.236  0.1023  0.0209 -0.4127
 3284TIP3    H131267   6.508   3.077  12.229  2.1982 -1.7142 -3.7892
 3284TIP3    H231268   6.654   3.112  12.212  1.4759  3.3772 -1.4880
 3285TIP3   OH231269   0.826   4.419  12.387 -0.2914 -0.7438  0.3366
 3285TIP3    H131270   0.823   4.456  12.299 -0.7552 -1.5814 -0.0092
 3285TIP3    H231271   0.886   4.345  12.381  0.1258 -0.4611  0.8716
 3286TIP3   OH231272   0.634   5.507   2.415  0.0029  0.1992  1.1778
 3286TIP3    H131273   0.619   5.554   2.497 -0.3578 -1.1898  1.9592
 3286TIP3    H231274   0.690   5.433   2.441  0.3847  0.0841  0.0456
 3287TIP3   OH231275   3.117   2.952   2.479  0.3640 -0.2044  0.0634
 3287TIP3    H131276   3.126   2.932   2.572  2.8921  0.5441  0.0609
 3287TIP3    H231277   3.144   2.871   2.434 -1.0051 -0.6177 -0.0515
 3288TIP3   OH231278   2.057   0.661  15.759  0.1195  0.1726  0.2571
 3288TIP3    H131279   1.976   0.616  15.737  0.4056 -0.1581 -0.1316
 3288TIP3    H231280   2.107   0.597  15.810  0.4602  0.1046 -0.1603
 3289TIP3   OH231281   0.639   2.447   0.506  0.0103 -0.8301 -0.7056
 3289TIP3    H131282   0.547   2.421   0.504 -0.4094  0.4146  0.8236
 3289TIP3    H231283   0.686   2.368   0.480 -1.5089 -1.1708 -2.7259
 3290TIP3   OH231284   6.598   5.593  11.428  0.0318  0.3714  0.0916
 3290TIP3    H131285   6.522   5.571  11.374  0.3058  0.5741 -0.3853
 3290TIP3    H231286   6.673   5.556  11.381  0.3417  1.1101 -0.0116
 3291TIP3   OH231287   5.496   0.232  14.443  0.4355 -0.5203 -0.4912
 3291TIP3    H131288   5.456   0.310  14.481 -1.8263 -2.0849  0.5733
 3291TIP3    H231289   5.484   0.163  14.509  2.7890 -1.7009 -1.1756
 3292TIP3   OH231290   3.477   6.661  13.047  0.1132  0.3218  0.2285
 3292TIP3    H131291   3.544   6.646  13.114  1.4897 -0.3548 -1.2327
 3292TIP3    H231292   3.488   6.754  13.023  0.5648  0.2145 -0.0052
 3293TIP3   OH231293   2.572   4.889  11.493  0.2243 -0.4552  0.2601
 3293TIP3    H131294   2.576   4.793  11.495 -0.2038 -0.5254 -1.3505
 3293TIP3    H231295   2.629   4.917  11.565 -0.0928 -1.9198  1.1161
 3294TIP3   OH231296   3.464   1.553   1.231 -0.4719  0.2194  0.3258
 3294TIP3    H131297   3.465   1.649   1.239 -1.4966  0.2615  0.1162
 3294TIP3    H231298   3.420   1.523   1.310  0.2342 -0.1179  0.5990
 3295TIP3   OH231299   5.478   6.013   0.313 -0.2792 -0.3139 -0.3531
 3295TIP3    H131300   5.389   5.981   0.303  0.2312 -1.3490 -2.0936
 3295TIP3    H231301   5.477   6.101   0.274 -0.7239  0.0509  0.4669
 3296TIP3   OH231302   1.198   5.113   3.490 -0.3202 -0.2248 -0.3778
 3296TIP3    H131303   1.224   5.021   3.499 -1.3368 -0.4966 -0.1610
 3296TIP3    H231304   1.117   5.111   3.441 -0.8810  0.4808  0.4883
 3297TIP3   OH231305   2.469   4.361   0.605 -0.4402  0.5423  0.8438
 3297TIP3    H131306   2.499   4.342   0.516  3.3292  0.7930  1.8614
 3297TIP3    H231307   2.380   4.394   0.594 -1.4457 -2.6313 -2.4293
 3298TIP3   OH231308   0.500   2.129   4.814  0.5029 -0.6903  0.6446
 3298TIP3    H131309   0.499   2.080   4.896  1.2252  1.0943  1.7789
 3298TIP3    H231310   0.409   2.157   4.802 -0.0090 -2.5780 -0.2455
 3299TIP3   OH231311   5.573   4.559   5.833 -0.5309 -0.0399  0.1884
 3299TIP3    H131312   5.526   4.576   5.915 -1.5925 -1.7027 -0.0291
 3299TIP3    H231313   5.511   4.510   5.780 -0.0151  1.3359 -1.8182
 3300TIP3   OH231314   2.563   2.467  16.803 -0.0791  0.1899  0.2784
 3300TIP3    H131315   2.492   2.464  16.739 -0.7706 -1.5851  1.0801
 3300TIP3    H231316   2.618   2.393  16.781  0.0715 -0.0119  1.2944
 3301TIP3   OH231317   4.004   2.879   0.572 -0.4793 -0.4045  0.0980
 3301TIP3    H131318   4.050   2.806   0.531  0.3200 -1.0551  2.0330
 3301TIP3    H231319   4.005   2.948   0.505  3.4988 -0.3244 -0.0397
 3302TIP3   OH231320   5.724   3.604   0.103  0.5380 -0.4456  0.1443
 3302TIP3    H131321   5.669   3.629   0.178 -0.2384 -2.3735  0.2762
 3302TIP3    H231322   5.740   3.510   0.115  0.6837 -0.7347 -1.9314
 3303TIP3   OH231323   4.871   2.632  13.479 -0.5863  0.0992  0.4432
 3303TIP3    H131324   4.957   2.654  13.443  0.4926 -2.1365  1.5151
 3303TIP3    H231325   4.861   2.538  13.463 -2.3339  0.0863  1.3651
 3304TIP3   OH231326   4.572   2.194  16.980 -0.3235 -0.0638 -0.0543
 3304TIP3    H131327   4.513   2.234  16.915  3.1620  2.3345 -2.0709
 3304TIP3    H231328   4.620   2.128  16.930 -0.1281 -0.8198  1.1128
 3305TIP3   OH231329   2.989   0.765   1.104  0.3667 -0.2763  0.8828
 3305TIP3    H131330   2.984   0.820   1.182  1.7375 -0.4604  1.1282
 3305TIP3    H231331   3.078   0.776   1.072 -0.1304 -0.2974 -0.6114
 3306TIP3   OH231332   1.725   1.710   3.529 -0.0022 -0.0218 -0.2535
 3306TIP3    H131333   1.673   1.757   3.594 -0.1936 -1.3849  0.6063
 3306TIP3    H231334   1.799   1.674   3.577  0.0837 -0.6987 -0.8645
 3307TIP3   OH231335   1.104   4.183   0.127  0.1088  0.0265  0.6356
 3307TIP3    H131336   1.022   4.164   0.081  0.4378  1.0167 -0.3932
 3307TIP3    H231337   1.101   4.277   0.145  1.1467  0.1330  0.3243
 3308TIP3   OH231338   5.786   1.031   0.455 -0.3401  1.0872 -0.1210
 3308TIP3    H131339   5.820   1.036   0.366 -1.6679  1.1595 -0.6465
 3308TIP3    H231340   5.712   0.971   0.450 -0.3537  0.9828  0.9677
 3309TIP3   OH231341   0.449   3.012   6.553 -0.5339  0.1174 -0.3681
 3309TIP3    H131342   0.477   3.091   6.599  0.3673 -0.3642 -0.0704
 3309TIP3    H231343   0.498   3.014   6.471  0.2999 -0.6637  0.0979
 3310TIP3   OH231344   0.344   5.695   4.494 -0.0281  0.5359  0.3925
 3310TIP3    H131345   0.351   5.737   4.579 -0.9503  1.8989 -0.1661
 3310TIP3    H231346   0.424   5.720   4.448 -0.5025  1.6110  0.1176
 3311TIP3   OH231347   0.253   0.187  16.169  0.1443  0.3966 -0.1674
 3311TIP3    H131348   0.325   0.124  16.177 -1.3172 -1.3150 -0.1143
 3311TIP3    H231349   0.217   0.172  16.082 -0.3929  0.9918 -0.0599
 3312TIP3   OH231350   5.276   4.296  14.592 -0.5458 -0.2746 -0.1949
 3312TIP3    H131351   5.371   4.311  14.600 -0.9024  1.8963  0.4986
 3312TIP3    H231352   5.260   4.218  14.645  0.6909 -0.0179  0.5926
 3313TIP3   OH231353   6.020   0.005   6.286  0.7246  0.5131 -0.3635
 3313TIP3    H131354   6.115  -0.001   6.300  0.6444 -0.2809 -0.1278
 3313TIP3    H231355   5.983   0.001   6.374  0.4359  0.0938 -0.5034
 3314TIP3   OH231356   1.348   3.665  14.664  0.1743 -0.0298 -0.5691
 3314TIP3    H131357   1.287   3.651  14.592  0.0906 -0.7933 -0.3554
 3314TIP3    H231358   1.321   3.749  14.702  0.2122  0.3746 -1.4034
 3315TIP3   OH231359   6.712   1.015  12.500  0.2383 -0.0057  0.4227
 3315TIP3    H131360   6.774   1.084  12.475 -0.2081  0.1555 -0.2648
 3315TIP3    H231361   6.729   1.000  12.593  2.5363 -1.2059 -0.1242
 3316TIP3   OH231362   0.840   6.224   1.002  0.1374  0.6553  0.4360
 3316TIP3    H131363   0.769   6.280   0.971  0.1914  0.4970  0.0237
 3316TIP3    H231364   0.898   6.283   1.050 -1.0218  0.5426  2.0580
 3317TIP3   OH231365   3.847   6.428   5.779 -0.4440  0.3313  0.0018
 3317TIP3    H131366   3.755   6.435   5.752 -0.3496 -0.1623 -0.4770
 3317TIP3    H231367   3.849   6.351   5.836 -0.2030 -0.0935 -0.5724
 3318TIP3   OH231368   6.370   4.960   1.378  0.1301 -0.0695  0.2357
 3318TIP3    H131369   6.309   4.953   1.452  0.5857  0.1728  0.6375
 3318TIP3    H231370   6.404   4.871   1.367  0.1115 -0.0916  0.3576
 3319TIP3   OH231371   0.228   0.676  14.750  0.0287 -0.4715  0.1828
 3319TIP3    H131372   0.221   0.754  14.805 -3.1254 -0.6430  0.1527
 3319TIP3    H231373   0.276   0.613  14.803  3.0954  1.4769  0.0503
 3320TIP3   OH231374   6.279   3.577   5.939  0.0390  0.0805 -0.0468
 3320TIP3    H131375   6.341   3.547   5.872 -0.3682 -0.9908  0.0427
 3320TIP3    H231376   6.193   3.555   5.905 -0.3123  1.4995 -0.1337
 3321TIP3   OH231377   0.801   4.162   4.327  0.0863 -0.5257  0.8074
 3321TIP3    H131378   0.811   4.242   4.276 -0.8118 -0.2011  1.1099
 3321TIP3    H231379   0.852   4.096   4.280  1.0399  0.2764  0.6935
 3322TIP3   OH231380   4.744   5.119  15.105 -0.0310 -0.7891  0.5651
 3322TIP3    H131381   4.698   5.100  15.187  1.5420 -2.7110  1.0556
 3322TIP3    H231382   4.693   5.073  15.038 -0.4417 -0.5027  0.6755
 3323TIP3   OH231383   2.577   3.274  11.851 -0.1288  0.7656  0.1753
 3323TIP3    H131384   2.668   3.261  11.878 -0.0116  1.7808  0.2773
 3323TIP3    H231385   2.540   3.185  11.851  0.8394  0.3453  0.1748
 3324TIP3   OH231386   4.860   0.374  16.741 -0.3893  0.0286  0.6172
 3324TIP3    H131387   4.791   0.438  16.723 -0.5815 -0.1214  0.8104
 3324TIP3    H231388   4.942   0.422  16.731 -0.5071  0.0751 -0.1580
 3325TIP3   OH231389   2.460   6.584  14.879 -0.0753  0.1187  0.4399
 3325TIP3    H131390   2.432   6.675  14.870 -0.3226  0.0701  0.7081
 3325TIP3    H231391   2.555   6.587  14.870 -0.1190  0.3484  0.0219
 3326TIP3   OH231392   1.810   2.942  11.012  0.3369  0.1915 -0.1669
 3326TIP3    H131393   1.765   2.990  11.082  1.3742  0.6818  0.1761
 3326TIP3    H231394   1.892   2.913  11.052  1.9200  2.2368 -1.7022
 3327TIP3   OH231395   4.565   6.100  11.301  0.0371  0.2798  0.5223
 3327TIP3    H131396   4.633   6.166  11.282  0.5630  0.5378  2.9495
 3327TIP3    H231397   4.486   6.136  11.261  0.9209  0.8567 -0.8146
 3328TIP3   OH231398   0.703   1.085  14.564  0.0309 -0.3325  0.2808
 3328TIP3    H131399   0.695   1.075  14.659  0.2118  0.8027  0.4297
 3328TIP3    H231400   0.791   1.120  14.551 -1.1611  2.8150  0.0028
 3329TIP3   OH231401   3.325   3.569   4.340  0.6077  0.2689  0.0600
 3329TIP3    H131402   3.246   3.621   4.355  1.5459  1.1242  2.5220
 3329TIP3    H231403   3.339   3.522   4.422  1.9675 -0.8483 -0.7748
 3330TIP3   OH231404   5.203   2.320   3.128 -0.4778  0.0313 -0.2340
 3330TIP3    H131405   5.119   2.304   3.086 -0.6912  0.0613  0.1781
 3330TIP3    H231406   5.247   2.235   3.128 -1.2457 -0.3825  1.1559
 3331TIP3   OH231407   2.463   0.283   5.814  0.1616  0.0788  0.1117
 3331TIP3    H131408   2.498   0.366   5.783  0.6090 -0.0734  0.1968
 3331TIP3    H231409   2.442   0.298   5.906  1.8018 -0.3517  0.6045
 3332TIP3   OH231410   4.862   1.181   3.853  0.0916 -0.1295 -0.3241
 3332TIP3    H131411   4.905   1.198   3.769 -0.6167 -0.4538 -0.7569
 3332TIP3    H231412   4.832   1.090   3.847 -0.7870  0.1392 -0.0888
 3333TIP3   OH231413   0.354   2.393   0.458 -0.2287 -0.4139 -0.1316
 3333TIP3    H131414   0.325   2.458   0.522 -0.3210  1.6492 -2.1085
 3333TIP3    H231415   0.374   2.315   0.509  1.1894  1.5633  2.5692
 3334TIP3   OH231416   2.574   4.489  11.229  0.2119  0.0917  0.1082
 3334TIP3    H131417   2.482   4.508  11.242 -0.1438 -1.5751  0.2735
 3334TIP3    H231418   2.575   4.403  11.186  1.6178  1.0786 -2.0539
 3335TIP3   OH231419   5.935   6.697   0.312  0.3715  0.1105 -0.0286
 3335TIP3    H131420   5.841   6.680   0.312  0.7168 -2.6938  2.7704
 3335TIP3    H231421   5.974   6.619   0.274  1.6462  0.7365 -0.0726
 3336TIP3   OH231422   2.861   3.445  13.254 -0.4213  0.0660 -0.3056
 3336TIP3    H131423   2.946   3.425  13.293 -1.9798 -1.9042  2.5217
 3336TIP3    H231424   2.808   3.476  13.328 -2.5114 -0.0203 -1.6772
 3337TIP3   OH231425   5.514   1.910  10.856  0.7377 -0.3832  0.0447
 3337TIP3    H131426   5.478   1.854  10.788  3.0927 -0.9622 -0.8556
 3337TIP3    H231427   5.580   1.963  10.810  1.8701 -0.2532  1.7314
 3338TIP3   OH231428   4.571   2.332  14.517  0.0230  0.0892 -0.3760
 3338TIP3    H131429   4.601   2.271  14.449 -0.7556 -2.8703  1.7020
 3338TIP3    H231430   4.596   2.290  14.599 -1.2947  2.2508  1.2299
 3339TIP3   OH231431   2.035   0.132   5.691 -0.5752  0.0809  0.6803
 3339TIP3    H131432   2.038   0.191   5.767  2.4619  2.0570 -0.7718
 3339TIP3    H231433   2.067   0.049   5.725 -2.0192  0.0525  2.1219
 3340TIP3   OH231434   4.541   0.425  13.658 -0.1386 -0.9560  0.7243
 3340TIP3    H131435   4.629   0.391  13.639  0.2027  0.5877 -0.7607
 3340TIP3    H231436   4.539   0.511  13.615 -2.3143 -0.8651  0.8912
 3341TIP3   OH231437   2.054   1.040   3.230  0.1004  0.2574 -0.9354
 3341TIP3    H131438   2.007   1.062   3.150  0.7048  0.7555 -1.1578
 3341TIP3    H231439   1.992   1.059   3.300 -0.1346  0.6169 -1.2386
 3342TIP3   OH231440   1.827   4.644  14.499 -0.1979  0.2029 -0.5189
 3342TIP3    H131441   1.835   4.597  14.582 -0.1503 -1.9444 -1.6762
 3342TIP3    H231442   1.786   4.728  14.523  1.0812  0.2432  1.8292
 3343TIP3   OH231443   4.415   1.591  12.865  0.1611  0.0371 -0.0614
 3343TIP3    H131444   4.451   1.547  12.942 -0.5060 -0.8437 -0.2432
 3343TIP3    H231445   4.457   1.677  12.865  0.5499 -0.1389  0.9995
 3344TIP3   OH231446   2.711   6.042  15.389 -0.4838 -0.2385 -0.5209
 3344TIP3    H131447   2.727   6.128  15.351  0.0323 -0.0288  0.1397
 3344TIP3    H231448   2.619   6.044  15.416 -0.3682  0.2481 -0.1606
 3345TIP3   OH231449   5.453   4.302  13.763  0.3999  0.5492 -0.2092
 3345TIP3    H131450   5.427   4.394  13.770 -1.9502 -0.1328  0.7790
 3345TIP3    H231451   5.388   4.264  13.704 -0.3548 -1.0276  1.5515
 3346TIP3   OH231452   3.539   5.044  13.892 -0.6459 -0.1796 -0.0909
 3346TIP3    H131453   3.470   5.103  13.862 -0.0749  0.4176 -0.2343
 3346TIP3    H231454   3.620   5.082  13.860 -0.1413 -0.2682  1.0208
 3347TIP3   OH231455   0.450   1.413   6.670 -0.7746 -0.3805 -0.0187
 3347TIP3    H131456   0.423   1.455   6.588  0.5127  0.0043 -0.2587
 3347TIP3    H231457   0.396   1.334   6.674 -0.0974 -0.9888 -1.8125
 3348TIP3   OH231458   3.864   1.990  12.354  0.3823 -0.2947 -0.4917
 3348TIP3    H131459   3.820   1.935  12.289  3.4404 -1.3701 -1.8242
 3348TIP3    H231460   3.872   1.934  12.431 -0.9505  0.0978 -0.0354
 3349TIP3   OH231461   1.471   6.645  16.685 -0.3764 -0.2050 -0.0955
 3349TIP3    H131462   1.381   6.613  16.677 -0.4066 -0.4074  0.9129
 3349TIP3    H231463   1.462   6.731  16.727 -0.0479 -0.6835  0.9877
 3350TIP3   OH231464   0.611   4.712  13.817 -0.2308  0.1384 -0.6259
 3350TIP3    H131465   0.671   4.719  13.891  0.5059 -1.6664 -0.9949
 3350TIP3    H231466   0.660   4.663  13.751 -1.5690 -0.0254 -1.5513
 3351TIP3   OH231467   2.605   1.580  15.494 -0.5218 -0.0520  0.3566
 3351TIP3    H131468   2.664   1.551  15.425  0.2591  0.0422  0.9756
 3351TIP3    H231469   2.644   1.660  15.527 -0.9588 -0.0306  0.8266
 3352TIP3   OH231470   0.673   6.566  14.916  0.1938 -0.2751 -0.4713
 3352TIP3    H131471   0.619   6.642  14.892  1.5318  0.5753 -0.8625
 3352TIP3    H231472   0.646   6.498  14.855 -0.8089 -0.0406 -0.3189
 3353TIP3   OH231473   0.466   1.900   3.991 -0.1979  0.1343 -0.7425
 3353TIP3    H131474   0.376   1.886   4.019  0.0161 -2.1815 -1.0129
 3353TIP3    H231475   0.459   1.934   3.902 -0.7987  0.2032 -0.6699
 3354TIP3   OH231476   4.868   4.701  15.955 -0.2446  0.5813  0.1813
 3354TIP3    H131477   4.832   4.620  15.992 -1.1749  0.9215  0.0562
 3354TIP3    H231478   4.940   4.724  16.012  1.6425 -1.6381 -1.1377
 3355TIP3   OH231479   2.032   3.308  11.420 -0.2759 -0.4335  0.9104
 3355TIP3    H131480   2.104   3.321  11.359 -0.7749  0.0011  0.4006
 3355TIP3    H231481   2.002   3.396  11.441 -1.3185 -0.6303  0.3070
 3356TIP3   OH231482   4.803   2.268   1.478 -0.0530  0.4181  0.1333
 3356TIP3    H131483   4.837   2.235   1.395 -1.3338 -0.6952  0.0306
 3356TIP3    H231484   4.727   2.320   1.455 -0.3634  0.1823  0.6071
 3357TIP3   OH231485   3.095   3.498  11.833 -0.5447  0.2368  0.0906
 3357TIP3    H131486   3.163   3.474  11.897 -1.7443 -4.4226 -0.0234
 3357TIP3    H231487   3.143   3.512  11.752  0.4774 -0.4927  0.5481
 3358TIP3   OH231488   2.453   0.147   3.304  0.3362  0.1589  0.5261
 3358TIP3    H131489   2.387   0.108   3.362  1.7850  1.3318  3.1061
 3358TIP3    H231490   2.517   0.186   3.363  1.9386  1.4421 -1.9076
 3359TIP3   OH231491   2.386   4.099   5.582 -0.2317  0.0843 -0.5102
 3359TIP3    H131492   2.305   4.139   5.550 -0.5915 -0.9190 -0.8980
 3359TIP3    H231493   2.364   4.066   5.669  0.6008  2.3491  0.6427
 3360TIP3   OH231494   2.320   1.921   0.660  0.0329 -0.1065  0.2480
 3360TIP3    H131495   2.348   1.930   0.751 -1.9002  0.5269  0.8211
 3360TIP3    H231496   2.320   2.010   0.625  0.8316 -0.3520 -0.4197
 3361TIP3   OH231497   6.099   5.693   4.431  0.1061  0.6111 -0.4053
 3361TIP3    H131498   6.033   5.751   4.391  0.2478  0.5513 -0.7303
 3361TIP3    H231499   6.052   5.611   4.445  0.1159  0.5572 -0.6692
 3362TIP3   OH231500   3.310   2.764   1.894  0.2617  0.2778 -0.2447
 3362TIP3    H131501   3.252   2.772   1.969 -0.7707 -1.3294 -0.8265
 3362TIP3    H231502   3.377   2.831   1.908 -0.7122  0.9614  1.3566
 3363TIP3   OH231503   1.386   6.070  13.122 -0.3961 -0.1170 -0.7744
 3363TIP3    H131504   1.412   6.076  13.214 -0.0381  0.3886 -0.9049
 3363TIP3    H231505   1.293   6.092  13.122  0.1023  2.2730 -0.7982
 3364TIP3   OH231506   5.423   0.903  13.631 -0.6714  0.6410  0.1845
 3364TIP3    H131507   5.443   0.846  13.557 -1.6427  0.7982 -0.2247
 3364TIP3    H231508   5.351   0.957  13.599 -2.6299 -0.7764  1.9338
 3365TIP3   OH231509   2.345   1.667  15.583 -0.0503 -0.4073  0.4228
 3365TIP3    H131510   2.432   1.631  15.564  0.5570  0.2399  1.8046
 3365TIP3    H231511   2.317   1.622  15.663  0.1068  1.0985  1.3794
 3366TIP3   OH231512   1.589   1.248  10.664 -0.2449  0.7888 -0.3886
 3366TIP3    H131513   1.588   1.300  10.584 -2.5373  0.7525 -0.4462
 3366TIP3    H231514   1.498   1.222  10.677  0.5897 -2.1054  0.3711
 3367TIP3   OH231515   1.460   5.285   3.718  0.4078  0.0788 -0.0555
 3367TIP3    H131516   1.553   5.269   3.705  0.5532  1.1898 -0.4262
 3367TIP3    H231517   1.417   5.205   3.686  1.2177 -0.3949  0.0245
 3368TIP3   OH231518   4.809   2.866  12.816 -0.2738 -0.5121 -0.4904
 3368TIP3    H131519   4.866   2.803  12.770 -0.8790 -0.3302 -1.5075
 3368TIP3    H231520   4.832   2.951  12.778 -1.7104 -0.5209 -1.4331
 3369TIP3   OH231521   1.859   5.112  11.922  0.4635 -0.5523  0.4191
 3369TIP3    H131522   1.799   5.111  11.996 -0.4462  2.3034 -0.1313
 3369TIP3    H231523   1.827   5.045  11.862 -0.5800 -0.8657  1.3180
 3370TIP3   OH231524   0.052   6.039   4.027 -0.5544  0.1382 -0.2256
 3370TIP3    H131525   0.027   5.970   3.967 -0.1776 -3.4443  3.3156
 3370TIP3    H231526  -0.031   6.070   4.064 -0.6275  0.1555 -0.4056
 3371TIP3   OH231527   0.737   5.204  14.646  0.7757 -0.4901  0.2943
 3371TIP3    H131528   0.667   5.263  14.616  0.7761  0.7237  2.5143
 3371TIP3    H231529   0.717   5.188  14.738  2.3256 -1.7601  0.4433
 3372TIP3   OH231530   1.526   3.316  11.331  0.0157  0.2533  0.5840
 3372TIP3    H131531   1.458   3.250  11.345 -0.1519 -0.2119 -1.8367
 3372TIP3    H231532   1.489   3.397  11.364 -0.8459 -0.3801  1.2199
 3373TIP3   OH231533   0.036   4.472  12.858 -0.4344 -0.0191  0.5849
 3373TIP3    H131534   0.081   4.398  12.817  1.3673  0.6497  1.2687
 3373TIP3    H231535   0.102   4.541  12.864 -1.7877  1.3112  0.8842
 3374TIP3   OH231536   1.144   2.836  11.480 -0.1065  0.3622 -0.8588
 3374TIP3    H131537   1.236   2.823  11.504 -0.3422 -1.8673 -0.9139
 3374TIP3    H231538   1.097   2.835  11.563 -0.2288 -0.2318 -0.9292
 3375TIP3   OH231539   6.333   1.867  11.183  0.2680  0.6080 -0.5486
 3375TIP3    H131540   6.363   1.778  11.166  0.4301  0.7090 -0.8006
 3375TIP3    H231541   6.252   1.875  11.133 -0.4038  0.2047  0.4483
 3376TIP3   OH231542   6.618   0.727   5.589  0.1549 -0.1947 -0.4447
 3376TIP3    H131543   6.649   0.640   5.615  0.1736 -0.4410 -1.2410
 3376TIP3    H231544   6.643   0.785   5.661 -0.2669 -0.9280  0.3076
 3377TIP3   OH231545   6.542   3.735  16.171 -0.2302  0.2675  0.1529
 3377TIP3    H131546   6.448   3.736  16.154 -0.5799  0.3921  1.9212
 3377TIP3    H231547   6.559   3.816  16.218  0.4706 -0.4418  1.1667
 3378TIP3   OH231548   0.115   2.221  11.853  0.3988 -0.1050  1.0086
 3378TIP3    H131549   0.117   2.229  11.948 -0.1642 -0.3916  1.0481
 3378TIP3    H231550   0.026   2.189  11.833  0.2493  0.6970  0.3349
 3379TIP3   OH231551   0.368   1.372  14.419  0.7932  0.5509  0.0990
 3379TIP3    H131552   0.399   1.463  14.419  0.2423  0.7391 -0.4025
 3379TIP3    H231553   0.291   1.373  14.475  1.8875 -0.0030  1.6913
 3380TIP3   OH231554   0.312   1.944   1.554 -0.0779  0.5417  0.2524
 3380TIP3    H131555   0.233   1.990   1.525 -0.6111 -0.4460  0.0876
 3380TIP3    H231556   0.299   1.932   1.648 -0.0363  0.5547  0.2596
 3381TIP3   OH231557   5.894   5.906   0.708 -0.4599  0.2346  0.0805
 3381TIP3    H131558   5.841   5.901   0.788  0.2140  0.4477  0.5505
 3381TIP3    H231559   5.856   5.839   0.650 -0.0130 -0.9929  1.1532
 3382TIP3   OH231560   0.233   4.560  11.996  0.2547 -0.3282  0.3693
 3382TIP3    H131561   0.156   4.617  11.991  0.1887 -0.3833  0.7118
 3382TIP3    H231562   0.283   4.580  11.917  1.4488  1.9131  1.6123
 3383TIP3   OH231563   3.385   4.671   2.001  0.2452 -0.3779  0.0397
 3383TIP3    H131564   3.414   4.665   1.910  0.8504 -1.9631  0.3004
 3383TIP3    H231565   3.403   4.584   2.037 -2.9300 -0.8148  0.8279
 3384TIP3   OH231566   0.300   1.612  14.665 -0.0507  0.1433  0.2871
 3384TIP3    H131567   0.366   1.612  14.596 -0.0289 -0.3785  0.3048
 3384TIP3    H231568   0.262   1.524  14.663 -0.3196  0.2427  0.6852
 3385TIP3   OH231569   3.907   0.984  16.732 -0.1121  0.1142 -0.0209
 3385TIP3    H131570   4.002   0.990  16.718 -0.2063  1.3706 -0.2463
 3385TIP3    H231571   3.892   1.037  16.811 -0.5452 -0.6497  0.4164
 3386TIP3   OH231572   6.685   2.040   1.017 -0.0990 -0.0074  0.3434
 3386TIP3    H131573   6.593   2.051   1.042 -0.8723 -0.7569 -1.9260
 3386TIP3    H231574   6.697   2.100   0.943  0.7568 -1.0977 -0.4418
 3387TIP3   OH231575   1.560   0.336   1.229 -0.1995  0.4798 -0.1776
 3387TIP3    H131576   1.569   0.423   1.269  0.3838  1.2547 -1.8807
 3387TIP3    H231577   1.500   0.289   1.287 -0.1444  1.8427  1.0498
 3388TIP3   OH231578   0.564   1.343   6.144  0.3858 -0.5604 -0.5178
 3388TIP3    H131579   0.583   1.436   6.159  2.3091 -1.1428  1.3204
 3388TIP3    H231580   0.623   1.318   6.073 -0.0409 -0.3997 -0.9277
 3389TIP3   OH231581   4.409   4.366   2.684  0.1445 -0.1925 -0.5970
 3389TIP3    H131582   4.464   4.328   2.616  1.9570  1.0959  0.0659
 3389TIP3    H231583   4.445   4.332   2.766  0.3297  1.0941 -0.1184
 3390TIP3   OH231584   3.980   0.270   0.631  0.2793 -0.2522 -0.3007
 3390TIP3    H131585   3.955   0.193   0.682  2.8858 -0.8944  0.1700
 3390TIP3    H231586   4.036   0.321   0.690  0.4116  0.8570 -1.3384
 3391TIP3   OH231587   3.362   1.393   5.661  0.0040  0.9789  0.1697
 3391TIP3    H131588   3.326   1.320   5.611  0.2256 -1.0635  2.7223
 3391TIP3    H231589   3.440   1.420   5.612  0.9152 -1.7172 -0.0610
 3392TIP3   OH231590   3.789   5.140  13.811  0.3104  0.1114 -0.1697
 3392TIP3    H131591   3.795   5.076  13.740 -0.1522 -0.7349  0.5374
 3392TIP3    H231592   3.842   5.102  13.882 -1.8598 -0.6884  1.1150
 3393TIP3   OH231593   4.859   1.961   4.162 -0.0161 -0.2355  0.1392
 3393TIP3    H131594   4.782   1.940   4.109  1.7602  0.1114 -2.7597
 3393TIP3    H231595   4.895   1.875   4.185 -0.1702 -0.3869 -0.1763
 3394TIP3   OH231596   0.530   4.878   1.033 -0.2352  0.6116 -0.8215
 3394TIP3    H131597   0.586   4.883   1.111  1.3708 -0.4124 -1.8606
 3394TIP3    H231598   0.442   4.896   1.066  0.5606  1.4249  1.0173
 3395TIP3   OH231599   5.182   1.786  13.710  0.0414  0.2371 -0.4578
 3395TIP3    H131600   5.256   1.838  13.741 -1.8862  2.3810  0.8791
 3395TIP3    H231601   5.185   1.794  13.614  1.7461 -0.0930 -0.4582
 3396TIP3   OH231602   6.668   2.650   0.766  0.2107 -0.2882  0.1655
 3396TIP3    H131603   6.608   2.657   0.840  0.2095  1.0676  0.0505
 3396TIP3    H231604   6.754   2.642   0.806  0.0507 -1.5677  0.3179
 3397TIP3   OH231605   3.521   2.719   2.723  0.3079 -0.2972  0.6224
 3397TIP3    H131606   3.565   2.737   2.640 -1.2895  1.0712  0.0187
 3397TIP3    H231607   3.520   2.803   2.769 -2.4744  0.0136  0.1674
 3398TIP3   OH231608   5.186   0.947  16.248 -0.0775  0.2307 -0.0786
 3398TIP3    H131609   5.276   0.936  16.217 -0.7898 -0.8544 -1.9098
 3398TIP3    H231610   5.162   0.862  16.285 -0.3548  0.5185  0.4204
 3399TIP3   OH231611   5.554   6.664   1.503  0.1206  0.2869 -0.4490
 3399TIP3    H131612   5.587   6.610   1.431 -1.3234 -0.0727 -0.8698
 3399TIP3    H231613   5.567   6.611   1.582  1.7750  0.7105 -0.3916
 3400TIP3   OH231614   0.833   2.523   2.404  0.0212  0.1023  0.3134
 3400TIP3    H131615   0.812   2.607   2.445 -0.4060 -0.3862  1.1035
 3400TIP3    H231616   0.782   2.458   2.453  0.9312 -0.7179  0.2090
 3401TIP3   OH231617   2.906   5.959  12.452 -0.2442 -0.7797 -0.2120
 3401TIP3    H131618   2.941   6.009  12.525 -1.2958 -0.6051  0.1886
 3401TIP3    H231619   2.977   5.956  12.388 -0.5548  2.3767 -0.8390
 3402TIP3   OH231620   6.609   5.196  16.738  0.3436 -0.7583  0.4575
 3402TIP3    H131621   6.625   5.159  16.825  0.6601 -1.8966 -0.0664
 3402TIP3    H231622   6.607   5.120  16.680 -0.8588 -0.1053 -0.3965
 3403TIP3   OH231623   4.409   0.328   4.244  0.1793  0.0509 -0.4074
 3403TIP3    H131624   4.395   0.340   4.338  0.6144  0.5240 -0.3957
 3403TIP3    H231625   4.367   0.245   4.223  1.3768 -0.8291  0.5094
 3404TIP3   OH231626   4.137   1.759   0.526  0.2704  0.1108  0.3470
 3404TIP3    H131627   4.050   1.748   0.563 -0.7527  1.8690 -1.3246
 3404TIP3    H231628   4.121   1.791   0.437  2.6197  1.4373  0.3133
 3405TIP3   OH231629   3.437   4.554   2.772  0.4475  0.5307 -0.0007
 3405TIP3    H131630   3.375   4.626   2.771 -1.3045 -0.9142  0.2928
 3405TIP3    H231631   3.463   4.545   2.864  0.7742  0.8616 -0.0586
 3406TIP3   OH231632   5.427   1.280   5.416  0.5370  0.3983 -0.2219
 3406TIP3    H131633   5.501   1.287   5.355  0.4307 -4.6577 -1.4271
 3406TIP3    H231634   5.468   1.251   5.499  0.1242 -1.0030 -0.4770
 3407TIP3   OH231635   0.151   5.958   5.219  0.1919  0.1911 -0.3788
 3407TIP3    H131636   0.080   5.909   5.261  0.5224  0.0838  0.0714
 3407TIP3    H231637   0.178   6.022   5.285  1.5522 -0.8006  0.0867
 3408TIP3   OH231638   3.883   0.264   5.735  0.2383 -0.0236 -0.1466
 3408TIP3    H131639   3.820   0.329   5.765 -0.0349 -0.9314  1.3612
 3408TIP3    H231640   3.961   0.279   5.788 -0.2835 -1.7190  1.2049
 3409TIP3   OH231641   4.187   5.373  15.249 -0.0374 -0.4185 -0.2813
 3409TIP3    H131642   4.201   5.467  15.237 -1.9798  0.1990  1.6085
 3409TIP3    H231643   4.144   5.345  15.168  0.1922  0.3812 -0.6965
 3410TIP3   OH231644   0.139   4.868  11.435  0.5828  0.3987 -0.3380
 3410TIP3    H131645   0.155   4.893  11.344  0.2820  0.3312 -0.4088
 3410TIP3    H231646   0.204   4.918  11.485  0.4415  0.7954 -0.5443
 3411TIP3   OH231647   0.686   0.550  12.052  0.4185 -0.2020  0.9774
 3411TIP3    H131648   0.768   0.595  12.073 -0.4426  1.5102  0.8335
 3411TIP3    H231649   0.712   0.460  12.033  2.3590  0.4722  0.2189
 3412TIP3   OH231650   2.938   0.682  14.259 -0.8322  0.4564  0.0070
 3412TIP3    H131651   2.997   0.732  14.202 -0.8328  1.8039  1.1361
 3412TIP3    H231652   2.894   0.621  14.200 -0.3695  1.3687 -1.3338
 3413TIP3   OH231653   5.686   4.629  11.020 -0.3824  0.3619 -0.2266
 3413TIP3    H131654   5.678   4.559  10.955  4.3010 -0.3981 -0.3234
 3413TIP3    H231655   5.725   4.588  11.096  1.3021  2.5616  0.2109
 3414TIP3   OH231656   3.985   6.524  15.017 -0.3117 -0.0571 -0.2902
 3414TIP3    H131657   3.914   6.487  14.964  0.6417 -0.9398 -0.9985
 3414TIP3    H231658   3.988   6.616  14.992  0.2429 -0.4948 -1.9576
 3415TIP3   OH231659   1.988   6.609   0.024 -0.1802 -0.1699 -0.8002
 3415TIP3    H131660   1.952   6.660  -0.048 -0.7305  2.0327  0.9151
 3415TIP3    H231661   1.912   6.573   0.069  0.0958 -0.6242 -0.6875
 3416TIP3   OH231662   4.958   3.676   3.241  0.1693 -0.2920  0.6466
 3416TIP3    H131663   4.953   3.756   3.293  0.9479  0.0078  0.2855
 3416TIP3    H231664   4.952   3.605   3.305 -0.3209  0.0541  0.9910
 3417TIP3   OH231665   0.401   1.773  16.229  0.1986  0.6308 -0.2769
 3417TIP3    H131666   0.340   1.770  16.155  0.2113  0.0371 -0.2684
 3417TIP3    H231667   0.358   1.721  16.297 -0.0061  1.5229  0.2892
 3418TIP3   OH231668   2.893   4.951  12.224  0.0635 -0.1872  0.3624
 3418TIP3    H131669   2.817   4.902  12.191  0.3787 -0.9119  0.6953
 3418TIP3    H231670   2.938   4.889  12.282  1.1947  0.0544 -0.2265
 3419TIP3   OH231671   0.055   5.332   3.259  0.1426 -0.1911 -0.0421
 3419TIP3    H131672  -0.026   5.295   3.296  0.0854  0.5121  0.5771
 3419TIP3    H231673   0.112   5.257   3.245  0.3810 -0.4590  2.0490
 3420TIP3   OH231674   6.529   2.282   2.053  0.0797  0.1677 -0.3308
 3420TIP3    H131675   6.526   2.267   2.148  0.2783 -2.9421 -0.7104
 3420TIP3    H231676   6.441   2.259   2.023 -0.1673  1.7331 -0.8723
 3421TIP3   OH231677   0.515   5.882  16.570  0.0312 -0.2545  0.0511
 3421TIP3    H131678   0.541   5.790  16.565  0.4171 -0.0818 -1.8844
 3421TIP3    H231679   0.439   5.888  16.512 -1.1210  0.3186  1.5626
 3422TIP3   OH231680   6.120   0.501  12.745 -0.0822  0.1861  0.1604
 3422TIP3    H131681   6.075   0.418  12.761 -3.3318  1.8114  0.2742
 3422TIP3    H231682   6.112   0.515  12.651  2.2593 -0.4945 -0.1970
 3423TIP3   OH231683   1.861   4.798   4.535  0.1874  0.1807 -0.1649
 3423TIP3    H131684   1.917   4.876   4.529 -2.6143  2.3520 -0.5756
 3423TIP3    H231685   1.823   4.789   4.448 -1.8219  0.3037  0.6332
 3424TIP3   OH231686   5.124   3.728  16.507  0.4758  0.2972  0.1384
 3424TIP3    H131687   5.179   3.653  16.529 -3.1737 -2.0768  2.2283
 3424TIP3    H231688   5.106   3.770  16.592  0.8223  2.4310 -0.7721
 3425TIP3   OH231689   1.861   3.762   2.681  0.0594 -0.8147  0.5739
 3425TIP3    H131690   1.901   3.676   2.670  0.7166 -0.5972  1.1785
 3425TIP3    H231691   1.816   3.758   2.765  0.5423 -0.3951  0.8537
 3426TIP3   OH231692   5.939   4.595  13.353  0.3762  0.2389 -0.1620
 3426TIP3    H131693   5.875   4.524  13.348 -1.0349  1.5179 -1.2611
 3426TIP3    H231694   5.913   4.645  13.430  0.0002  0.7967 -0.6456
 3427TIP3   OH231695   1.255   1.266  12.202 -0.2640  0.3191  0.3462
 3427TIP3    H131696   1.341   1.307  12.197  0.1173 -0.5015  0.0291
 3427TIP3    H231697   1.218   1.278  12.114 -0.3902  0.4724  0.4185
 3428TIP3   OH231698   0.787   5.953  13.334 -0.4276 -0.0263 -0.0641
 3428TIP3    H131699   0.809   5.982  13.422  0.2710 -0.0031 -0.2438
 3428TIP3    H231700   0.826   5.866  13.326 -0.2962  0.0653 -0.4309
 3429TIP3   OH231701   4.448   2.964  15.451  0.1462  0.2788 -0.2486
 3429TIP3    H131702   4.501   2.884  15.446  0.6652  0.4819  1.2531
 3429TIP3    H231703   4.509   3.034  15.426 -0.3768  0.2078 -1.8079
 3430TIP3   OH231704   1.382   1.267  13.715  0.0304 -0.5374 -0.3866
 3430TIP3    H131705   1.366   1.213  13.637  1.4670  0.8197 -1.7070
 3430TIP3    H231706   1.307   1.326  13.718 -1.7142 -2.6573  1.2469
 3431TIP3   OH231707   2.723   1.052   2.703 -0.1746  0.2050  0.3098
 3431TIP3    H131708   2.803   1.039   2.651 -0.8748  0.2378 -0.8109
 3431TIP3    H231709   2.754   1.089   2.785  0.8744  1.4663 -0.6073
 3432TIP3   OH231710   0.240   6.202   0.942  0.1638  0.1586  0.1514
 3432TIP3    H131711   0.276   6.270   0.885 -1.0730  0.0711 -0.7672
 3432TIP3    H231712   0.272   6.119   0.904 -0.8470  0.0893 -0.5666
 3433TIP3   OH231713   5.195   2.973  11.311  0.0175 -0.3211 -0.4040
 3433TIP3    H131714   5.228   2.907  11.249  2.9232  2.2598 -1.8840
 3433TIP3    H231715   5.185   2.924  11.393 -1.4784 -3.3205 -2.1874
 3434TIP3   OH231716   2.448   1.447  13.592 -0.2325 -0.6549 -0.0939
 3434TIP3    H131717   2.473   1.358  13.568  0.0658 -0.0982 -1.9824
 3434TIP3    H231718   2.383   1.473  13.527  1.5719  1.3969 -1.2092
 3435TIP3   OH231719   2.891   5.210   1.665 -0.8959  0.5579 -0.2383
 3435TIP3    H131720   2.827   5.172   1.725 -1.0893 -0.4011 -1.0205
 3435TIP3    H231721   2.848   5.206   1.579 -0.9640  2.6828 -0.3408
 3436TIP3   OH231722   3.645   3.535  10.935 -0.2254 -0.0938  0.3736
 3436TIP3    H131723   3.640   3.631  10.938  0.1350  0.2659 -3.9714
 3436TIP3    H231724   3.558   3.505  10.959 -1.0397  1.5064 -0.4365
 3437TIP3   OH231725   3.582   2.241   4.997  0.0187 -0.4509  0.2235
 3437TIP3    H131726   3.533   2.170   5.039 -0.8675 -0.2602 -0.4596
 3437TIP3    H231727   3.674   2.220   5.014 -0.2986 -0.3413  2.3059
 3438TIP3   OH231728   3.832   4.769  12.093  0.2398 -0.3616  0.3909
 3438TIP3    H131729   3.760   4.798  12.037  1.4073  0.6325 -0.6696
 3438TIP3    H231730   3.797   4.773  12.182 -0.7318  0.9550 -0.0222
 3439TIP3   OH231731   0.512   1.495  15.943 -0.0030 -0.0603 -0.1250
 3439TIP3    H131732   0.430   1.456  15.974 -0.1534  0.2427 -0.1405
 3439TIP3    H231733   0.493   1.523  15.854  0.2827 -0.4858 -0.3214
 3440TIP3   OH231734   3.385   0.169   6.521  0.6846  0.5926  0.0855
 3440TIP3    H131735   3.420   0.121   6.446  1.1873  2.1621 -0.7137
 3440TIP3    H231736   3.462   0.211   6.561  0.1536  1.4453  0.2441
 3441TIP3   OH231737   0.781   0.770  16.247 -0.1403  0.2331 -0.2053
 3441TIP3    H131738   0.866   0.803  16.273  0.1330  1.5931 -2.5452
 3441TIP3    H231739   0.798   0.720  16.167 -1.4404 -0.0681 -0.3140
 3442TIP3   OH231740   2.716   4.183  16.355  0.3202  0.0569 -0.1545
 3442TIP3    H131741   2.704   4.245  16.284 -0.2509  1.3670  1.0429
 3442TIP3    H231742   2.659   4.109  16.333 -0.4247  0.7777 -0.6871
 3443TIP3   OH231743   4.303   6.679  12.542 -0.0427  0.1128 -0.0847
 3443TIP3    H131744   4.263   6.761  12.572 -2.2697 -0.6658 -0.6777
 3443TIP3    H231745   4.298   6.684  12.446 -0.7217 -0.9252 -0.1160
 3444TIP3   OH231746   3.087   3.463  12.156  0.2036  0.3646 -0.5271
 3444TIP3    H131747   2.992   3.470  12.161  0.1076 -0.1189 -1.3555
 3444TIP3    H231748   3.105   3.372  12.179  0.6630  0.9471  1.6252
 3445TIP3   OH231749   3.744   5.663   2.062 -0.1373 -0.5969 -0.1491
 3445TIP3    H131750   3.798   5.731   2.104  0.6538 -0.6538 -1.0463
 3445TIP3    H231751   3.807   5.597   2.034 -0.5500 -0.2196 -2.0706
 3446TIP3   OH231752   0.975   1.782  10.895  0.1469 -0.3959 -0.3229
 3446TIP3    H131753   1.003   1.695  10.870 -0.2432  0.3547 -3.8990
 3446TIP3    H231754   1.034   1.841  10.848  0.3823  1.3369  1.9546
 3447TIP3   OH231755   5.471   3.606  14.798  0.7159  1.1800 -0.2016
 3447TIP3    H131756   5.486   3.523  14.842  1.3745  0.0505 -2.4349
 3447TIP3    H231757   5.402   3.648  14.849 -0.6236 -1.3394  0.2060
 3448TIP3   OH231758   5.656   0.312  13.008 -0.4199 -0.3889 -0.2275
 3448TIP3    H131759   5.606   0.384  12.968  1.0781  0.6275 -0.3472
 3448TIP3    H231760   5.740   0.351  13.032  1.0067 -2.4376 -1.5739
 3449TIP3   OH231761   0.915   5.525  15.314 -0.0160 -0.9728 -0.3118
 3449TIP3    H131762   0.826   5.550  15.337 -0.6970 -1.8938 -1.7972
 3449TIP3    H231763   0.949   5.483  15.393 -0.5962  0.1178  0.5379
 3450TIP3   OH231764   3.597   5.075  12.697  0.3072 -0.5577 -0.3366
 3450TIP3    H131765   3.690   5.062  12.680  0.2581  1.1084 -2.4417
 3450TIP3    H231766   3.594   5.138  12.769  0.8141 -0.4472 -0.4082
 3451TIP3   OH231767   4.922   6.220   1.304 -0.0533  0.0777  0.2311
 3451TIP3    H131768   4.945   6.141   1.353 -0.2153  1.2066  2.2518
 3451TIP3    H231769   4.991   6.229   1.238  1.3346 -0.4442  1.5553
 3452TIP3   OH231770   3.952   1.149  12.206 -0.9901 -0.3842 -0.3912
 3452TIP3    H131771   4.027   1.167  12.150 -1.0444 -1.2372 -0.7564
 3452TIP3    H231772   3.892   1.099  12.151 -1.7435  0.1148 -0.0462
 3453TIP3   OH231773   4.719   4.781  15.277 -0.1728  0.7673 -0.5837
 3453TIP3    H131774   4.713   4.831  15.358 -0.9395  0.2336 -0.2996
 3453TIP3    H231775   4.644   4.809  15.225 -0.0050  0.6922 -0.8713
 3454TIP3   OH231776   5.827   5.898  11.006 -0.0419  0.0244 -0.0514
 3454TIP3    H131777   5.769   5.822  11.002 -0.8368  0.6709 -1.4697
 3454TIP3    H231778   5.769   5.974  11.006  0.7464  0.6606  1.1099
 3455TIP3   OH231779   2.358   3.496  13.223  0.3094 -0.2684  0.0004
 3455TIP3    H131780   2.276   3.458  13.254  0.7817 -0.2993  1.2693
 3455TIP3    H231781   2.381   3.444  13.147 -1.1952  0.1883 -0.8141
 3456TIP3   OH231782   5.294   4.663  12.008 -0.8490 -0.5879  0.2593
 3456TIP3    H131783   5.286   4.665  11.913 -1.0247  0.1036  0.2812
 3456TIP3    H231784   5.210   4.631  12.039 -0.5162 -1.5858  0.1569
 3457TIP3   OH231785   5.507   0.481  15.653 -0.5436 -0.0570 -0.5212
 3457TIP3    H131786   5.416   0.508  15.667 -1.1965 -0.7724 -2.7838
 3457TIP3    H231787   5.500   0.402  15.599  1.4296  0.1970 -1.2508
 3458TIP3   OH231788   1.421   6.567  13.293  0.3461 -0.4002  1.0171
 3458TIP3    H131789   1.380   6.612  13.219  3.6284  2.3002  0.5672
 3458TIP3    H231790   1.362   6.582  13.366 -1.2580  0.0313 -0.3048
 3459TIP3   OH231791   1.387   1.721  13.863  0.2789  0.0654  0.2638
 3459TIP3    H131792   1.387   1.667  13.783 -1.5644  0.1572  0.1722
 3459TIP3    H231793   1.467   1.694  13.909  0.2917 -1.5197 -0.5963
 3460TIP3   OH231794   3.334   3.412   1.074  0.1904 -0.0353 -0.0877
 3460TIP3    H131795   3.371   3.487   1.028  0.9436  0.0156  0.5744
 3460TIP3    H231796   3.410   3.368   1.113 -0.1999 -1.2982 -0.6900
 3461TIP3   OH231797   2.671   2.143   5.381  0.2552 -0.3813 -0.2496
 3461TIP3    H131798   2.618   2.064   5.367 -0.0894 -0.5969  1.9113
 3461TIP3    H231799   2.608   2.212   5.396  0.5284 -0.5448  1.8717
 3462TIP3   OH231800   0.329   5.131   2.216  0.5864  0.2499  0.5815
 3462TIP3    H131801   0.269   5.190   2.171 -0.5663 -0.2333  1.4168
 3462TIP3    H231802   0.411   5.139   2.168  0.1973  1.8068  0.0981
 3463TIP3   OH231803   5.175   2.733  12.024  0.2475 -0.6057 -0.9049
 3463TIP3    H131804   5.188   2.639  12.029  1.8142 -0.5119 -2.2520
 3463TIP3    H231805   5.249   2.770  12.072 -0.2347 -0.0456 -0.5742
 3464TIP3   OH231806   1.150   1.490  11.748 -0.7221 -0.1830 -0.1700
 3464TIP3    H131807   1.117   1.471  11.835 -2.0460  2.0178 -0.1036
 3464TIP3    H231808   1.230   1.438  11.740 -0.0010  0.3035  2.7409
 3465TIP3   OH231809   2.284   2.967   5.476  0.1756  1.1273 -0.0157
 3465TIP3    H131810   2.318   2.906   5.411  2.0987  2.0899  0.0363
 3465TIP3    H231811   2.237   2.912   5.539  0.5760 -0.1073 -0.7723
 3466TIP3   OH231812   5.193   6.296   3.620  0.3770  0.3912  0.0367
 3466TIP3    H131813   5.149   6.360   3.564 -1.3563  1.0792  2.0311
 3466TIP3    H231814   5.277   6.280   3.577  0.0880  2.5922 -1.5155
 3467TIP3   OH231815   0.247   6.733   3.498 -0.4103 -0.2018  0.1856
 3467TIP3    H131816   0.295   6.688   3.428  0.0807 -1.9888  1.5818
 3467TIP3    H231817   0.155   6.715   3.479 -0.2375 -1.6018  0.5315
 3468TIP3   OH231818   2.415   0.614  10.905  0.5575 -0.5719  0.3837
 3468TIP3    H131819   2.324   0.621  10.935  0.3449  0.7795 -0.4819
 3468TIP3    H231820   2.439   0.703  10.880  1.9964 -0.9805  0.1985
 3469TIP3   OH231821   1.752   2.385  13.438 -0.4115  0.2845 -0.2614
 3469TIP3    H131822   1.675   2.416  13.391  0.4314  0.1642 -1.7653
 3469TIP3    H231823   1.753   2.290  13.423 -0.1579  0.2389  0.0329
 3470TIP3   OH231824   1.578   2.171  14.455 -0.2805 -0.1658 -0.1052
 3470TIP3    H131825   1.666   2.142  14.480 -0.1731  2.4255  3.1826
 3470TIP3    H231826   1.592   2.257  14.414 -1.2731  0.4041  0.7073
 3471TIP3   OH231827   0.579   5.365  14.455  0.0369 -0.2764 -0.2855
 3471TIP3    H131828   0.530   5.446  14.457 -0.0485 -0.3144 -0.6451
 3471TIP3    H231829   0.643   5.377  14.384 -1.0600 -1.1265 -1.4775
 3472TIP3   OH231830   4.470   6.555  11.178  0.3297 -0.1801  0.1862
 3472TIP3    H131831   4.384   6.596  11.169 -0.2944 -1.0087  1.9332
 3472TIP3    H231832   4.528   6.611  11.126 -1.2009  0.5014 -0.8973
 3473TIP3   OH231833   1.763   1.421  15.807  0.4461 -0.2336  0.2578
 3473TIP3    H131834   1.712   1.423  15.887 -0.4897 -2.6541 -0.1971
 3473TIP3    H231835   1.778   1.328  15.790  1.6619  0.2587 -1.7357
 3474TIP3   OH231836   3.637   2.568  10.550  0.0475 -0.4177  0.9546
 3474TIP3    H131837   3.732   2.555  10.540 -0.0545 -0.8151  0.5404
 3474TIP3    H231838   3.604   2.483  10.578 -0.0709 -0.0604  1.9470
 3475TIP3   OH231839   1.702   6.101   4.985 -0.3363 -0.1757 -0.1177
 3475TIP3    H131840   1.705   6.041   4.910 -0.6478  1.1138 -1.1850
 3475TIP3    H231841   1.713   6.044   5.061  2.3006 -1.2850 -1.2122
 3476TIP3   OH231842   0.345   0.892  12.226  0.2288 -0.4386  0.4166
 3476TIP3    H131843   0.359   0.847  12.310  0.2187 -2.9510 -0.8272
 3476TIP3    H231844   0.252   0.913  12.226  0.0539 -1.1538  0.7299
 3477TIP3   OH231845   3.175   2.746  14.771  0.4685  0.2320 -0.0641
 3477TIP3    H131846   3.109   2.814  14.784 -0.0197  0.3272 -2.5735
 3477TIP3    H231847   3.258   2.794  14.761  0.6601  0.2211  1.3302
 3478TIP3   OH231848   5.326   6.366  13.573 -0.2748 -0.0538 -0.2359
 3478TIP3    H131849   5.298   6.287  13.618  2.8078 -0.2881  1.4872
 3478TIP3    H231850   5.367   6.336  13.492  1.3651 -0.3384  0.6626
 3479TIP3   OH231851   2.813   2.183  17.274 -0.2474 -0.2772  0.6404
 3479TIP3    H131852   2.881   2.121  17.298  1.5960  0.5046 -2.0553
 3479TIP3    H231853   2.783   2.153  17.188 -2.0387  0.4472  0.9660
 3480TIP3   OH231854   3.508   3.288   0.343  0.2414 -0.8945 -0.2041
 3480TIP3    H131855   3.418   3.260   0.356  0.6615 -1.9920  0.5539
 3480TIP3    H231856   3.547   3.218   0.289  0.6661 -0.4935 -0.4257
 3481TIP3   OH231857   1.033   2.743   0.784  0.0307 -0.0490 -0.1613
 3481TIP3    H131858   1.007   2.779   0.700 -1.1644 -1.6167 -0.5104
 3481TIP3    H231859   1.125   2.769   0.794  0.4895 -0.6227 -2.3983
 3482TIP3   OH231860   6.392   2.054  14.671  0.0367 -0.0315  0.4799
 3482TIP3    H131861   6.355   1.988  14.613  2.2191  0.6349 -1.8600
 3482TIP3    H231862   6.443   2.004  14.736  0.9408 -0.7346 -0.7307
 3483TIP3   OH231863   3.643   5.307  14.113  0.3044  0.4522 -0.0852
 3483TIP3    H131864   3.557   5.283  14.078  0.1709  1.5961 -0.5860
 3483TIP3    H231865   3.631   5.395  14.147  1.5141  1.0388 -1.0835
 3484TIP3   OH231866   0.294   0.430   1.002  0.7920 -0.2662  0.1348
 3484TIP3    H131867   0.317   0.426   0.909 -2.5480 -0.5732 -0.8030
 3484TIP3    H231868   0.214   0.483   1.005  1.0742  0.1800  2.9417
 3485TIP3   OH231869   0.280   4.858   0.070 -0.0068 -0.3612 -0.1151
 3485TIP3    H131870   0.337   4.934   0.054 -0.9347  0.6550  1.2313
 3485TIP3    H231871   0.194   4.886   0.039 -0.0938 -1.3664 -0.8138
 3486TIP3   OH231872   3.015   0.997  12.658  0.5289  0.0290 -0.2351
 3486TIP3    H131873   2.924   0.966  12.665  0.1536  0.8947 -1.0713
 3486TIP3    H231874   3.066   0.930  12.703 -0.7468  0.8147  2.6482
 3487TIP3   OH231875   2.435   4.174   1.015 -0.3008 -0.4938 -0.0253
 3487TIP3    H131876   2.441   4.267   0.991 -0.3941 -0.3704  0.4167
 3487TIP3    H231877   2.342   4.153   1.004 -0.2862 -0.5267 -0.0888
 3488TIP3   OH231878   5.401   2.855  15.504  1.1401 -0.7734  0.1032
 3488TIP3    H131879   5.448   2.907  15.439  1.0200  0.5530  1.0321
 3488TIP3    H231880   5.467   2.830  15.567  1.2752 -2.1463 -0.5434
 3489TIP3   OH231881   1.404   5.935  13.557  0.4249  0.5348 -0.4601
 3489TIP3    H131882   1.346   5.986  13.614 -0.1957 -0.8655  0.1939
 3489TIP3    H231883   1.453   6.002  13.508  0.9473  1.8010  1.6580
 3490TIP3   OH231884   5.046   6.759  16.467  0.5075 -0.1940  0.2048
 3490TIP3    H131885   4.965   6.714  16.491  0.5420 -0.2836  0.1533
 3490TIP3    H231886   5.023   6.812  16.390  0.8135 -1.2338 -0.6260
 3491TIP3   OH231887   6.299   5.604  14.532 -0.2542  0.5723 -0.2397
 3491TIP3    H131888   6.307   5.578  14.624  0.2516  0.5274 -0.2935
 3491TIP3    H231889   6.205   5.611  14.517 -0.4656 -1.7541 -0.3606
 3492TIP3   OH231890   2.508   1.318  12.940 -0.6767 -0.3566 -0.3235
 3492TIP3    H131891   2.570   1.304  13.011 -1.5716 -0.1375  0.5144
 3492TIP3    H231892   2.562   1.320  12.861  0.3258 -0.6260  0.3412
 3493TIP3   OH231893   1.312   6.246   2.140  0.0330 -0.0327 -0.5044
 3493TIP3    H131894   1.303   6.273   2.232  0.2465 -0.0436 -0.4806
 3493TIP3    H231895   1.222   6.233   2.111 -0.0038 -0.7509 -0.0812
 3494TIP3   OH231896   2.153   1.119   2.093  0.8557 -0.0561  0.1796
 3494TIP3    H131897   2.136   1.208   2.122 -0.6021  0.5116 -2.1060
 3494TIP3    H231898   2.080   1.068   2.127  0.8684 -0.0455  0.2214
 3495TIP3   OH231899   1.084   6.441  17.203  0.4491  0.2782  0.1361
 3495TIP3    H131900   1.154   6.393  17.248  0.0738 -0.0601  0.3714
 3495TIP3    H231901   1.048   6.378  17.140 -1.6534 -0.6480  2.0884
 3496TIP3   OH231902   2.373   1.778   1.629 -0.3400  0.4918 -0.3109
 3496TIP3    H131903   2.447   1.768   1.568 -0.1671 -0.4188  0.0354
 3496TIP3    H231904   2.329   1.694   1.628  0.7182 -0.2045  2.1547
 3497TIP3   OH231905   3.147   1.439  11.481 -0.0900  0.3517 -0.2542
 3497TIP3    H131906   3.054   1.427  11.463 -0.5661  2.0343  0.7945
 3497TIP3    H231907   3.176   1.501  11.414  0.3766 -0.4277 -0.7856
 3498TIP3   OH231908   4.907   6.265  16.129  0.2668 -0.0278 -0.6701
 3498TIP3    H131909   4.908   6.202  16.057 -1.0674  0.7563 -1.4152
 3498TIP3    H231910   4.988   6.248  16.177  0.4104 -1.6328 -1.4238
 3499TIP3   OH231911   2.734   0.183   5.224  0.2537  0.1800 -0.2197
 3499TIP3    H131912   2.708   0.261   5.272  1.2493 -0.2813  1.1037
 3499TIP3    H231913   2.763   0.121   5.291  1.0019 -0.7513 -1.3549
 3500TIP3   OH231914   5.076   0.471   3.975 -0.1250 -0.6325 -0.0113
 3500TIP3    H131915   5.074   0.385   3.933  1.6985 -0.2176 -1.0501
 3500TIP3    H231916   5.132   0.459   4.051 -0.1661 -0.4458  0.0472
 3501TIP3   OH231917   5.583   3.095  15.044  0.2209 -0.0631  0.1120
 3501TIP3    H131918   5.658   3.076  14.987  0.1704 -0.9129  0.3091
 3501TIP3    H231919   5.549   3.179  15.012  2.0793  1.0410  0.8948
 3502TIP3   OH231920   0.329   4.010  13.792  0.4129 -0.1851  0.7701
 3502TIP3    H131921   0.371   4.072  13.733  1.2564 -0.6180  0.8948
 3502TIP3    H231922   0.277   4.064  13.851 -1.0696  0.2059 -0.8141
 3503TIP3   OH231923   0.973   2.537   1.838  0.4867  0.1782 -0.3375
 3503TIP3    H131924   1.055   2.554   1.883 -0.2414  1.6435  0.5181
 3503TIP3    H231925   0.981   2.583   1.755  0.5235  0.3787 -0.2253
 3504TIP3   OH231926   6.130   1.117   2.948 -0.1726 -0.6829 -0.6183
 3504TIP3    H131927   6.208   1.095   3.000  0.2063  0.2211 -0.7789
 3504TIP3    H231928   6.106   1.034   2.906  2.4198 -0.4835 -2.8224
 3505TIP3   OH231929   5.290   4.442  17.068 -0.1245 -0.3746  0.0358
 3505TIP3    H131930   5.234   4.471  17.141  0.3718 -0.0565  0.2943
 3505TIP3    H231931   5.271   4.504  16.998  0.8920  0.5744  0.5675
 3506TIP3   OH231932   4.778   5.233   5.680 -0.2392  0.0606  0.2009
 3506TIP3    H131933   4.703   5.194   5.726  0.0554  1.5240  2.0655
 3506TIP3    H231934   4.853   5.213   5.736  0.9762 -2.0579 -2.0312
 3507TIP3   OH231935   5.774   5.398   6.555 -0.1533  0.0372 -0.2735
 3507TIP3    H131936   5.697   5.345   6.575 -0.1910 -0.3972 -1.4947
 3507TIP3    H231937   5.838   5.336   6.521  0.1250  0.6294 -0.8621
 3508TIP3   OH231938   1.691   3.447   0.238  0.4991  0.0238  0.3964
 3508TIP3    H131939   1.704   3.518   0.301 -0.8466  1.4271 -0.8651
 3508TIP3    H231940   1.727   3.370   0.283  0.9001  1.2380  2.2886
 3509TIP3   OH231941   2.043   3.849   3.570 -0.4897 -0.0026  0.5175
 3509TIP3    H131942   2.109   3.817   3.508 -1.9995 -1.2030 -0.5535
 3509TIP3    H231943   2.002   3.923   3.525 -0.7842 -0.1309  0.5684
 3510TIP3   OH231944   6.270   1.416  12.656 -0.2675 -0.0742  0.3013
 3510TIP3    H131945   6.177   1.405  12.674 -0.4610 -0.6285 -0.9515
 3510TIP3    H231946   6.302   1.470  12.728 -1.0810 -1.7209  1.9606
 3511TIP3   OH231947   4.073   5.020   2.934  0.1870  0.2834 -0.0892
 3511TIP3    H131948   4.034   4.935   2.958  0.3937  0.3741  0.5781
 3511TIP3    H231949   4.118   5.049   3.013 -0.4016  1.3180 -0.1272
 3512TIP3   OH231950   3.682   0.233   2.139  0.3703  0.8972 -0.0484
 3512TIP3    H131951   3.721   0.313   2.174 -2.7382  2.9838 -0.9992
 3512TIP3    H231952   3.607   0.216   2.196 -0.6648  0.3073 -1.5472
 3513TIP3   OH231953   2.411   1.242  11.150  0.6175  0.2791  0.4921
 3513TIP3    H131954   2.464   1.312  11.189 -0.0562  0.1503  1.6696
 3513TIP3    H231955   2.329   1.244  11.198  0.2116 -0.6815 -0.1333
 3514TIP3   OH231956   0.204   6.429   1.601  0.1414  0.5669  0.2034
 3514TIP3    H131957   0.237   6.468   1.682 -0.9111  1.0448  0.4094
 3514TIP3    H231958   0.189   6.503   1.543 -1.0649  0.4078  0.2997
 3515TIP3   OH231959   1.163   5.474  15.161  0.0094  0.0921  0.1771
 3515TIP3    H131960   1.189   5.565  15.147 -1.0443  0.3225 -0.3294
 3515TIP3    H231961   1.087   5.479  15.219 -0.3171 -0.4454 -0.1937
 3516TIP3   OH231962   1.214   4.985   2.291  0.1414 -0.3547 -0.0583
 3516TIP3    H131963   1.281   4.998   2.358  0.4697  2.4961 -0.8255
 3516TIP3    H231964   1.223   5.060   2.233 -3.3691 -0.1402 -0.5276
 3517TIP3   OH231965   3.446   5.557  12.310 -0.4023  0.2802  0.2174
 3517TIP3    H131966   3.442   5.644  12.272 -0.4164  0.7193  1.1905
 3517TIP3    H231967   3.527   5.519  12.277 -0.5011  0.5815 -0.3734
 3518TIP3   OH231968   2.760   3.468  11.080 -0.4335 -0.0220  0.6667
 3518TIP3    H131969   2.720   3.386  11.110 -1.0224  0.3771  1.0046
 3518TIP3    H231970   2.820   3.442  11.010 -0.0827 -0.8231  1.2458
 3519TIP3   OH231971   2.167   4.376  14.553  0.8000 -0.3989 -0.4631
 3519TIP3    H131972   2.209   4.296  14.523 -1.5769 -1.2482 -1.7745
 3519TIP3    H231973   2.121   4.409  14.476 -0.7101  0.5912  0.8030
 3520TIP3   OH231974   0.119   4.038  17.213  0.0389 -0.3873  0.0465
 3520TIP3    H131975   0.154   4.108  17.159  1.3073 -1.5417 -0.6938
 3520TIP3    H231976   0.111   3.963  17.154  1.8790 -1.8225  1.4640
 3521TIP3   OH231977   5.147   1.138   4.655  0.0961 -0.1681  0.1851
 3521TIP3    H131978   5.229   1.121   4.609  0.7586 -0.0264  1.2648
 3521TIP3    H231979   5.170   1.205   4.720 -0.5101 -1.1614  1.4776
 3522TIP3   OH231980   1.553   0.444  14.541 -0.0013 -0.4489  0.4557
 3522TIP3    H131981   1.519   0.357  14.519  0.6519 -0.4675 -0.5477
 3522TIP3    H231982   1.475   0.500  14.547 -0.3716 -0.9617  0.4581
 3523TIP3   OH231983   2.716   4.364  14.401 -0.0264 -0.4284  0.3004
 3523TIP3    H131984   2.790   4.421  14.381  1.5019 -2.2935  0.4042
 3523TIP3    H231985   2.650   4.423  14.437  1.1741  1.3787 -0.3154
 3524TIP3   OH231986   0.557   6.254   6.448  0.1306 -0.1869  0.1439
 3524TIP3    H131987   0.613   6.301   6.387  2.5679 -1.7209  1.0803
 3524TIP3    H231988   0.550   6.166   6.413 -0.4411 -0.4438  0.8619
 3525TIP3   OH231989   0.208   0.135  14.189 -1.0872  0.5463 -0.1311
 3525TIP3    H131990   0.145   0.073  14.153 -1.3192 -0.1350  1.3718
 3525TIP3    H231991   0.162   0.178  14.261  0.2272 -0.2854  1.2973
 3526TIP3   OH231992   2.443   1.847  14.923  0.2429  0.2905  0.0843
 3526TIP3    H131993   2.499   1.862  14.847 -0.1919  1.8935  0.0525
 3526TIP3    H231994   2.368   1.905  14.910 -0.1597  0.0954  1.4127
 3527TIP3   OH231995   0.823   3.966  16.163  0.5205 -0.6838 -0.3362
 3527TIP3    H131996   0.776   4.000  16.238 -1.6426  0.4956 -2.1316
 3527TIP3    H231997   0.767   3.896  16.129  1.7150 -1.5526 -0.6075
 3528TIP3   OH231998   2.340   3.494  15.045 -0.1201  0.6397  0.4713
 3528TIP3    H131999   2.247   3.507  15.027  0.2693  1.4193 -1.1421
 3528TIP3    H232000   2.343   3.457  15.133 -1.9208  1.1023  0.7502
 3529TIP3   OH232001   5.698   5.216   3.639  0.1490 -0.2038 -0.6497
 3529TIP3    H132002   5.678   5.247   3.551  1.5585  1.1374 -0.5382
 3529TIP3    H232003   5.761   5.280   3.673 -0.1799 -0.8293  1.2373
 3530TIP3   OH232004   2.671   5.657   3.216 -0.2683  0.4098 -0.2200
 3530TIP3    H132005   2.585   5.689   3.243  0.0159  0.5517  0.5208
 3530TIP3    H232006   2.680   5.689   3.126 -0.6034  1.1716  0.0096
 3531TIP3   OH232007   6.687   2.958  16.416 -0.2116  0.5133  0.2655
 3531TIP3    H132008   6.737   2.917  16.487 -0.2533 -1.2013 -0.6437
 3531TIP3    H232009   6.596   2.936  16.435 -0.1817 -0.4025 -0.5458
 3532TIP3   OH232010   2.703   4.320   3.973 -0.2428  0.4417 -0.4498
 3532TIP3    H132011   2.724   4.317   3.879 -0.0868 -0.4963 -0.3985
 3532TIP3    H232012   2.620   4.272   3.980 -0.2612  0.5228 -0.1094
 3533TIP3   OH232013   0.384   5.442   4.738 -0.0297 -0.1155  0.7615
 3533TIP3    H132014   0.314   5.401   4.688 -2.0894  2.8603  0.8902
 3533TIP3    H232015   0.373   5.409   4.827 -0.1846 -0.9070  0.4544
 3534TIP3   OH232016   6.165   3.061  17.061  0.2218  0.2093 -0.1256
 3534TIP3    H132017   6.125   3.140  17.094 -0.2702 -0.1194  0.0652
 3534TIP3    H232018   6.092   3.009  17.027  0.4968 -0.3179  0.0795
 3535TIP3   OH232019   2.094   2.732  14.765  0.3650 -0.1233 -0.0705
 3535TIP3    H132020   2.095   2.637  14.780  4.1243 -0.0187  1.5564
 3535TIP3    H232021   2.127   2.742  14.675 -1.3204 -0.3107 -0.7450
 3536TIP3   OH232022   3.653   5.546   0.198 -0.4502  0.3950  0.0239
 3536TIP3    H132023   3.675   5.510   0.112  0.1058 -0.5590  0.5477
 3536TIP3    H232024   3.711   5.622   0.208  1.5105 -1.1001  0.6792
 3537TIP3   OH232025   5.569   6.660   4.111  0.1340  0.2969  0.1865
 3537TIP3    H132026   5.619   6.724   4.060 -0.6119 -0.8749 -2.1772
 3537TIP3    H232027   5.583   6.577   4.066 -1.5120 -0.6101  1.2400
 3538TIP3   OH232028   4.791   6.466  14.077  0.4594 -0.4747 -0.1008
 3538TIP3    H132029   4.863   6.417  14.117  1.4265  0.5881 -0.4863
 3538TIP3    H232030   4.757   6.407  14.010  1.6166 -0.6340 -0.5802
 3539TIP3   OH232031   6.586   3.468   2.161  0.1947 -0.1184 -0.0930
 3539TIP3    H132032   6.502   3.506   2.136  0.1002 -1.9682 -3.0619
 3539TIP3    H232033   6.639   3.474   2.081  1.5638 -2.3883  0.5687
 3540TIP3   OH232034   6.131   3.446   4.896 -0.0526 -0.1794  0.7982
 3540TIP3    H132035   6.182   3.500   4.836  0.7316 -0.2827  1.3588
 3540TIP3    H232036   6.173   3.458   4.981 -0.2742 -1.1314  1.0590
 3541TIP3   OH232037   3.802   1.269   3.849 -0.2618  0.1057  0.4837
 3541TIP3    H132038   3.852   1.240   3.925 -1.9559 -0.7077  1.3126
 3541TIP3    H232039   3.748   1.342   3.881 -0.7913 -0.0657 -0.0071
 3542TIP3   OH232040   2.128   6.370   3.426 -1.0920  0.0915 -0.4424
 3542TIP3    H132041   2.124   6.277   3.408  0.5388  0.1682 -1.3912
 3542TIP3    H232042   2.214   6.383   3.467 -0.6137  1.3719 -1.7570
 3543TIP3   OH232043   2.429   5.154  13.225 -0.1284  0.1438 -0.4976
 3543TIP3    H132044   2.399   5.133  13.314 -1.7247 -0.9528 -1.2413
 3543TIP3    H232045   2.407   5.246  13.213  0.4684  0.4111  0.3646
 3544TIP3   OH232046   6.307   2.537   4.941 -1.2061 -0.2635 -0.2809
 3544TIP3    H132047   6.380   2.595   4.920 -0.2608 -1.3599 -0.1552
 3544TIP3    H232048   6.277   2.566   5.027 -1.5726  0.8165 -0.7552
 3545TIP3   OH232049   6.013   4.520   3.300  0.9949 -0.4388  0.6692
 3545TIP3    H132050   5.949   4.589   3.318 -0.5620 -0.8705 -2.5121
 3545TIP3    H232051   5.961   4.440   3.293  1.7003 -0.7611 -2.3010
 3546TIP3   OH232052   5.921   3.522  15.697  0.3183 -0.2208 -0.2997
 3546TIP3    H132053   5.904   3.524  15.791  2.5768 -1.8708  0.2166
 3546TIP3    H232054   5.967   3.604  15.679 -1.2589  0.7118 -0.2700
 3547TIP3   OH232055   1.038   2.625  13.660  0.1832 -0.5690 -0.4903
 3547TIP3    H132056   0.997   2.646  13.576 -1.6105 -1.3891  0.1244
 3547TIP3    H232057   1.004   2.691  13.721  0.6584 -0.5903 -0.1945
 3548TIP3   OH232058   1.553   3.778   0.548  0.0919  0.5023  0.1398
 3548TIP3    H132059   1.511   3.797   0.465  1.4355  1.0391 -0.4424
 3548TIP3    H232060   1.481   3.769   0.610 -0.9151  0.3687 -1.0143
 3549TIP3   OH232061   6.075   2.600  15.497 -0.1763 -0.0777  0.0987
 3549TIP3    H132062   6.064   2.664  15.426 -0.5485 -1.0086 -0.7198
 3549TIP3    H232063   6.013   2.531  15.475 -0.7665 -0.0858  1.7089
 3550TIP3   OH232064   1.094   4.587  13.505 -0.3404 -0.6630 -0.2786
 3550TIP3    H132065   1.130   4.546  13.583  3.2199 -0.9737 -1.8809
 3550TIP3    H232066   1.095   4.681  13.525  2.0629 -0.6021 -0.3998
 3551TIP3   OH232067   5.374   5.062  11.907  0.0680  0.2756 -0.0308
 3551TIP3    H132068   5.321   5.138  11.933  1.2407  1.0197  0.2230
 3551TIP3    H232069   5.363   5.000  11.979 -0.8550  0.2029 -0.2150
 3552TIP3   OH232070   1.998   0.729  12.427 -0.0486 -0.1341 -0.3367
 3552TIP3    H132071   1.939   0.801  12.452 -0.8693 -0.9668  0.1629
 3552TIP3    H232072   1.955   0.650  12.460  1.5647 -0.7275  0.4257
 3553TIP3   OH232073   4.181   4.435  15.251 -0.2374 -0.1532  0.3358
 3553TIP3    H132074   4.192   4.346  15.216  0.4208 -0.4097  1.1500
 3553TIP3    H232075   4.257   4.447  15.308 -1.3900  0.1646  1.8490
 3554TIP3   OH232076   4.416   4.002  16.982 -0.0371 -0.5346  0.0848
 3554TIP3    H132077   4.467   3.921  16.979 -1.8917 -1.7577 -0.1089
 3554TIP3    H232078   4.325   3.973  16.983 -0.7593  1.5601  0.3499
 3555TIP3   OH232079   6.671   5.963   0.674 -0.3938 -0.3405 -0.1432
 3555TIP3    H132080   6.701   5.883   0.717 -1.2394 -1.1873 -1.0773
 3555TIP3    H232081   6.600   5.995   0.731  0.5067  0.2392  0.6832
 3556TIP3   OH232082   0.948   5.450  11.434 -0.2057  0.4259 -0.2421
 3556TIP3    H132083   1.015   5.410  11.489  0.3016  1.9065  0.2792
 3556TIP3    H232084   0.989   5.459  11.348 -0.4370 -0.4469 -0.4482
 3557TIP3   OH232085   1.434   5.055  13.975 -0.0799  0.2454  0.3742
 3557TIP3    H132086   1.342   5.073  13.953  0.0364  0.0080 -0.3560
 3557TIP3    H232087   1.458   5.122  14.039 -0.2801  1.3348 -0.6614
 3558TIP3   OH232088   3.151   6.347   5.677  0.3150 -0.3784 -0.1555
 3558TIP3    H132089   3.190   6.326   5.762  1.8012 -0.3235 -0.7835
 3558TIP3    H232090   3.129   6.262   5.639  0.3213 -0.4460 -0.0080
 3559TIP3   OH232091   4.072   4.679  14.119 -0.0888 -0.3973 -0.0990
 3559TIP3    H132092   4.075   4.618  14.192 -1.4238 -0.6726 -0.2481
 3559TIP3    H232093   4.048   4.626  14.043  0.8136 -0.0333 -0.6576
 3560TIP3   OH232094   3.911   1.461  15.170 -0.3539 -0.1768 -0.0693
 3560TIP3    H132095   3.917   1.407  15.249 -0.0271 -0.2925 -0.1701
 3560TIP3    H232096   3.873   1.403  15.104 -2.0023  0.3567  0.3884
 3561TIP3   OH232097   1.297   4.933  10.894  0.2166  0.1092  0.5328
 3561TIP3    H132098   1.298   4.896  10.805 -2.7022 -0.8219  0.7718
 3561TIP3    H232099   1.322   4.860  10.950 -0.1798  0.0357  0.6175
 3562TIP3   OH232100   0.870   5.757  12.335 -0.0999 -0.4978 -0.0215
 3562TIP3    H132101   0.898   5.800  12.254  0.6743  0.3028  0.6527
 3562TIP3    H232102   0.828   5.826  12.386  1.5387 -0.3830  1.2589
 3563TIP3   OH232103   6.545   4.489  13.514 -0.4747 -0.3726  0.3970
 3563TIP3    H132104   6.496   4.407  13.520 -1.6813  0.3166  0.2053
 3563TIP3    H232105   6.487   4.554  13.552 -0.1817  0.6849 -0.9311
 3564TIP3   OH232106   2.988   6.067   2.332 -0.6432  0.2565 -0.0522
 3564TIP3    H132107   3.007   5.984   2.375 -0.6086  0.1013 -0.3672
 3564TIP3    H232108   2.894   6.064   2.314 -0.3391 -0.5366 -1.7639
 3565TIP3   OH232109   2.406   2.281   3.529  0.2909  0.2118  0.1626
 3565TIP3    H132110   2.463   2.344   3.484  1.5678 -1.5180 -0.7690
 3565TIP3    H232111   2.335   2.334   3.564  1.2552  2.1531 -0.6506
 3566TIP3   OH232112   1.687   1.335  16.279 -0.2533  0.2417  0.2549
 3566TIP3    H132113   1.623   1.299  16.218  0.1231 -0.0076 -0.0006
 3566TIP3    H232114   1.734   1.401  16.228  0.0690  0.0251  0.2684
 3567TIP3   OH232115   6.422   4.003   3.845 -0.1963 -0.1225 -0.7073
 3567TIP3    H132116   6.377   4.080   3.809 -0.0731  0.3261  0.0807
 3567TIP3    H232117   6.453   3.956   3.768 -0.7871  0.3080 -1.2218
 3568TIP3   OH232118   1.826   1.190   0.310 -0.3114 -0.5539 -0.3485
 3568TIP3    H132119   1.742   1.212   0.350  0.5701 -0.4594  1.5346
 3568TIP3    H232120   1.822   1.095   0.296 -0.1945 -0.7916  1.0999
 3569TIP3   OH232121   1.535   0.368  11.967  0.7677  0.1676 -0.7663
 3569TIP3    H132122   1.504   0.376  12.057  0.2007  0.3028 -0.9712
 3569TIP3    H232123   1.513   0.278  11.942 -1.2280  0.8128 -1.5441
 3570TIP3   OH232124   2.920   0.330  16.009  0.5861 -0.0565 -0.3724
 3570TIP3    H132125   2.959   0.376  16.083 -1.1608  0.0123  0.5684
 3570TIP3    H232126   2.838   0.376  15.993 -0.4818 -1.8614 -0.4132
 3571TIP3   OH232127   3.176   5.866   0.327 -0.2907  0.0604 -0.1427
 3571TIP3    H132128   3.270   5.853   0.337 -0.4029  0.7102  2.3512
 3571TIP3    H232129   3.165   5.888   0.234  1.8209 -1.2856 -0.7874
 3572TIP3   OH232130   3.780   6.252   0.716  0.1133 -0.4799 -0.4036
 3572TIP3    H132131   3.707   6.300   0.755  0.3005 -0.8319  0.4014
 3572TIP3    H232132   3.765   6.161   0.740 -0.7327 -1.0010 -2.6933
 3573TIP3   OH232133   6.214   3.247   1.662  0.1593 -0.1519  0.4746
 3573TIP3    H132134   6.296   3.297   1.661 -0.4068  0.7853 -0.3205
 3573TIP3    H232135   6.189   3.240   1.570 -1.0233  0.2038  0.7484
 3574TIP3   OH232136   5.275   0.630  11.545 -0.4571  0.2332 -0.5065
 3574TIP3    H132137   5.184   0.649  11.566 -0.4497  1.5149 -1.4838
 3574TIP3    H232138   5.289   0.540  11.575 -2.1891 -0.1651 -0.7860
 3575TIP3   OH232139   3.696   3.770  15.689  0.0380  0.0336  0.7258
 3575TIP3    H132140   3.744   3.779  15.606  1.7516 -1.3778  1.4921
 3575TIP3    H232141   3.658   3.856  15.704  2.2347  1.1977 -0.0234
 3576TIP3   OH232142   0.660   5.649  16.522 -0.8342  0.0594 -0.2384
 3576TIP3    H132143   0.609   5.593  16.464 -0.5654  0.2784 -0.6897
 3576TIP3    H232144   0.690   5.591  16.592  0.0425 -0.5342 -1.0752
 3577TIP3   OH232145   4.001   3.985  14.673  0.1491  0.4587 -0.3101
 3577TIP3    H132146   4.037   4.065  14.710 -0.4189  0.0985  1.1144
 3577TIP3    H232147   4.072   3.921  14.680  1.3187  1.2954 -3.3638
 3578TIP3   OH232148   3.611   3.662   2.655 -0.0723 -0.0738  0.3102
 3578TIP3    H132149   3.611   3.734   2.592  0.2719  0.3436  0.7763
 3578TIP3    H232150   3.617   3.583   2.602 -2.8445  0.0661 -0.3749
 3579TIP3   OH232151   2.486   4.449   0.960 -0.0341 -0.0566 -0.0706
 3579TIP3    H132152   2.398   4.487   0.954 -0.5826 -1.2281  0.1688
 3579TIP3    H232153   2.542   4.507   0.909 -0.5079  1.9545  1.5995
 3580TIP3   OH232154   5.891   5.206   0.975 -0.0289  0.0909 -0.0286
 3580TIP3    H132155   5.949   5.135   0.947  1.1407  0.8670  0.3179
 3580TIP3    H232156   5.884   5.196   1.070  0.0892  0.3996  0.0135
 3581TIP3   OH232157   5.396   2.374  14.040 -0.2930 -0.4189 -0.9142
 3581TIP3    H132158   5.363   2.418  13.962 -3.7991 -3.0333 -1.1650
 3581TIP3    H232159   5.491   2.383  14.035 -0.5539  2.3843 -3.6349
 3582TIP3   OH232160   5.205   1.008   2.413  0.3316  0.0256 -0.3169
 3582TIP3    H132161   5.171   0.934   2.364  1.1555  0.2471 -1.2371
 3582TIP3    H232162   5.138   1.076   2.403 -0.2957 -0.4872  0.3026
 3583TIP3   OH232163   2.218   2.457   4.788 -0.0722 -0.1432  0.1404
 3583TIP3    H132164   2.153   2.392   4.814  0.4926 -0.9108 -0.2919
 3583TIP3    H232165   2.302   2.413   4.801  0.3127  0.4101 -0.3946
 3584TIP3   OH232166   2.961   6.202   3.063 -0.3273 -0.3905  0.2188
 3584TIP3    H132167   2.892   6.137   3.053 -1.0555  0.6385 -2.1405
 3584TIP3    H232168   2.968   6.243   2.977  4.5591 -1.6720 -0.2555
 3585TIP3   OH232169   4.797   3.170  14.486  0.7185 -0.4968  0.1573
 3585TIP3    H132170   4.770   3.161  14.577 -2.2150  3.2304 -0.1011
 3585TIP3    H232171   4.724   3.132  14.436 -0.4504  2.3996 -0.5263
 3586TIP3   OH232172   1.159   6.382  13.534  0.1959 -0.5903  0.1580
 3586TIP3    H132173   1.226   6.373  13.602  2.1671 -0.1264 -1.6216
 3586TIP3    H232174   1.162   6.474  13.509 -0.0984 -0.8616 -0.9316
 3587TIP3   OH232175   0.145   2.403  14.633  0.3810 -0.2304  0.0859
 3587TIP3    H132176   0.240   2.410  14.620  0.5308  0.6369  1.4447
 3587TIP3    H232177   0.129   2.309  14.643  1.2344 -0.3158  0.7525
 3588TIP3   OH232178   6.194   4.443   3.546  0.0930  0.6298 -0.1918
 3588TIP3    H132179   6.238   4.522   3.514 -1.3813  1.9966  0.9182
 3588TIP3    H232180   6.107   4.447   3.507 -0.2264 -0.0704  0.4206
 3589TIP3   OH232181   5.679   4.657   4.062 -0.0587  0.6793 -0.1226
 3589TIP3    H132182   5.652   4.593   3.996  1.1299  1.7631 -1.7267
 3589TIP3    H232183   5.597   4.686   4.102 -0.6382 -1.8995  0.8079
 3590TIP3   OH232184   4.845   5.642  15.373  0.0543  0.1040 -0.8768
 3590TIP3    H132185   4.759   5.664  15.409  0.0256  0.1627 -0.9791
 3590TIP3    H232186   4.832   5.561  15.325  0.4353 -0.8424  0.5609
 3591TIP3   OH232187   0.964   4.986  16.149 -0.0571  0.2374  0.9070
 3591TIP3    H132188   1.059   4.986  16.163 -0.0521 -0.4205  0.9242
 3591TIP3    H232189   0.931   4.924  16.214 -0.3732 -0.3774  0.1792
 3592TIP3   OH232190   6.288   5.801  16.707  0.7424  0.1240  0.1393
 3592TIP3    H132191   6.321   5.713  16.729  0.4121 -0.2822 -0.9267
 3592TIP3    H232192   6.367   5.850  16.685  0.9364  0.1312  0.8028
 3593TIP3   OH232193   3.352   6.131   0.064  0.6734  0.1229 -0.2250
 3593TIP3    H132194   3.427   6.075   0.085  0.0465 -1.1961 -1.3893
 3593TIP3    H232195   3.358   6.146  -0.030  0.5313  1.6194 -0.0280
 3594TIP3   OH232196   6.149   0.096  16.064  0.1525  0.5388  0.2644
 3594TIP3    H132197   6.211   0.052  16.122  0.8444  1.1339 -0.0108
 3594TIP3    H232198   6.088   0.141  16.123 -0.5589 -0.7485  0.5495
 3595TIP3   OH232199   4.978   1.253  12.609  0.4357  0.4883  0.2935
 3595TIP3    H132200   4.976   1.281  12.700  1.5648 -0.8931  0.7712
 3595TIP3    H232201   5.058   1.202  12.600 -0.2787 -0.4800 -1.1418
 3596TIP3   OH232202   2.906   6.701  15.498 -0.0868  0.5478  0.0292
 3596TIP3    H132203   2.983   6.720  15.552 -0.6384 -1.1070  1.4840
 3596TIP3    H232204   2.892   6.607  15.508 -1.3339  0.5250 -1.5380
 3597TIP3   OH232205   3.905   1.012   1.428 -0.4828  0.1551 -0.6212
 3597TIP3    H132206   3.829   1.062   1.396 -0.0608  2.0354  1.0869
 3597TIP3    H232207   3.907   1.031   1.522  0.0636 -2.7129  0.0294
 3598TIP3   OH232208   0.227   5.933   5.696 -0.1846  0.5961  0.6835
 3598TIP3    H132209   0.137   5.907   5.716  0.0567 -2.2380 -1.2243
 3598TIP3    H232210   0.277   5.909   5.774 -0.5864 -1.5013  0.3591
 3599TIP3   OH232211   0.363   6.712   4.066  0.5948  0.1331  0.9174
 3599TIP3    H132212   0.409   6.631   4.047 -0.2805 -0.4894  1.3948
 3599TIP3    H232213   0.429   6.781   4.053  1.9815 -0.7904  2.6016
 3600TIP3   OH232214   0.710   5.788  14.210  0.2757  0.1632 -0.3947
 3600TIP3    H132215   0.691   5.766  14.119  0.0188  0.2627 -0.3658
 3600TIP3    H232216   0.631   5.832  14.241 -0.1814 -1.0871  0.2852
 3601TIP3   OH232217   6.137   3.930   5.193 -0.0576 -0.2930  0.3216
 3601TIP3    H132218   6.174   3.846   5.223  1.7133  0.5817  0.6999
 3601TIP3    H232219   6.209   3.992   5.201 -0.7996  0.9102 -1.6854
 3602TIP3   OH232220   2.218   2.888   0.087 -0.3689 -0.2620 -1.0497
 3602TIP3    H132221   2.136   2.859   0.047  0.1214 -1.1277 -1.4488
 3602TIP3    H232222   2.284   2.830   0.051  0.4725  0.6146 -0.9534
 3603TIP3   OH232223   3.065   3.674   4.359 -0.0955 -0.4701  0.3844
 3603TIP3    H132224   3.014   3.596   4.377 -0.3861 -0.3703 -0.0022
 3603TIP3    H232225   3.056   3.728   4.438 -0.4925 -0.5022  0.3600
 3604TIP3   OH232226   6.414   5.927  15.018 -0.3791 -0.0760 -0.2926
 3604TIP3    H132227   6.363   5.898  14.942  1.6931 -0.0508 -1.7856
 3604TIP3    H232228   6.447   6.013  14.993  0.1426  0.0437  0.7686
 3605TIP3   OH232229   5.004   0.140   5.532  0.4617  0.1249 -0.2845
 3605TIP3    H132230   5.099   0.154   5.538  0.3705  0.7703 -0.2906
 3605TIP3    H232231   4.972   0.214   5.481 -0.0227 -0.2031 -0.4592
 3606TIP3   OH232232   1.511   1.347  12.137 -0.1663 -0.2619  0.2839
 3606TIP3    H132233   1.489   1.362  12.045  0.5451  0.3195  0.2008
 3606TIP3    H232234   1.571   1.419  12.159  0.2242 -0.7997  0.9961
 3607TIP3   OH232235   4.091   4.109  15.650  0.9662 -0.1151  0.6351
 3607TIP3    H132236   4.156   4.132  15.717 -0.1995 -1.1602  2.1752
 3607TIP3    H232237   4.143   4.076  15.577  2.1774 -2.8249  2.5555
 3608TIP3   OH232238   6.533   6.240  16.347  0.2103  0.1220  0.3433
 3608TIP3    H132239   6.570   6.153  16.331  0.2548  0.1714  0.1709
 3608TIP3    H232240   6.439   6.228  16.336  0.2398  0.1512  0.0670
 3609TIP3   OH232241   4.987   3.087  11.169 -0.6057  0.0341  0.2056
 3609TIP3    H132242   5.075   3.057  11.192 -0.2957  1.1948  0.5884
 3609TIP3    H232243   5.001   3.172  11.128 -1.5382  0.1032  0.0182
 3610TIP3   OH232244   5.891   2.565   3.154 -0.5842  0.1207 -0.3169
 3610TIP3    H132245   5.891   2.527   3.242 -1.1885 -0.7813 -0.6951
 3610TIP3    H232246   5.829   2.511   3.105 -1.4768  1.6018 -0.8759
 3611TIP3   OH232247   1.587   3.854  15.914  0.1295  0.2080  0.0789
 3611TIP3    H132248   1.628   3.898  15.989 -0.7050  0.0757  0.6356
 3611TIP3    H232249   1.494   3.853  15.936 -0.2863  1.1729 -1.4765
 3612TIP3   OH232250   2.057   3.240  16.448  0.2116 -0.4505 -0.3882
 3612TIP3    H132251   2.039   3.279  16.362  1.8535  1.2411 -0.0315
 3612TIP3    H232252   2.137   3.190  16.435  2.5175  2.6119  0.7883
 3613TIP3   OH232253   2.275   3.668  15.515  0.4006 -0.0978  0.1075
 3613TIP3    H132254   2.279   3.580  15.478 -2.1534  0.0384 -0.6518
 3613TIP3    H232255   2.216   3.660  15.590 -0.9151  1.1498 -0.7362
 3614TIP3   OH232256   4.737   3.356   0.966 -0.0630  0.2923 -0.1179
 3614TIP3    H132257   4.738   3.273   1.013 -0.2375  1.0495  1.2696
 3614TIP3    H232258   4.692   3.337   0.884 -0.1971 -0.9509  0.2259
 3615TIP3   OH232259   4.645   5.472  13.846  0.5366  0.5653  0.1925
 3615TIP3    H132260   4.735   5.454  13.817  0.4167 -0.8088  0.6057
 3615TIP3    H232261   4.604   5.517  13.772  1.3012  0.3791 -0.3528
 3616TIP3   OH232262   0.420   1.631   0.760 -0.1972  0.3682 -0.4173
 3616TIP3    H132263   0.494   1.689   0.778 -0.2174  0.1445  0.4424
 3616TIP3    H232264   0.453   1.543   0.780 -0.9465  0.3477  0.8890
 3617TIP3   OH232265   5.224   3.083  11.710 -0.0099 -0.1078  0.9243
 3617TIP3    H132266   5.313   3.063  11.679  0.0550  0.4836  0.6991
 3617TIP3    H232267   5.181   2.998  11.718  0.4697 -0.3766  0.6950
 3618TIP3   OH232268   5.750   5.785   0.471 -0.3687  0.4634  0.1879
 3618TIP3    H132269   5.672   5.839   0.479 -0.1165  1.2681 -2.0848
 3618TIP3    H232270   5.718   5.700   0.440 -0.4652  0.3663  0.5540
 3619TIP3   OH232271   6.391   4.974  14.268  0.6209 -0.6714  0.5034
 3619TIP3    H132272   6.354   4.889  14.290  1.1995 -0.8236  0.8966
 3619TIP3    H232273   6.459   4.989  14.333 -0.5286  0.8223  1.4481
 3620TIP3   OH232274   2.257   1.111   4.681 -0.3967  0.6624 -0.3448
 3620TIP3    H132275   2.334   1.168   4.669  0.4652 -0.5860 -0.9057
 3620TIP3    H232276   2.290   1.023   4.667 -0.9807 -0.3421  3.5529
 3621TIP3   OH232277   6.661   4.678  12.326  0.1740 -0.2371 -0.8395
 3621TIP3    H132278   6.636   4.650  12.414 -0.2300 -0.0585 -0.8975
 3621TIP3    H232279   6.650   4.600  12.272 -1.6240  0.1921 -1.1349
 3622TIP3   OH232280   5.862   3.774  14.714  0.3500 -0.4117 -0.4899
 3622TIP3    H132281   5.796   3.795  14.781  0.2289  1.8445 -1.2343
 3622TIP3    H232282   5.859   3.679  14.707 -1.6997 -0.4914  0.6254
 3623TIP3   OH232283   3.816   1.213   0.733 -0.2384 -0.4621 -0.0194
 3623TIP3    H132284   3.780   1.145   0.675 -1.1280 -0.9881  1.1283
 3623TIP3    H232285   3.831   1.168   0.816 -0.9870  0.7763  0.8153
 3624TIP3   OH232286   4.278   2.130   4.969 -0.3454 -0.1330 -0.1773
 3624TIP3    H132287   4.267   2.162   5.058  0.8697  0.7346 -0.3141
 3624TIP3    H232288   4.356   2.074   4.973 -1.0559 -1.1794 -0.4404
 3625TIP3   OH232289   3.494   6.736   1.482  0.5209 -0.1541  0.5690
 3625TIP3    H132290   3.449   6.665   1.530  0.1478 -0.4268 -0.1768
 3625TIP3    H232291   3.576   6.696   1.454  0.7102 -0.0134  0.9125
 3626TIP3   OH232292   4.357   2.133  12.375 -0.3230  0.0074 -0.0324
 3626TIP3    H132293   4.416   2.061  12.352  2.1890  1.2559  1.9174
 3626TIP3    H232294   4.282   2.091  12.417  0.4657 -1.5337 -0.0937
 3627TIP3   OH232295   1.809   4.974   2.779  0.0802  0.2592  0.7856
 3627TIP3    H132296   1.867   5.031   2.829  0.0975  2.7267 -1.7679
 3627TIP3    H232297   1.865   4.937   2.711 -0.9247  1.5870 -0.8673
 3628TIP3   OH232298   5.344   0.066  16.038 -0.1856 -0.1195  0.5156
 3628TIP3    H132299   5.298   0.140  15.998  2.9096  2.6694  1.7051
 3628TIP3    H232300   5.411   0.041  15.975 -0.8307 -1.6479  0.3752
 3629TIP3   OH232301   5.751   0.671  17.315  0.0951  0.2153 -0.1335
 3629TIP3    H132302   5.778   0.585  17.284 -2.7735 -0.6611 -0.5207
 3629TIP3    H232303   5.753   0.727  17.237  1.3355  0.3444 -0.0174
 3630TIP3   OH232304   0.981   3.999   3.590 -0.1124  0.1309 -0.1581
 3630TIP3    H132305   0.994   3.954   3.506  0.9178 -0.9245  0.5336
 3630TIP3    H232306   0.891   4.031   3.586 -0.2772 -0.4133 -1.4258
 3631TIP3   OH232307   3.699   5.274   2.518 -0.6540  0.2526 -0.1671
 3631TIP3    H132308   3.636   5.216   2.475 -0.9543 -0.5147  1.2524
 3631TIP3    H232309   3.775   5.218   2.533 -0.3545  0.6600 -0.1682
 3632TIP3   OH232310   3.790   0.776   1.776 -0.3482 -0.5095 -0.4714
 3632TIP3    H132311   3.795   0.684   1.801 -0.1400  0.1917  2.4013
 3632TIP3    H232312   3.723   0.779   1.708 -0.4496 -2.7385 -0.5347
 3633TIP3   OH232313   2.642   0.444  14.276 -0.4756  0.1631 -0.3749
 3633TIP3    H132314   2.731   0.445  14.240 -0.6356 -0.2249 -0.7837
 3633TIP3    H232315   2.631   0.356  14.311 -0.4529  0.4261  0.2989
 3634TIP3   OH232316   2.413   0.808   5.541 -0.3154  0.4930 -0.0503
 3634TIP3    H132317   2.477   0.777   5.604 -1.2613 -0.1793  0.6150
 3634TIP3    H232318   2.376   0.888   5.580  0.0690  0.8532 -0.4095
 3635TIP3   OH232319   5.860   3.549   3.999  0.1930 -0.1673  0.0407
 3635TIP3    H132320   5.905   3.631   3.979  0.5720 -0.1509  0.9247
 3635TIP3    H232321   5.768   3.573   4.007  0.4840  0.4521  1.7687
 3636TIP3   OH232322   1.331   6.548   3.782 -0.3732  0.2264  0.7784
 3636TIP3    H132323   1.315   6.548   3.876  1.9301 -0.8647  1.2306
 3636TIP3    H232324   1.413   6.595   3.771 -0.7369  0.5726 -0.7429
 3637TIP3   OH232325   1.342   2.432   0.401  0.1376  0.4734  0.0314
 3637TIP3    H132326   1.332   2.354   0.346  0.1579 -0.9514  1.9452
 3637TIP3    H232327   1.252   2.459   0.420  0.0915 -0.0485  0.6144
 3638TIP3   OH232328   0.993   5.642  15.611  0.0413 -0.0431  0.3899
 3638TIP3    H132329   0.914   5.590  15.632 -0.4348  0.3428 -0.4114
 3638TIP3    H232330   0.959   5.724  15.577  0.8000  0.0779 -0.0914
 3639TIP3   OH232331   5.990   3.451  12.113  0.3109  0.1135 -0.4905
 3639TIP3    H132332   6.067   3.394  12.124 -0.1058 -0.6234 -1.2444
 3639TIP3    H232333   6.024   3.540  12.121  1.5715 -0.1289 -2.4990
 3640TIP3   OH232334   3.734   1.300  15.759  0.2623 -0.7035  0.3705
 3640TIP3    H132335   3.698   1.388  15.761 -1.5047 -1.3788  0.2564
 3640TIP3    H232336   3.688   1.257  15.686  2.7821 -1.0538 -1.1180
 3641TIP3   OH232337   3.477   2.345  10.877  0.7253 -0.1654  0.0602
 3641TIP3    H132338   3.489   2.438  10.893  0.2383  0.0254 -0.6125
 3641TIP3    H232339   3.471   2.305  10.964  1.0283  0.4169  0.3505
 3642TIP3   OH232340   6.642   2.946  17.303 -0.4265  0.0571  0.7401
 3642TIP3    H132341   6.715   2.888  17.284 -1.5347 -0.9076 -0.7516
 3642TIP3    H232342   6.574   2.888  17.338 -0.3303  1.0155  2.6386
 3643TIP3   OH232343   4.212   1.250   2.141  0.6059  0.0343  0.0395
 3643TIP3    H132344   4.222   1.300   2.060 -2.1044  1.2413  0.3343
 3643TIP3    H232345   4.278   1.287   2.200  0.5422  1.3389 -0.6559
 3644TIP3   OH232346   0.260   3.425   1.294  0.3166  0.2211 -0.5274
 3644TIP3    H132347   0.334   3.453   1.239  0.6456  1.0051  0.2895
 3644TIP3    H232348   0.260   3.487   1.367 -0.2635 -0.6590  0.2368
 3645TIP3   OH232349   0.709   2.376  13.509 -0.4835 -0.2442  0.0128
 3645TIP3    H132350   0.653   2.451  13.529  0.3375  0.4521 -0.2100
 3645TIP3    H232351   0.707   2.322  13.587  0.1221  0.7956  0.7697
 3646TIP3   OH232352   1.916   2.587  13.128 -0.4111  0.2121 -0.2455
 3646TIP3    H132353   1.913   2.656  13.061  1.1264 -0.7203 -1.3319
 3646TIP3    H232354   1.837   2.601  13.180 -1.5478  1.1172 -2.1124
 3647TIP3   OH232355   3.641   4.905  11.954 -0.0806 -0.4671  0.2410
 3647TIP3    H132356   3.576   4.974  11.965  0.8170  0.1855  1.9627
 3647TIP3    H232357   3.637   4.881  11.862 -3.6019 -1.3515  0.4920
 3648TIP3   OH232358   6.040   4.513  12.439 -0.1738 -0.2849  0.2651
 3648TIP3    H132359   6.081   4.540  12.358  0.5537  0.5039  0.8774
 3648TIP3    H232360   5.946   4.510  12.419  0.0807 -1.0817 -0.8570
 3649TIP3   OH232361   5.964   2.574  13.876 -0.3342 -0.6173  1.0664
 3649TIP3    H132362   5.959   2.596  13.783  0.4976 -0.2132  1.1031
 3649TIP3    H232363   5.947   2.657  13.921  1.1482 -0.3671  1.2281
 3650TIP3   OH232364   2.523   5.156  15.787 -0.1764  0.1004 -0.6190
 3650TIP3    H132365   2.553   5.134  15.699  1.4665  0.1459 -0.0969
 3650TIP3    H232366   2.603   5.161  15.839 -0.9381  1.9676  0.4696
 3651TIP3   OH232367   2.018   1.626   2.658 -0.3099 -0.5010  0.0059
 3651TIP3    H132368   1.926   1.601   2.665 -0.7984  1.2506  0.4361
 3651TIP3    H232369   2.023   1.675   2.576 -0.5136  2.0671  1.4097
 3652TIP3   OH232370   3.237   5.870   4.352  0.3351 -0.0211 -0.4675
 3652TIP3    H132371   3.309   5.807   4.347  1.4765  1.1011  0.8687
 3652TIP3    H232372   3.182   5.837   4.423  1.0379  0.5623  0.3638
 3653TIP3   OH232373   1.437   1.133   4.179 -0.1165  0.0394  0.1318
 3653TIP3    H132374   1.519   1.144   4.130  0.8261 -0.1251  1.5975
 3653TIP3    H232375   1.458   1.166   4.267 -0.9961 -1.9116  1.1143
 3654TIP3   OH232376   4.159   4.395   5.392 -0.3722 -0.9486 -0.2362
 3654TIP3    H132377   4.234   4.344   5.422 -0.6511 -0.8045  0.7593
 3654TIP3    H232378   4.083   4.340   5.411 -0.8617  0.5495  2.7479
 3655TIP3   OH232379   3.489   3.402   5.747 -0.0010 -0.4766  0.8486
 3655TIP3    H132380   3.535   3.483   5.772  0.3002 -1.0369  2.2444
 3655TIP3    H232381   3.479   3.408   5.652  1.7042  0.3306  0.6815
 3656TIP3   OH232382   0.476   5.432  13.897 -0.2302  0.5154 -0.2827
 3656TIP3    H132383   0.554   5.397  13.855 -0.9254  0.5919 -1.7196
 3656TIP3    H232384   0.403   5.394  13.848 -1.1061  0.5027  0.9748
 3657TIP3   OH232385   0.605   5.746   0.882 -0.0581 -0.2939 -0.4494
 3657TIP3    H132386   0.659   5.776   0.809  1.8505 -0.8025  0.6802
 3657TIP3    H232387   0.520   5.726   0.842  0.8680 -0.4344 -2.4906
 3658TIP3   OH232388   4.076   2.893   6.698  0.0252 -0.0888  0.0102
 3658TIP3    H132389   4.050   2.837   6.624  0.4719 -1.9305  1.1918
 3658TIP3    H232390   4.059   2.982   6.667 -0.9920 -0.8637 -1.8480
 3659TIP3   OH232391   0.302   6.255   4.864 -0.1253 -0.0177 -0.6766
 3659TIP3    H132392   0.321   6.245   4.957 -0.0469 -0.9612 -0.7823
 3659TIP3    H232393   0.300   6.165   4.830 -0.2782  0.3071 -1.5591
 3660TIP3   OH232394   2.409   0.478   4.097  0.0796 -0.2884  0.4198
 3660TIP3    H132395   2.322   0.517   4.099  0.6072  1.0023  3.3764
 3660TIP3    H232396   2.449   0.512   4.016 -1.8442 -0.3099 -0.5986
 3661TIP3   OH232397   6.365   4.378   6.156 -0.2660 -0.1080  0.5006
 3661TIP3    H132398   6.382   4.431   6.078 -0.0064 -0.2627  0.4507
 3661TIP3    H232399   6.329   4.440   6.219  2.1095  0.6400  1.2391
 3662TIP3   OH232400   4.768   5.619  14.547  0.2570 -0.0981 -0.2369
 3662TIP3    H132401   4.853   5.586  14.521  0.7512  0.7117  0.3012
 3662TIP3    H232402   4.751   5.578  14.632 -0.8324 -1.8410 -1.2426
 3663TIP3   OH232403   5.749   2.164  14.160 -0.2742 -0.0446 -0.3447
 3663TIP3    H132404   5.733   2.175  14.254  1.1495 -1.4004  0.1059
 3663TIP3    H232405   5.732   2.250  14.122  0.3712  0.8822  1.3556
 3664TIP3   OH232406   3.256   3.204   0.390 -0.2092  0.0118  0.5839
 3664TIP3    H132407   3.205   3.136   0.433 -0.9253  0.4194  0.3940
 3664TIP3    H232408   3.208   3.285   0.408 -0.7404  0.1525 -1.2761
 3665TIP3   OH232409   2.632   5.785  13.872 -0.2406 -0.3984 -0.1704
 3665TIP3    H132410   2.648   5.719  13.939 -0.6228  0.2728  0.6042
 3665TIP3    H232411   2.714   5.791  13.824  0.7329  0.5481  1.5253
 3666TIP3   OH232412   0.097   2.945   5.796  0.3659 -0.3163  0.8056
 3666TIP3    H132413   0.053   3.020   5.836  0.9610 -0.1534  1.1777
 3666TIP3    H232414   0.055   2.868   5.834 -0.1914 -0.1767  0.4852
 3667TIP3   OH232415   0.436   6.718  12.388 -0.2534 -0.3751 -0.1279
 3667TIP3    H132416   0.370   6.709  12.319  1.6016 -1.0918 -1.9251
 3667TIP3    H232417   0.470   6.629  12.400  1.4571  0.1949 -0.4333
 3668TIP3   OH232418   4.426   2.710   2.520  0.4536  0.7715  0.9958
 3668TIP3    H132419   4.517   2.731   2.500  0.5452  1.4332  1.9990
 3668TIP3    H232420   4.385   2.796   2.534 -0.5602  0.5379 -0.3666
 3669TIP3   OH232421   0.493   5.769  12.549 -0.3231  0.4535  0.0223
 3669TIP3    H132422   0.445   5.788  12.630 -1.7695  1.3211 -1.0021
 3669TIP3    H232423   0.577   5.735  12.579 -1.0427  0.1976  1.8910
 3670TIP3   OH232424   5.624   3.381   3.237  0.5537 -0.4306  0.7219
 3670TIP3    H132425   5.684   3.324   3.189  0.0231 -0.3329 -0.0783
 3670TIP3    H232426   5.654   3.377   3.328  1.3667 -0.8909  0.4404
 3671TIP3   OH232427   2.651   1.331  15.616  0.3464 -0.9501  0.2954
 3671TIP3    H132428   2.620   1.340  15.526  4.3931 -1.3583 -1.3442
 3671TIP3    H232429   2.699   1.412  15.633 -1.2939 -0.3566  2.6471
 3672TIP3   OH232430   1.683   3.836  14.714  0.2666  0.1106  0.5643
 3672TIP3    H132431   1.748   3.778  14.754  1.4053  1.5675  0.8912
 3672TIP3    H232432   1.646   3.884  14.788 -1.1960 -0.6692  0.3774
 3673TIP3   OH232433   0.291   0.847  16.704 -0.1429 -0.1251  0.4126
 3673TIP3    H132434   0.381   0.853  16.734  0.2139  0.2127 -0.6921
 3673TIP3    H232435   0.274   0.753  16.697 -0.6560 -0.2842  2.8008
 3674TIP3   OH232436   6.026   1.287   6.093  0.3096 -0.0325 -0.4310
 3674TIP3    H132437   5.962   1.301   6.023  0.8435 -0.6736 -1.0619
 3674TIP3    H232438   5.981   1.315   6.173 -1.3833 -1.9950 -0.6154
 3675TIP3   OH232439   2.957   2.433   2.883  0.4714 -0.4079 -0.4064
 3675TIP3    H132440   2.936   2.514   2.929 -0.5124  0.2372 -1.9066
 3675TIP3    H232441   2.882   2.376   2.899 -0.1802  0.0512 -1.6482
 3676TIP3   OH232442   3.241   6.631  13.788  0.7367  0.3807  0.0151
 3676TIP3    H132443   3.307   6.565  13.802  0.9052  0.4301 -0.5083
 3676TIP3    H232444   3.255   6.696  13.857 -0.4955 -0.9380  1.5746
 3677TIP3   OH232445   4.534   0.691   3.247 -0.4316  0.1219 -0.3176
 3677TIP3    H132446   4.536   0.608   3.200 -0.5411  0.4735 -0.9488
 3677TIP3    H232447   4.622   0.698   3.285  0.0181  0.3435 -1.3699
 3678TIP3   OH232448   3.595   5.304  15.828  0.1195 -0.5626  0.3394
 3678TIP3    H132449   3.534   5.334  15.760 -0.8344 -3.9754 -0.4645
 3678TIP3    H232450   3.682   5.318  15.790  0.0176  3.4960  1.1365
 3679TIP3   OH232451   4.938   1.299   5.837 -0.5146  0.2215  0.4827
 3679TIP3    H132452   5.031   1.310   5.817 -0.5733  0.9646  0.5991
 3679TIP3    H232453   4.930   1.208   5.866  0.1790  0.1638  0.4977
 3680TIP3   OH232454   6.758   0.482  13.337  0.2220  0.2458  0.1769
 3680TIP3    H132455   6.700   0.406  13.348  0.3189 -0.1335 -1.5541
 3680TIP3    H232456   6.839   0.444  13.304  1.5006  0.7753  2.4719
 3681TIP3   OH232457   1.790   4.273  13.047 -0.3027  0.2464  0.0916
 3681TIP3    H132458   1.710   4.235  13.009 -0.5867  1.4799 -0.5809
 3681TIP3    H232459   1.860   4.244  12.989 -0.2586 -0.7290  0.6067
 3682TIP3   OH232460   1.561   4.265   1.343 -0.8900  0.1482  0.0947
 3682TIP3    H132461   1.481   4.253   1.292 -0.1654 -2.6760 -0.5916
 3682TIP3    H232462   1.610   4.184   1.329  1.0617  0.8315  2.3313
 3683TIP3   OH232463   6.522   2.955  15.438  0.6099  0.3377 -0.0794
 3683TIP3    H132464   6.499   2.958  15.345  0.7773  0.5898 -0.1137
 3683TIP3    H232465   6.562   2.869  15.451 -0.1517 -0.0253 -0.0624
 3684TIP3   OH232466   1.196   0.994   0.918  0.0954 -1.1922 -0.0093
 3684TIP3    H132467   1.233   0.908   0.936  1.0023 -1.1685 -1.5572
 3684TIP3    H232468   1.256   1.033   0.854 -1.6914 -0.4719 -1.3518
 3685TIP3   OH232469   6.293   1.450  17.101  0.1184 -0.5729  0.3036
 3685TIP3    H132470   6.342   1.521  17.142  0.3273 -0.8453  0.5246
 3685TIP3    H232471   6.341   1.432  17.019  0.1657 -0.5786  0.3329
 3686TIP3   OH232472   1.743   5.676   0.014 -0.1783  0.6864  0.1937
 3686TIP3    H132473   1.763   5.653   0.105  1.0424  0.0612 -0.2147
 3686TIP3    H232474   1.790   5.758  -0.001  1.9261 -0.5944 -0.6563
 3687TIP3   OH232475   6.264   2.793  14.825  0.1976 -0.5833  0.2044
 3687TIP3    H132476   6.238   2.716  14.875 -0.8849 -1.6909 -1.9425
 3687TIP3    H232477   6.183   2.824  14.785  1.1178 -0.1538 -1.3956
 3688TIP3   OH232478   3.978   4.027  13.232 -0.2280  0.2960  0.1760
 3688TIP3    H132479   3.890   4.064  13.236  0.4645  2.1661 -0.5407
 3688TIP3    H232480   4.021   4.060  13.311  0.0582  0.0064  0.1436
 3689TIP3   OH232481   2.096   1.472   6.449 -0.5422 -0.0591 -0.3685
 3689TIP3    H132482   2.006   1.504   6.458 -0.2692  0.6106  0.0420
 3689TIP3    H232483   2.094   1.385   6.488 -1.1576 -0.3199 -0.9537
 3690TIP3   OH232484   0.385   4.784  14.330  0.0953  0.4361  0.7458
 3690TIP3    H132485   0.362   4.787  14.237  0.7308  1.2987  0.5971
 3690TIP3    H232486   0.468   4.736  14.333 -0.0076  0.2662  0.8843
 3691TIP3   OH232487   5.641   0.223  14.694 -0.2378 -0.2034  0.4288
 3691TIP3    H132488   5.729   0.255  14.715 -1.0423  2.3889  0.2002
 3691TIP3    H232489   5.585   0.259  14.762 -1.4475  0.1696 -0.7075
 3692TIP3   OH232490   4.340   2.673   2.786 -0.3361 -0.1860  0.1466
 3692TIP3    H132491   4.349   2.660   2.692  0.4010 -1.0859  0.3234
 3692TIP3    H232492   4.428   2.655   2.821 -0.3350  1.1849  0.8954
 3693TIP3   OH232493   1.172   1.567   3.032  0.2151 -0.8527 -0.7758
 3693TIP3    H132494   1.193   1.474   3.036  2.9503 -0.3546 -1.4544
 3693TIP3    H232495   1.252   1.608   2.998 -0.3018  1.9392  1.0351
 3694TIP3   OH232496   1.440   0.918  12.925 -0.2169 -0.1595  0.7887
 3694TIP3    H132497   1.479   0.831  12.930 -0.6440 -0.3337  1.1056
 3694TIP3    H232498   1.506   0.971  12.880  0.4540 -0.4073  1.4621
 3695TIP3   OH232499   4.664   0.890  17.106 -0.5149  0.3340 -0.2641
 3695TIP3    H132500   4.677   0.814  17.049 -0.5472 -0.4354  0.7295
 3695TIP3    H232501   4.689   0.859  17.193  1.8865  2.1474 -0.1870
 3696TIP3   OH232502   6.644   2.547  17.296  0.2279  0.4636  0.1330
 3696TIP3    H132503   6.703   2.487  17.250  1.8184  1.5043  0.7251
 3696TIP3    H232504   6.635   2.622  17.238  1.5629  1.4132  1.1024
 3697TIP3   OH232505   6.618   2.382   2.674 -0.0864 -0.1230 -0.1888
 3697TIP3    H132506   6.708   2.414   2.685  0.2748 -1.2616  0.3340
 3697TIP3    H232507   6.571   2.416   2.750  0.5230 -1.5461  0.8675
 3698TIP3   OH232508   0.938   2.005   3.586 -0.9386  0.4872  0.9064
 3698TIP3    H132509   1.024   2.046   3.598 -0.6443  0.5578 -1.1400
 3698TIP3    H232510   0.923   1.958   3.668  0.6357  1.2076  1.6645
 3699TIP3   OH232511   1.627   0.525  14.181  0.3781 -0.0230  0.7823
 3699TIP3    H132512   1.696   0.467  14.213  0.6089 -0.7380 -0.9110
 3699TIP3    H232513   1.638   0.605  14.232  2.3151 -0.2088  0.7196
 3700TIP3   OH232514   6.207   6.582   3.675  0.3506  0.0688  0.6909
 3700TIP3    H132515   6.133   6.584   3.614 -0.2865 -0.0142  1.4444
 3700TIP3    H232516   6.167   6.567   3.760  1.2045  0.5710  1.1866
 3701TIP3   OH232517   3.219   5.938   3.450  0.1154 -0.4908 -0.2523
 3701TIP3    H132518   3.124   5.933   3.447  0.0544  0.4712 -0.3419
 3701TIP3    H232519   3.237   6.019   3.498  0.8966 -1.1745  0.6335
 3702TIP3   OH232520   1.035   3.930   3.323 -0.3075 -0.1043  0.2837
 3702TIP3    H132521   1.002   3.878   3.250 -1.2790  2.4505 -1.2482
 3702TIP3    H232522   1.105   3.983   3.284 -0.4185  0.8540  1.3418
 3703TIP3   OH232523   6.095   3.633  11.376 -0.5848 -0.5912  0.4784
 3703TIP3    H132524   6.135   3.546  11.379  0.4377 -0.1243  0.9720
 3703TIP3    H232525   6.121   3.674  11.459 -1.8025 -0.1245  0.6563
 3704TIP3   OH232526   4.024   2.206   0.023  0.1011  0.0291 -0.4210
 3704TIP3    H132527   3.984   2.142   0.081 -1.1453 -0.0861 -1.3639
 3704TIP3    H232528   4.117   2.185   0.024 -0.2668 -1.7595 -0.6466
 3705TIP3   OH232529   1.847   2.340   0.148 -0.1822  0.1335  0.0666
 3705TIP3    H132530   1.832   2.289   0.228 -0.5220  0.9875  0.5687
 3705TIP3    H232531   1.772   2.400   0.144  0.4234  0.8879 -0.2594
 3706TIP3   OH232532   0.034   4.910  17.268 -0.0350  0.4791 -0.1586
 3706TIP3    H132533   0.056   4.995  17.230  0.3106  0.7080  0.5340
 3706TIP3    H232534   0.007   4.930  17.357 -0.3262 -0.1037 -0.1092
 3707TIP3   OH232535   2.255   4.178   0.186  0.1665 -0.1589 -0.4944
 3707TIP3    H132536   2.290   4.114   0.124  0.6859  0.5483 -0.9475
 3707TIP3    H232537   2.160   4.178   0.170  0.1951 -0.5959 -0.6845
 3708TIP3   OH232538   2.575   3.169  14.760  0.0690 -0.2582  0.2995
 3708TIP3    H132539   2.526   3.113  14.821 -1.8296 -0.1507 -1.0138
 3708TIP3    H232540   2.527   3.252  14.761  2.3856  1.1580  1.6259
 3709TIP3   OH232541   1.959   0.856  14.060 -0.1680  0.0995  0.1623
 3709TIP3    H132542   1.874   0.838  14.099 -0.4374  0.4981 -0.2323
 3709TIP3    H232543   1.954   0.820  13.972 -0.8144  2.2365 -0.7370
 3710TIP3   OH232544   1.536   5.657   2.564 -0.3130  0.0968  1.2092
 3710TIP3    H132545   1.628   5.634   2.557 -0.0885  1.3636 -0.7123
 3710TIP3    H232546   1.524   5.681   2.656  1.1193 -0.6577  1.6160
 3711TIP3   OH232547   0.514   2.943   4.822  0.3436  0.2517  0.2832
 3711TIP3    H132548   0.560   2.868   4.860 -0.6216 -0.0983  0.8040
 3711TIP3    H232549   0.461   2.905   4.752  1.1069  0.7028 -0.5504
 3712TIP3   OH232550   4.247   0.764   2.299 -0.1318  0.4556 -0.3156
 3712TIP3    H132551   4.165   0.734   2.338  0.4592 -0.9666 -0.1018
 3712TIP3    H232552   4.266   0.698   2.232  0.0262  1.6428 -1.4775
 3713TIP3   OH232553   4.917   5.906  12.991 -0.1324 -0.1138  0.4831
 3713TIP3    H132554   4.917   5.897  12.896  0.3023  1.2613  0.3260
 3713TIP3    H232555   4.854   5.841  13.022 -0.0111 -0.8182 -0.7110
 3714TIP3   OH232556   2.621   5.729  13.557  0.2640 -0.2219  0.1504
 3714TIP3    H132557   2.677   5.765  13.626 -0.9314 -0.1366  1.1195
 3714TIP3    H232558   2.612   5.800  13.493 -1.1404  0.8466  1.4702
 3715TIP3   OH232559   6.015   1.346  15.422 -0.5748 -0.3135  0.0144
 3715TIP3    H132560   6.069   1.267  15.425  0.0429  0.1145  0.2279
 3715TIP3    H232561   5.925   1.313  15.426 -0.3363 -1.0285 -0.3259
 3716TIP3   OH232562   6.370   2.932  12.855 -0.2432  0.3961 -0.5619
 3716TIP3    H132563   6.361   3.024  12.878 -0.9712  0.2582 -0.2666
 3716TIP3    H232564   6.452   2.927  12.806  0.2868  1.0314  0.2482
 3717TIP3   OH232565   0.998   5.993   4.277  0.0307  0.2656  0.0273
 3717TIP3    H132566   0.953   5.999   4.362 -2.2681  2.1919 -1.1933
 3717TIP3    H232567   0.979   6.076   4.234  1.4950 -0.4776 -2.2368
 3718TIP3   OH232568   1.904   4.814  12.405  0.1802 -0.3686  0.4243
 3718TIP3    H132569   1.998   4.830  12.412 -0.2451  1.9014  1.9481
 3718TIP3    H232570   1.866   4.902  12.397 -1.6801 -1.3187 -2.9065
 3719TIP3   OH232571   5.540   0.735  11.643  0.0596  0.7977  0.1851
 3719TIP3    H132572   5.523   0.681  11.566  0.4262  1.0846 -0.1008
 3719TIP3    H232573   5.584   0.813  11.609  1.8539  0.1508  0.8813
 3720TIP3   OH232574   5.089   6.769   2.991 -0.2366  0.1999 -0.0179
 3720TIP3    H132575   5.173   6.748   2.952 -0.7270  1.7726 -2.0910
 3720TIP3    H232576   5.108   6.842   3.051  0.4794 -2.0839  2.7681
 3721TIP3   OH232577   2.922   3.601  16.219 -0.1660 -0.2925  0.1469
 3721TIP3    H132578   2.864   3.548  16.164 -0.6868 -0.4150  0.8030
 3721TIP3    H232579   3.008   3.591  16.179 -0.3947 -1.0256 -0.1857
 3722TIP3   OH232580   4.915   2.741   4.544 -0.0329  1.0445  0.1327
 3722TIP3    H132581   4.875   2.668   4.591  1.5096  0.3513  0.4160
 3722TIP3    H232582   4.885   2.731   4.454  1.1282 -0.6805 -0.1000
 3723TIP3   OH232583   6.349   5.806   0.717  0.1895  0.0769 -0.1924
 3723TIP3    H132584   6.266   5.760   0.706 -0.3648  1.1985 -1.0047
 3723TIP3    H232585   6.375   5.789   0.807 -1.5650  0.7066  0.4698
 3724TIP3   OH232586   2.124   1.402  11.825  0.2141 -0.2326  0.0351
 3724TIP3    H132587   2.185   1.388  11.752  0.4243 -1.2500  0.3854
 3724TIP3    H232588   2.038   1.389  11.787  0.2892 -0.1721 -0.1579
 3725TIP3   OH232589   2.056   1.650   1.282  0.1083 -0.1145  0.5373
 3725TIP3    H132590   2.094   1.688   1.362  1.0401  0.2042 -0.0321
 3725TIP3    H232591   2.126   1.658   1.217 -0.8927  0.3110 -0.5162
 3726TIP3   OH232592   3.719   1.157   3.101 -0.1065  0.5226 -0.1269
 3726TIP3    H132593   3.639   1.141   3.150  1.1379  1.5022  2.3746
 3726TIP3    H232594   3.689   1.178   3.012 -2.6282  1.1825  0.8032
 3727TIP3   OH232595   6.206   6.510  13.353 -0.0526  0.3362  0.3935
 3727TIP3    H132596   6.232   6.542  13.440  0.2580 -1.3090  0.9318
 3727TIP3    H232597   6.114   6.536  13.345  0.2781  1.6535  0.6504
 3728TIP3   OH232598   0.721   6.515  12.397 -0.3507 -0.4168  0.4535
 3728TIP3    H132599   0.755   6.443  12.345 -0.0370  0.5160 -0.6798
 3728TIP3    H232600   0.638   6.483  12.433 -1.1742 -0.7193 -1.5825
 3729TIP3   OH232601   3.494   2.462  14.993  0.0430 -0.3381 -0.1179
 3729TIP3    H132602   3.492   2.369  14.967 -1.4717 -0.7366  1.2851
 3729TIP3    H232603   3.477   2.509  14.912  2.1116 -1.1857 -1.1187
 3730TIP3   OH232604   1.478   3.628   2.273  0.3529  0.4023  0.2241
 3730TIP3    H132605   1.480   3.704   2.332  1.9245  0.1100  0.6011
 3730TIP3    H232606   1.569   3.601   2.266  0.0253 -0.4235 -1.2726
 3731TIP3   OH232607   5.307   2.441  10.729 -0.3083 -0.2273  0.3255
 3731TIP3    H132608   5.340   2.372  10.672 -0.4760  0.7957 -1.0916
 3731TIP3    H232609   5.371   2.449  10.799  1.9267  0.9181 -1.6979
 3732TIP3   OH232610   4.525   5.298   3.450 -0.1926 -0.2403 -0.4528
 3732TIP3    H132611   4.569   5.377   3.482 -0.8524  0.6481 -1.6460
 3732TIP3    H232612   4.436   5.304   3.487 -0.0617 -0.7473 -0.0507
 3733TIP3   OH232613   3.427   0.223  15.375  0.1163  0.0520  0.0393
 3733TIP3    H132614   3.370   0.237  15.451 -0.9073 -1.0424 -0.4965
 3733TIP3    H232615   3.440   0.129  15.373 -0.3723 -0.0015 -1.4943
 3734TIP3   OH232616   2.513   5.103   2.452 -0.8492 -0.2364  0.4237
 3734TIP3    H132617   2.577   5.034   2.431 -1.0432 -0.9127  1.9516
 3734TIP3    H232618   2.548   5.181   2.410  0.6071 -0.7593  0.6025
 3735TIP3   OH232619   0.488   5.210  12.091 -0.3133 -0.6590 -0.1308
 3735TIP3    H132620   0.571   5.188  12.134 -1.0875 -0.9753  1.2499
 3735TIP3    H232621   0.484   5.151  12.016 -1.0835 -3.5218  1.9816
 3736TIP3   OH232622   6.370   4.681  13.644  0.4301  0.6381  0.1790
 3736TIP3    H132623   6.311   4.737  13.694  1.1083  1.1504  0.4013
 3736TIP3    H232624   6.426   4.741  13.596  1.5924  0.1656  0.9176
 3737TIP3   OH232625   2.871   2.126  10.940  0.0515 -0.3930 -0.4151
 3737TIP3    H132626   2.957   2.167  10.928 -0.1327  1.1631  2.6267
 3737TIP3    H232627   2.884   2.035  10.916  1.9675  0.2289 -2.0474
 3738TIP3   OH232628   3.070   6.278  15.975  0.0558  0.1527 -0.5245
 3738TIP3    H132629   3.062   6.185  15.952  1.2175  0.2621 -1.4524
 3738TIP3    H232630   3.010   6.323  15.916 -3.1176 -0.2059  2.1112
 3739TIP3   OH232631   6.057   4.177  16.446 -0.4362 -0.2842 -0.1126
 3739TIP3    H132632   6.126   4.180  16.512  2.0119  0.3816 -2.5144
 3739TIP3    H232633   6.025   4.267  16.441 -1.6383 -0.5985  1.0248
 3740TIP3   OH232634   6.458   2.234   5.228  0.0688  0.0000  0.2401
 3740TIP3    H132635   6.383   2.265   5.177 -1.0974 -0.4278  1.6175
 3740TIP3    H232636   6.527   2.221   5.164 -1.3895 -0.6774 -1.2659
 3741TIP3   OH232637   6.109   0.739   3.358  0.0993  0.2676 -0.6168
 3741TIP3    H132638   6.047   0.714   3.426 -1.3840 -0.9138 -2.3222
 3741TIP3    H232639   6.133   0.656   3.316  2.3705  0.7644 -0.4361
 3742TIP3   OH232640   2.462   1.052   2.621  0.1602 -0.3311  0.8987
 3742TIP3    H132641   2.552   1.062   2.652  0.4867 -1.4493  0.3802
 3742TIP3    H232642   2.409   1.105   2.681  0.8761 -1.6301  2.7643
 3743TIP3   OH232643   0.618   5.335   1.257  0.5284 -0.6577  0.6404
 3743TIP3    H132644   0.563   5.268   1.217  0.3872 -0.7922  1.0565
 3743TIP3    H232645   0.685   5.286   1.304  0.0847 -0.5260  1.4329
 3744TIP3   OH232646   5.489   3.129  16.330  0.1798  0.0753  0.0029
 3744TIP3    H132647   5.394   3.126  16.335  0.1545  1.4251  0.4471
 3744TIP3    H232648   5.507   3.155  16.239  0.0201  2.9481  0.7203
 3745TIP3   OH232649   2.898   3.799   1.106 -0.4757 -0.3968  0.3830
 3745TIP3    H132650   2.914   3.872   1.046  3.3345 -1.4540 -0.1448
 3745TIP3    H232651   2.836   3.834   1.170  0.4365  3.0309 -0.3883
 3746TIP3   OH232652   5.702   4.818  12.332 -0.6270  0.2595  0.3576
 3746TIP3    H132653   5.642   4.889  12.356  0.6853  1.4802  0.1626
 3746TIP3    H232654   5.644   4.747  12.305 -1.9926  1.4243  0.0582
 3747TIP3   OH232655   5.781   3.978  13.736 -0.1017  0.2619  0.1130
 3747TIP3    H132656   5.829   3.993  13.654  1.4546 -0.9784  0.7590
 3747TIP3    H232657   5.714   3.913  13.712 -1.8992  2.3624 -0.9060
 3748TIP3   OH232658   0.820   2.936   1.840  0.8444  0.6425  0.3031
 3748TIP3    H132659   0.819   3.022   1.797  1.3890  0.6200  0.2424
 3748TIP3    H232660   0.810   2.873   1.769 -1.9034  0.6939  0.5297
 3749TIP3   OH232661   1.193   2.623   4.910 -0.0228  0.2818  0.3198
 3749TIP3    H132662   1.231   2.535   4.908 -1.2172 -0.2824 -2.1290
 3749TIP3    H232663   1.263   2.680   4.878  0.6220  0.1960  1.5209
 3750TIP3   OH232664   0.126   2.741   2.492 -0.1907 -0.3360  0.0530
 3750TIP3    H132665   0.035   2.752   2.463 -0.2956 -0.3862  0.3589
 3750TIP3    H232666   0.172   2.712   2.414  0.0187  1.8260 -0.6703
 3751TIP3   OH232667   2.751   1.008   6.103  0.5553 -0.1066  1.0911
 3751TIP3    H132668   2.781   1.082   6.157 -0.1439  1.3943 -0.4949
 3751TIP3    H232669   2.659   0.997   6.126  0.3718  0.2436  0.5290
 3752TIP3   OH232670   5.563   3.766   3.768  0.0460  0.2916 -0.7678
 3752TIP3    H132671   5.563   3.780   3.863  0.5127 -1.6093 -0.4551
 3752TIP3    H232672   5.647   3.723   3.750 -1.6547 -3.0738 -1.3934
 3753TIP3   OH232673   4.197   2.930  14.898  0.0523  0.3311 -0.3999
 3753TIP3    H132674   4.267   2.878  14.938 -0.0245  0.4906 -0.0637
 3753TIP3    H232675   4.161   2.982  14.969 -0.2148  0.4692 -0.6339
 3754TIP3   OH232676   5.355   2.818  13.582 -0.1208 -0.4587  0.2054
 3754TIP3    H132677   5.390   2.746  13.530  0.1845  1.3298 -2.2266
 3754TIP3    H232678   5.305   2.870  13.520 -0.7500  1.1931  2.0006
 3755TIP3   OH232679   3.173   1.910   1.823  0.1759  0.0508  0.0045
 3755TIP3    H132680   3.259   1.951   1.817 -0.6131  1.6213 -1.0221
 3755TIP3    H232681   3.120   1.971   1.874 -0.1103 -1.3793  1.5256
 3756TIP3   OH232682   6.172   2.874  14.496  0.3773  0.1563 -0.1314
 3756TIP3    H132683   6.178   2.968  14.482 -1.0230  0.2106 -0.5448
 3756TIP3    H232684   6.111   2.865  14.570 -0.1402 -0.4354 -0.6218
 3757TIP3   OH232685   1.509   4.102   5.197  0.4330 -0.2538  0.3426
 3757TIP3    H132686   1.482   4.194   5.205  0.3993 -0.2267 -0.0547
 3757TIP3    H232687   1.506   4.068   5.286  1.5312  0.4420  0.6667
 3758TIP3   OH232688   5.659   0.157   0.338 -0.2558  0.0251  0.6895
 3758TIP3    H132689   5.744   0.194   0.314 -1.9764  2.9272 -1.6016
 3758TIP3    H232690   5.653   0.076   0.288  0.3334  0.9207 -0.9168
 3759TIP3   OH232691   3.471   1.375  13.757  0.6967 -0.0806  0.2255
 3759TIP3    H132692   3.386   1.347  13.723 -0.3751  0.0345  2.6028
 3759TIP3    H232693   3.531   1.365  13.683 -0.7361 -3.2002 -0.6788
 3760TIP3   OH232694   5.009   4.997   0.125 -0.7312 -0.3371  0.3354
 3760TIP3    H132695   5.050   4.924   0.172  0.3379 -0.1314 -0.2461
 3760TIP3    H232696   5.040   4.989   0.035 -2.4020 -0.4651 -0.2751
 3761TIP3   OH232697   4.259   2.199  14.714  0.0544 -0.4104 -0.2466
 3761TIP3    H132698   4.290   2.219  14.803  0.1177 -0.4417 -0.2614
 3761TIP3    H232699   4.249   2.104  14.713 -1.2512 -0.2890  0.1432
 3762TIP3   OH232700   5.369   4.725   3.025  0.3482 -0.1190 -0.2663
 3762TIP3    H132701   5.298   4.666   2.998  1.0944 -1.7602  1.2490
 3762TIP3    H232702   5.444   4.699   2.971  0.6172 -0.4031  0.2439
 3763TIP3   OH232703   0.197   5.387  15.986 -0.3458 -0.1625 -0.3297
 3763TIP3    H132704   0.259   5.442  15.938 -0.6105 -0.0636 -0.5566
 3763TIP3    H232705   0.242   5.303  15.994 -1.0877 -0.8353 -2.5138
 3764TIP3   OH232706   3.999   1.443   4.660 -0.1508 -0.4008 -0.0751
 3764TIP3    H132707   4.050   1.415   4.736 -1.0718 -1.9475  0.0304
 3764TIP3    H232708   3.922   1.486   4.698  0.3939  0.7352 -0.2076
 3765TIP3   OH232709   5.813   1.581   1.563 -0.0702  0.5617  0.2210
 3765TIP3    H132710   5.884   1.643   1.579  1.4490 -1.4795  1.8451
 3765TIP3    H232711   5.740   1.636   1.535  1.4196  2.9914  0.8037
 3766TIP3   OH232712   2.649   3.835  14.571 -0.2858  0.0198 -0.4128
 3766TIP3    H132713   2.599   3.754  14.578 -0.4118  0.2686  2.3443
 3766TIP3    H232714   2.726   3.821  14.626 -0.9664  2.2076  1.1917
 3767TIP3   OH232715   5.188   0.931  11.294  0.0062 -0.0450 -0.0486
 3767TIP3    H132716   5.242   0.904  11.220 -1.9697  0.4361 -1.7484
 3767TIP3    H232717   5.250   0.970  11.356  2.0168 -2.3631 -0.4402
 3768TIP3   OH232718   1.263   4.667   4.142 -0.2863  0.6214  0.1978
 3768TIP3    H132719   1.211   4.747   4.156 -2.2153 -0.5512  0.1163
 3768TIP3    H232720   1.225   4.603   4.202 -0.6309 -1.0277 -1.6823
 3769TIP3   OH232721   4.844   1.979   0.557  0.4690 -0.3707  0.1875
 3769TIP3    H132722   4.834   2.031   0.478  2.1199 -0.3605 -0.0613
 3769TIP3    H232723   4.810   1.893   0.534 -1.2398  0.2637  0.2479
 3770TIP3   OH232724   0.045   0.526   3.293  0.3440 -0.1122 -0.0909
 3770TIP3    H132725   0.070   0.461   3.228 -0.7793 -0.1069 -0.5424
 3770TIP3    H232726   0.085   0.495   3.374  1.0813 -0.5447 -0.6044
 3771TIP3   OH232727   2.024   2.047   2.227 -0.2491  0.3229 -0.4166
 3771TIP3    H132728   2.023   2.058   2.322  1.0034  0.0650 -0.3549
 3771TIP3    H232729   2.025   1.953   2.214  0.6247  0.3526 -0.6452
 3772TIP3   OH232730   3.772   2.856   5.622 -0.0127 -0.4673 -0.0895
 3772TIP3    H132731   3.721   2.793   5.673 -0.2086  0.0949  0.4110
 3772TIP3    H232732   3.849   2.873   5.676 -0.5906  0.7167  0.3848
 3773TIP3   OH232733   1.346   6.063  13.812  0.5756 -0.1362  0.3944
 3773TIP3    H132734   1.338   5.989  13.872  1.3007 -0.6668 -0.1621
 3773TIP3    H232735   1.405   6.124  13.857  2.4830 -1.2716 -0.4790
 3774TIP3   OH232736   5.720   4.268  15.883 -0.0379  0.2047  0.0405
 3774TIP3    H132737   5.737   4.320  15.804 -1.4376 -2.5801 -2.2833
 3774TIP3    H232738   5.805   4.232  15.907  0.3375  0.7312 -0.4686
 3775TIP3   OH232739   1.272   2.711  17.127 -0.2740 -0.4134  0.0510
 3775TIP3    H132740   1.328   2.698  17.204 -0.0985  0.2319  0.0407
 3775TIP3    H232741   1.295   2.639  17.069  0.9368  0.1110 -0.1674
 3776TIP3   OH232742   5.302   1.323  15.176  0.0742 -0.0444 -0.4369
 3776TIP3    H132743   5.242   1.370  15.233 -0.2539  0.0906 -0.8850
 3776TIP3    H232744   5.328   1.388  15.110 -0.1878 -0.4159 -0.9167
 3777TIP3   OH232745   1.293   0.624   2.216  0.4706 -0.1831 -0.0305
 3777TIP3    H132746   1.287   0.709   2.258  0.4810 -0.7458  1.1390
 3777TIP3    H232747   1.292   0.644   2.122  2.7399  1.2940  0.1749
 3778TIP3   OH232748   5.459   6.339  14.055  0.2879  0.5554  0.6988
 3778TIP3    H132749   5.525   6.355  13.988 -1.7243 -1.5473 -2.0949
 3778TIP3    H232750   5.405   6.418  14.056 -0.6385  0.0363 -1.5801
 3779TIP3   OH232751   0.337   4.244   1.980 -0.4848 -0.1801  0.1643
 3779TIP3    H132752   0.344   4.196   2.063  0.0335  0.3914  0.4610
 3779TIP3    H232753   0.420   4.226   1.935 -1.2194 -1.4152 -0.7562
 3780TIP3   OH232754   4.137   6.367   4.494 -0.3744 -0.5914  0.5936
 3780TIP3    H132755   4.107   6.455   4.472  1.8015 -0.2064 -1.1748
 3780TIP3    H232756   4.107   6.312   4.422 -0.7712 -1.1079  1.1404
 3781TIP3   OH232757   6.761   0.419  12.454 -0.2588  0.3467  0.0897
 3781TIP3    H132758   6.772   0.370  12.536  0.5007  0.1704 -0.1101
 3781TIP3    H232759   6.826   0.488  12.459  1.1146 -0.7860 -1.1840
 3782TIP3   OH232760   6.700   1.967  13.297 -0.1053 -0.0175  0.1122
 3782TIP3    H132761   6.656   1.986  13.379 -1.1648  0.4494 -0.5406
 3782TIP3    H232762   6.633   1.980  13.230  0.8436  0.0320 -0.8625
 3783TIP3   OH232763   5.225   1.956  15.161 -0.0450  0.1038 -0.4587
 3783TIP3    H132764   5.270   1.996  15.235 -1.1098 -2.7166  1.8837
 3783TIP3    H232765   5.203   2.030  15.104 -0.3576  2.6416  2.6663
 3784TIP3   OH232766   0.346   1.889   3.321 -0.4225  0.2232 -0.1400
 3784TIP3    H132767   0.276   1.873   3.259 -0.0421 -0.5096 -0.3836
 3784TIP3    H232768   0.365   1.804   3.360  0.8435  0.2582 -0.6275
 3785TIP3   OH232769   5.449   6.533  15.384 -0.0108  0.4480  0.4437
 3785TIP3    H132770   5.394   6.558  15.310 -0.3192  0.9276  0.8330
 3785TIP3    H232771   5.523   6.488  15.344 -0.5817 -0.0234 -0.0990
 3786TIP3   OH232772   1.521   4.743  17.326 -0.0769 -0.8409 -0.2066
 3786TIP3    H132773   1.603   4.729  17.372 -0.2605 -1.5760 -0.0856
 3786TIP3    H232774   1.488   4.655  17.308 -0.4801 -0.5625 -0.8992
 3787TIP3   OH232775   4.525   2.692  16.388 -0.6780  0.1118  0.1780
 3787TIP3    H132776   4.437   2.715  16.357 -0.0788  1.9091 -0.3152
 3787TIP3    H232777   4.549   2.616  16.336 -1.5975  0.1398 -0.3149
 3788TIP3   OH232778   3.395   5.010  17.008 -0.0574  0.5312 -0.0539
 3788TIP3    H132779   3.301   4.995  16.999 -0.4816  3.6808 -2.1088
 3788TIP3    H232780   3.404   5.104  17.019  2.8582  0.2081  1.4254
 3789TIP3   OH232781   6.724   2.325   0.916 -0.1235 -0.1573 -0.3712
 3789TIP3    H132782   6.676   2.407   0.913 -0.9121 -0.6429 -1.5252
 3789TIP3    H232783   6.815   2.350   0.902  0.2260  0.9052  2.9327
 3790TIP3   OH232784   6.682   0.939  10.663 -0.3434  0.2246  0.0170
 3790TIP3    H132785   6.594   0.956  10.696 -0.6624 -0.6551 -0.3396
 3790TIP3    H232786   6.708   1.020  10.621 -1.2626  0.2822 -0.4656
 3791TIP3   OH232787   2.244   1.683  15.087  0.1149  0.4382  0.2370
 3791TIP3    H132788   2.310   1.697  15.020  0.3560 -1.7258 -0.0729
 3791TIP3    H232789   2.263   1.749  15.154  2.5297 -0.0146  0.0935
 3792TIP3   OH232790   0.428   6.580  13.523 -0.5699 -0.0357  0.2130
 3792TIP3    H132791   0.451   6.667  13.491 -2.2688 -0.3784 -2.0912
 3792TIP3    H232792   0.513   6.542  13.549  0.2274  2.1858  1.1868
 3793TIP3   OH232793   6.271   5.810  13.721  0.0377  0.6813 -0.0917
 3793TIP3    H132794   6.228   5.888  13.686  1.8553  1.6594 -0.2613
 3793TIP3    H232795   6.211   5.778  13.789 -2.5413 -0.0240 -2.5171
 3794TIP3   OH232796   0.194   5.754  15.139  0.4080  0.1722 -0.1566
 3794TIP3    H132797   0.144   5.753  15.057  1.6294  1.8459 -0.9706
 3794TIP3    H232798   0.194   5.663  15.168 -0.4240 -0.3855 -1.7903
 3795TIP3   OH232799   0.374   3.703  11.240 -0.0200  0.1546 -0.1742
 3795TIP3    H132800   0.283   3.679  11.258 -0.2428  1.1296  0.0367
 3795TIP3    H232801   0.406   3.739  11.322 -0.0497  1.6326 -0.7865
 3796TIP3   OH232802   2.807   2.911   0.810  0.1593  0.9731 -0.2172
 3796TIP3    H132803   2.859   2.867   0.877  1.4209  0.7618 -1.2907
 3796TIP3    H232804   2.866   2.977   0.774 -0.6728  1.4233 -0.7829
 3797TIP3   OH232805   0.608   1.608   6.770 -0.3362  0.2950 -0.6714
 3797TIP3    H132806   0.598   1.666   6.695 -0.8716 -0.9078 -1.5656
 3797TIP3    H232807   0.538   1.544   6.761 -0.1955 -0.0929  0.6735
 3798TIP3   OH232808   0.610   5.094   3.012  0.1361  0.0452  0.3809
 3798TIP3    H132809   0.670   5.141   2.954  0.1770  2.3824  2.1105
 3798TIP3    H232810   0.524   5.128   2.990 -0.1218 -0.7355  0.1809
 3799TIP3   OH232811   0.132   4.575  11.445  0.6075 -0.3348 -0.1955
 3799TIP3    H132812   0.037   4.566  11.458  0.4868 -0.0222 -0.8047
 3799TIP3    H232813   0.144   4.669  11.427  1.3532  0.1655  2.4039
 3800TIP3   OH232814   5.425   4.368   0.694  0.1072 -0.2837  0.1959
 3800TIP3    H132815   5.456   4.332   0.776  0.7539  1.0136  0.5440
 3800TIP3    H232816   5.332   4.386   0.709 -0.1804 -1.6016  0.0696
 3801TIP3   OH232817   0.257   0.579   3.584  0.0474 -0.7989  0.1232
 3801TIP3    H132818   0.283   0.536   3.666 -0.5041  1.2275  1.4130
 3801TIP3    H232819   0.177   0.533   3.557 -0.2741 -0.8889  1.2052
 3802TIP3   OH232820   3.570   3.976   0.071 -0.2558 -0.5797 -0.3654
 3802TIP3    H132821   3.615   4.046   0.023 -0.6355  0.9078  1.3184
 3802TIP3    H232822   3.564   3.904   0.008 -0.3133  1.0644 -2.3785
 3803TIP3   OH232823   5.895   2.160   2.542 -0.1587  0.2869 -0.1810
 3803TIP3    H132824   5.813   2.204   2.565 -0.4628  0.0543 -0.7952
 3803TIP3    H232825   5.868   2.080   2.496  0.4090  0.6419 -1.1732
 3804TIP3   OH232826   1.826   5.858   5.506  0.6182  0.0020  0.1839
 3804TIP3    H132827   1.741   5.818   5.522 -0.0314  0.8976 -0.9382
 3804TIP3    H232828   1.872   5.795   5.450  0.2043  0.1072 -0.2734
 3805TIP3   OH232829   6.718   4.401   5.344  0.2514  0.2955 -0.2039
 3805TIP3    H132830   6.754   4.369   5.262  0.1890 -0.5094  0.0798
 3805TIP3    H232831   6.761   4.348   5.411 -2.8279 -2.0993  0.0904
 3806TIP3   OH232832   1.224   0.527   6.067 -0.1900 -0.0934 -0.2915
 3806TIP3    H132833   1.314   0.506   6.042 -0.6267  0.0752 -2.1513
 3806TIP3    H232834   1.171   0.495   5.994 -1.8394 -1.6878  1.4806
 3807TIP3   OH232835   0.262   1.162  11.363  0.4994  0.0595 -0.8473
 3807TIP3    H132836   0.225   1.083  11.324  0.4077  0.0869 -0.8142
 3807TIP3    H232837   0.226   1.234  11.312 -1.8770  0.3072  1.0424
 3808TIP3   OH232838   1.986   5.119   2.131 -0.1166  0.4013  0.0282
 3808TIP3    H132839   1.895   5.090   2.140 -0.3175  1.2025  0.7685
 3808TIP3    H232840   1.989   5.201   2.180  0.6405  1.1563 -1.2470
 3809TIP3   OH232841   5.332   5.053   0.781  0.2286  0.3752  0.4757
 3809TIP3    H132842   5.339   5.122   0.715  0.3521  0.5745  0.6968
 3809TIP3    H232843   5.371   4.976   0.739 -0.3176  0.3175  0.0614
 3810TIP3   OH232844   1.060   4.560   4.305  0.1315 -0.1275  0.1665
 3810TIP3    H132845   1.040   4.532   4.394  0.5066  1.7357  0.8974
 3810TIP3    H232846   1.008   4.640   4.294  1.6691  0.8292 -0.4941
 3811TIP3   OH232847   1.818   3.869  12.520  0.2374  0.2859  0.7099
 3811TIP3    H132848   1.729   3.835  12.533  0.8067 -0.5670  2.9479
 3811TIP3    H232849   1.806   3.962  12.499 -1.2292 -0.3799 -1.7224
 3812TIP3   OH232850   1.572   1.530   0.753 -0.2620  0.2430 -0.1404
 3812TIP3    H132851   1.514   1.462   0.718 -1.3883  1.1817 -0.1377
 3812TIP3    H232852   1.644   1.535   0.689 -0.4202 -0.5847 -0.4033
 3813TIP3   OH232853   1.723   6.455   6.935 -0.0076 -0.1805 -0.4358
 3813TIP3    H132854   1.634   6.486   6.950  1.0576  3.0323 -0.0344
 3813TIP3    H232855   1.758   6.441   7.023 -0.1196 -1.5871 -0.5945
 3814TIP3   OH232856   0.357   1.285  15.255 -0.2312 -0.0313  0.5702
 3814TIP3    H132857   0.421   1.216  15.271 -0.2433 -0.0613  0.4929
 3814TIP3    H232858   0.279   1.239  15.223 -0.6292 -0.0826  1.5854
 3815TIP3   OH232859   3.131   2.829  15.376 -0.4800  0.0127 -0.2832
 3815TIP3    H132860   3.124   2.925  15.385 -0.4805 -0.0283  0.2105
 3815TIP3    H232861   3.046   2.802  15.340 -0.9156  0.0807  0.6629
 3816TIP3   OH232862   1.726   6.248  17.325 -0.6010  0.0119 -0.4108
 3816TIP3    H132863   1.659   6.234  17.258 -0.9064 -1.9381  0.2180
 3816TIP3    H232864   1.676   6.264  17.405 -0.2522  1.2167 -0.4174
 3817TIP3   OH232865   1.428   4.221  17.001  0.2281 -0.3812  0.4497
 3817TIP3    H132866   1.508   4.169  16.998  0.6054  0.1588 -2.6172
 3817TIP3    H232867   1.365   4.172  16.949 -0.9992 -0.0734  1.5916
 3818TIP3   OH232868   5.537   5.106   2.478  0.5836 -0.2227  0.4747
 3818TIP3    H132869   5.493   5.190   2.466  1.6354  0.6452  2.2129
 3818TIP3    H232870   5.466   5.044   2.496 -0.1288  0.5738  0.4802
 3819TIP3   OH232871   3.153   1.865  11.911  0.3287 -0.3841  0.0398
 3819TIP3    H132872   3.243   1.847  11.882  0.2609 -1.7442  0.5984
 3819TIP3    H232873   3.154   1.847  12.005 -0.2172  0.9428  0.3257
 3820TIP3   OH232874   5.983   6.070  16.968 -0.6064 -0.2983 -0.4832
 3820TIP3    H132875   5.957   6.022  17.047 -0.9802  0.1758 -0.3154
 3820TIP3    H232876   5.901   6.090  16.924 -0.5004  0.6349 -0.2868
 3821TIP3   OH232877   6.582   4.382   4.112 -0.2316  0.1110 -0.2040
 3821TIP3    H132878   6.556   4.391   4.020  1.1003 -0.0158 -0.6109
 3821TIP3    H232879   6.660   4.437   4.120 -0.7929  0.7615  1.0611
 3822TIP3   OH232880   4.563   1.705   5.961 -0.3878  0.1065  0.3494
 3822TIP3    H132881   4.499   1.639   5.985 -1.4583  0.8872 -0.2753
 3822TIP3    H232882   4.624   1.659   5.903 -1.3659 -0.2549 -0.4287
 3823TIP3   OH232883   0.999   4.891  10.896 -0.2887  0.3196  0.5682
 3823TIP3    H132884   0.965   4.913  10.809 -1.3373  0.6257  1.0466
 3823TIP3    H232885   1.042   4.806  10.884 -0.5545  0.2886 -0.2164
 3824TIP3   OH232886   1.004   5.854  15.963  0.3002  0.5349  0.7493
 3824TIP3    H132887   1.050   5.925  15.918  1.0515  0.7890  1.8777
 3824TIP3    H232888   0.978   5.892  16.047 -0.7257 -0.0488  0.7119
 3825TIP3   OH232889   3.126   5.581   5.524 -0.1312  0.1581  0.0960
 3825TIP3    H132890   3.150   5.619   5.609  1.1375  1.3891 -0.7680
 3825TIP3    H232891   3.065   5.644   5.486  1.4165  1.0497 -1.0331
 3826TIP3   OH232892   0.694   0.322   3.225 -0.2796  0.5942 -0.3254
 3826TIP3    H132893   0.663   0.283   3.143 -1.8094  0.4788  0.2719
 3826TIP3    H232894   0.708   0.415   3.204 -2.7379  1.0591 -0.2693
 3827TIP3   OH232895   4.808   6.457   0.715  0.1970  0.7092  0.3632
 3827TIP3    H132896   4.850   6.409   0.787  3.2583  0.1101 -1.6338
 3827TIP3    H232897   4.879   6.506   0.674 -1.6954  2.1155 -1.4288
 3828TIP3   OH232898   1.722   0.216  13.977  0.5113 -0.3388 -0.2870
 3828TIP3    H132899   1.769   0.283  13.927 -0.6175  0.8130  0.1410
 3828TIP3    H232900   1.658   0.180  13.916  0.3656 -0.2324 -0.1981
 3829TIP3   OH232901   0.628   6.400  12.139  0.2161 -0.2482 -0.0884
 3829TIP3    H132902   0.638   6.309  12.111 -0.2463  0.1134 -1.4973
 3829TIP3    H232903   0.555   6.434  12.087 -3.0764 -0.4311  3.8909
 3830TIP3   OH232904   3.111   6.719   4.838  0.4725  0.3067  0.0004
 3830TIP3    H132905   3.132   6.785   4.771  0.2239  1.2833  0.8655
 3830TIP3    H232906   3.019   6.698   4.822  1.1737 -1.7685 -1.8914
 3831TIP3   OH232907   6.181   5.828  15.155  0.1366  0.2283  0.6619
 3831TIP3    H132908   6.266   5.856  15.121  0.4183  1.0255  1.9554
 3831TIP3    H232909   6.198   5.801  15.245 -0.6738 -1.3392  0.3759
 3832TIP3   OH232910   1.440   5.578  14.077  0.3833 -0.1991  0.3608
 3832TIP3    H132911   1.522   5.615  14.109  0.0045  0.8832  0.1271
 3832TIP3    H232912   1.373   5.642  14.102 -0.3804 -1.0121  0.4529
 3833TIP3   OH232913   1.931   6.638  13.158 -0.4143 -0.4831  0.0920
 3833TIP3    H132914   1.875   6.711  13.133 -1.5029 -1.3542 -0.0645
 3833TIP3    H232915   1.983   6.672  13.230  1.7577  1.6244 -2.2611
 3834TIP3   OH232916   5.875   0.126  13.950 -0.5256 -0.0779 -0.0392
 3834TIP3    H132917   5.813   0.134  14.022  0.9023  1.1880  1.1258
 3834TIP3    H232918   5.954   0.089  13.991  0.8599  2.1486 -0.5431
 3835TIP3   OH232919   3.265   0.752   3.401 -0.3586 -0.1210  0.4242
 3835TIP3    H132920   3.313   0.764   3.483 -0.9244  0.5135  0.6666
 3835TIP3    H232921   3.276   0.835   3.355 -2.1571  0.4727  0.9798
 3836TIP3   OH232922   3.163   3.516   3.793  0.5215 -0.1267  0.5298
 3836TIP3    H132923   3.068   3.504   3.797  0.3584 -0.3083 -2.1191
 3836TIP3    H232924   3.178   3.600   3.836 -0.7447 -0.3729  1.5079
 3837TIP3   OH232925   1.656   5.906  15.907  0.2904 -0.0990  0.3379
 3837TIP3    H132926   1.592   5.842  15.876 -1.0628  0.9771  0.7921
 3837TIP3    H232927   1.646   5.980  15.848 -0.6099  1.0162  1.8306
 3838TIP3   OH232928   0.995   3.755   3.080 -0.5087 -0.1156  0.4978
 3838TIP3    H132929   0.964   3.840   3.049 -1.6425 -1.2634 -1.7660
 3838TIP3    H232930   0.920   3.697   3.069  0.4288 -1.5463  1.4112
 3839TIP3   OH232931   2.759   0.193   3.247  0.0064 -0.2414 -0.1999
 3839TIP3    H132932   2.831   0.235   3.200 -0.5857 -0.6326 -1.5155
 3839TIP3    H232933   2.710   0.266   3.286  0.8142  0.0558  0.2910
 3840TIP3   OH232934   4.277   5.266   4.548 -0.2029  0.1007  0.0620
 3840TIP3    H132935   4.286   5.342   4.490 -0.0929 -1.6156 -2.3337
 3840TIP3    H232936   4.215   5.208   4.503  0.2914 -1.5768  1.4005
 3841TIP3   OH232937   5.522   0.573   5.547 -0.0542  0.1523  0.0627
 3841TIP3    H132938   5.561   0.642   5.493  0.6328 -0.4889 -0.2777
 3841TIP3    H232939   5.583   0.563   5.620 -0.7790  0.7425  0.7695
 3842TIP3   OH232940   0.898   1.509  16.790  0.9861  0.3390  0.9891
 3842TIP3    H132941   0.855   1.446  16.732  0.1817  1.7775 -0.0352
 3842TIP3    H232942   0.928   1.456  16.864  0.2319 -1.2188  0.2359
 3843TIP3   OH232943   4.319   6.004   4.175 -0.0297 -0.1248 -0.4271
 3843TIP3    H132944   4.346   6.092   4.202 -0.9669  0.6565 -1.9370
 3843TIP3    H232945   4.302   6.012   4.081 -1.0936 -1.6729 -0.3956
 3844TIP3   OH232946   2.869   1.503   4.215 -0.4862 -0.5106 -0.5300
 3844TIP3    H132947   2.924   1.531   4.288 -0.2311 -1.1669 -0.4705
 3844TIP3    H232948   2.797   1.456   4.256 -2.5536  2.4694 -0.3606
 3845TIP3   OH232949   0.771   6.109   1.245  0.1152 -0.1645  0.1615
 3845TIP3    H132950   0.754   6.124   1.151 -1.5803  1.5551  0.6769
 3845TIP3    H232951   0.807   6.021   1.249 -1.6409 -1.0647 -1.9432
 3846TIP3   OH232952   3.095   1.396   2.673 -0.1166  0.4790 -0.0447
 3846TIP3    H132953   3.154   1.394   2.598 -0.1523 -0.7283 -0.0660
 3846TIP3    H232954   3.074   1.304   2.689 -1.1488  0.8110  0.6236
 3847TIP3   OH232955   0.694   0.759  17.025  0.3033 -0.0364 -0.0191
 3847TIP3    H132956   0.714   0.674  16.986 -0.8044 -0.8424  1.1121
 3847TIP3    H232957   0.775   0.809  17.016  0.9251 -1.1558 -0.8280
 3848TIP3   OH232958   3.616   1.864  16.176  0.1480  0.0582  0.7678
 3848TIP3    H132959   3.615   1.785  16.122 -1.6709  0.6092 -0.0668
 3848TIP3    H232960   3.567   1.840  16.255  0.0962  0.1759  0.7717
 3849TIP3   OH232961   4.029   2.919  12.681  0.1893 -0.2533  0.1863
 3849TIP3    H132962   4.033   2.945  12.773  1.1748  0.6137 -0.0831
 3849TIP3    H232963   4.108   2.866  12.667  0.8447  0.8709 -0.5065
 3850TIP3   OH232964   2.746   4.578  14.705 -0.2842  0.0947 -0.4182
 3850TIP3    H132965   2.753   4.635  14.628 -1.3002  0.6674 -0.0992
 3850TIP3    H232966   2.756   4.637  14.779 -2.8695  0.1796 -0.0380
 3851TIP3   OH232967   4.759   3.644  13.556 -0.2475 -0.1985 -0.2707
 3851TIP3    H132968   4.833   3.692  13.593 -0.5733 -0.4385  0.7214
 3851TIP3    H232969   4.798   3.567  13.515  0.0127 -0.5814  0.6811
 3852TIP3   OH232970   5.158   3.204  17.167 -0.4812  0.2150 -0.2099
 3852TIP3    H132971   5.163   3.113  17.139  0.0539 -0.1092  0.8547
 3852TIP3    H232972   5.090   3.205  17.235 -3.7758  1.4966 -3.2342
 3853TIP3   OH232973   4.276   4.173   0.164 -0.2579 -0.6425 -0.2364
 3853TIP3    H132974   4.193   4.124   0.160 -1.5189  1.4444 -2.3790
 3853TIP3    H232975   4.303   4.181   0.072  0.2308  1.9803  0.0672
 3854TIP3   OH232976   3.199   0.211   5.286 -0.1649  0.4788  0.4064
 3854TIP3    H132977   3.158   0.172   5.208  1.2255 -0.8592  0.3035
 3854TIP3    H232978   3.288   0.231   5.258 -0.2685  1.9801  1.0617
 3855TIP3   OH232979   4.142   0.749  12.796 -0.6644  1.0348  0.0007
 3855TIP3    H132980   4.103   0.675  12.842  0.9804 -0.3299 -0.7195
 3855TIP3    H232981   4.236   0.735  12.803 -0.1677  4.3304  1.8689
 3856TIP3   OH232982   4.740   3.045  15.743  0.2267  0.7550 -0.4282
 3856TIP3    H132983   4.824   3.008  15.715  0.4017  1.2046 -0.5026
 3856TIP3    H232984   4.681   3.027  15.669 -0.6568 -2.5253  0.9054
 3857TIP3   OH232985   6.534   1.984   4.100  0.0458  0.1613  0.0124
 3857TIP3    H132986   6.481   1.909   4.129  0.5606  0.4900  1.8954
 3857TIP3    H232987   6.470   2.044   4.061 -0.6253 -0.4670  0.1171
 3858TIP3   OH232988   2.235   5.075   0.724  0.5916  0.2480  1.0146
 3858TIP3    H132989   2.208   4.985   0.742  2.4779 -0.7418 -0.7479
 3858TIP3    H232990   2.326   5.079   0.753  1.4382  0.6988 -1.4688
 3859TIP3   OH232991   1.996   5.063   1.583  0.3079  0.2309  0.7485
 3859TIP3    H132992   1.965   5.150   1.608 -0.7700 -0.1024  0.6426
 3859TIP3    H232993   2.050   5.035   1.656  2.9928  2.0727 -0.3601
 3860TIP3   OH232994   2.944   2.600  15.452  0.6898  0.5803 -0.8117
 3860TIP3    H132995   2.990   2.533  15.402 -0.3361  1.0511 -2.4616
 3860TIP3    H232996   2.852   2.572  15.453  0.6874  0.5363  0.9238
 3861TIP3   OH232997   6.638   0.527  14.083 -0.1955 -0.4845  0.0949
 3861TIP3    H132998   6.698   0.565  14.147 -0.9327 -0.7667  0.9743
 3861TIP3    H232999   6.692   0.511  14.006  0.8313 -0.6139  0.8205
 3862TIP3   OH233000   1.445   4.203   3.899  0.5380 -0.7238 -0.0668
 3862TIP3    H133001   1.508   4.167   3.961 -0.0957  1.8310  2.2858
 3862TIP3    H233002   1.361   4.198   3.945  0.2132  2.2581 -0.1162
 3863TIP3   OH233003   3.356   1.597   0.882  0.9400  0.1347 -0.6313
 3863TIP3    H133004   3.309   1.647   0.948  0.6682 -1.9594  0.8526
 3863TIP3    H233005   3.357   1.654   0.805  0.3372  2.2180  0.8205
 3864TIP3   OH233006   6.448   6.708   1.626 -0.0676 -0.4176 -0.2316
 3864TIP3    H133007   6.470   6.658   1.705  1.1096  2.6913  1.6031
 3864TIP3    H233008   6.531   6.715   1.579  0.1805  1.0704  0.3753
 3865TIP3   OH233009   1.801   0.733   3.008 -0.6255  0.6820  0.2260
 3865TIP3    H133010   1.729   0.682   2.971 -1.6332  1.6059  0.8628
 3865TIP3    H233011   1.831   0.789   2.937 -0.2996  0.0748 -0.1309
 3866TIP3   OH233012   4.551   0.166  16.505 -0.5818  0.3169  0.4635
 3866TIP3    H133013   4.540   0.074  16.483  0.2579  0.2226  0.4023
 3866TIP3    H233014   4.633   0.169  16.556  1.6295  1.5048 -2.8570
 3867TIP3   OH233015   4.735   5.176  12.572 -0.1875  0.1585 -0.1123
 3867TIP3    H133016   4.673   5.239  12.535  0.3785  0.4384 -0.6025
 3867TIP3    H233017   4.717   5.177  12.666  0.8197  2.1950  0.1117
 3868TIP3   OH233018   5.026   6.325  14.159 -0.1979 -0.5578 -0.5461
 3868TIP3    H133019   5.089   6.364  14.220 -2.0145 -0.5071  1.4180
 3868TIP3    H233020   5.079   6.297  14.084  1.6801  2.5815 -0.5784
 3869TIP3   OH233021   4.421   2.237  14.023 -0.2202  0.0876  0.1344
 3869TIP3    H133022   4.455   2.160  14.070  1.1496  0.8824  0.4805
 3869TIP3    H233023   4.409   2.303  14.091  1.0861  1.0144 -0.5058
 3870TIP3   OH233024   2.271   1.187   2.798  0.0691  0.3021  0.2016
 3870TIP3    H133025   2.207   1.234   2.744  2.5762  2.3496 -1.2307
 3870TIP3    H233026   2.223   1.112   2.833 -3.1213  1.8060 -0.5883
 3871TIP3   OH233027   0.949   6.324  11.218 -0.3546 -0.3478  0.2686
 3871TIP3    H133028   1.017   6.355  11.277 -0.0444 -0.7514  0.1261
 3871TIP3    H233029   0.885   6.282  11.275 -1.4607  1.6882  0.6249
 3872TIP3   OH233030   4.731   1.593   2.208 -0.0316  0.4180 -0.3392
 3872TIP3    H133031   4.669   1.653   2.250  0.5914  0.2117  0.9010
 3872TIP3    H233032   4.675   1.535   2.156 -0.8659  0.4594  0.4737
 3873TIP3   OH233033   2.271   4.864   6.266  0.3914 -0.2639 -0.1479
 3873TIP3    H133034   2.235   4.863   6.355  1.9317 -1.7240  0.5043
 3873TIP3    H233035   2.285   4.957   6.247 -0.3171  0.0932  0.9682
 3874TIP3   OH233036   1.735   4.119   3.676  0.3951 -0.2102  0.0938
 3874TIP3    H133037   1.796   4.090   3.744 -0.1258 -3.7318 -0.7294
 3874TIP3    H233038   1.770   4.080   3.596 -1.4720 -0.0199 -0.8550
 3875TIP3   OH233039   4.246   4.926  11.620 -0.1067 -0.3854 -0.5148
 3875TIP3    H133040   4.160   4.960  11.643  0.0196 -0.6270  0.3351
 3875TIP3    H233041   4.267   4.863  11.689  1.0803  0.2273 -0.2838
 3876TIP3   OH233042   4.161   0.877  16.055  0.1267  0.3118  0.0306
 3876TIP3    H133043   4.150   0.885  15.960  0.3923  0.8910  0.0471
 3876TIP3    H233044   4.193   0.962  16.083 -2.6101  1.1079  1.0364
 3877TIP3   OH233045   6.628   6.415   5.617 -0.5389 -0.5333  0.2032
 3877TIP3    H133046   6.700   6.470   5.648 -0.4778 -0.3705 -0.2343
 3877TIP3    H233047   6.588   6.381   5.698 -0.8633  0.5105  0.4877
 3878TIP3   OH233048   3.670   5.996   3.170 -0.0605  0.8144 -0.0618
 3878TIP3    H133049   3.689   6.078   3.124  1.0950  0.7513  0.2887
 3878TIP3    H233050   3.601   6.020   3.233  0.2098  1.4939 -0.0174
 3879TIP3   OH233051   0.915   3.827   4.753  0.4313  0.1384  0.1799
 3879TIP3    H133052   0.907   3.898   4.816 -2.1955 -0.6815  0.8845
 3879TIP3    H233053   0.896   3.867   4.669  2.1761  0.8749  0.0994
 3880TIP3   OH233054   3.247   5.376   3.518  0.2972 -0.5684 -0.2031
 3880TIP3    H133055   3.204   5.426   3.448  1.0749 -0.3459 -0.5296
 3880TIP3    H233056   3.215   5.417   3.598 -0.4801 -0.7218 -0.4197
 3881TIP3   OH233057   1.764   4.062   3.187  0.3435 -0.0938  0.2764
 3881TIP3    H133058   1.728   4.137   3.139 -0.3820 -0.1338  0.7364
 3881TIP3    H233059   1.697   4.041   3.251  0.8409 -0.7155  0.6013
 3882TIP3   OH233060   0.215   6.248  11.325 -0.1366  0.0438  0.6232
 3882TIP3    H133061   0.242   6.331  11.364 -1.6334  1.4313 -1.0226
 3882TIP3    H233062   0.141   6.273  11.268 -0.2735 -2.3489 -0.3465
 3883TIP3   OH233063   2.054   3.845  11.770  0.2689  0.4203  0.0170
 3883TIP3    H133064   2.052   3.941  11.774  1.0672  0.5450 -1.5261
 3883TIP3    H233065   1.970   3.821  11.732 -1.5696  0.1645  3.7898
 3884TIP3   OH233066   5.641   1.532  13.209 -0.1643 -0.2602  0.0604
 3884TIP3    H133067   5.558   1.510  13.167  1.0955 -2.3913 -1.5173
 3884TIP3    H233068   5.704   1.535  13.138  1.4792 -0.6605  1.4306
 3885TIP3   OH233069   0.835   0.413   1.931 -0.2928  0.5485  0.4263
 3885TIP3    H133070   0.898   0.482   1.952  0.5091 -0.4571  1.4051
 3885TIP3    H233071   0.789   0.396   2.014 -1.5940  0.9866 -0.1781
 3886TIP3   OH233072   2.098   0.649   6.778 -0.3488  0.4064  0.0249
 3886TIP3    H133073   2.163   0.578   6.783 -2.5661 -1.6640  3.3877
 3886TIP3    H233074   2.088   0.664   6.684  2.1572 -1.8881 -0.7649
 3887TIP3   OH233075   1.743   3.078  15.197  0.6732 -0.0693  0.1685
 3887TIP3    H133076   1.659   3.051  15.161  0.5944 -0.0919  0.3663
 3887TIP3    H233077   1.796   3.101  15.121  0.9345 -1.3071 -0.0414
 3888TIP3   OH233078   2.271   3.662   1.936 -0.1596  0.1612  0.3659
 3888TIP3    H133079   2.321   3.738   1.966 -0.9914  0.5439  0.8229
 3888TIP3    H233080   2.185   3.673   1.975 -0.3259 -0.9763  0.3559
 3889TIP3   OH233081   4.012   3.213  13.028 -0.3377 -0.1787 -0.9293
 3889TIP3    H133082   3.984   3.123  13.017  1.6679 -1.0775  0.6209
 3889TIP3    H233083   3.971   3.241  13.110  1.3986 -0.7673  0.1945
 3890TIP3   OH233084   3.180   0.374  13.165 -0.8898  0.6690 -0.8195
 3890TIP3    H133085   3.131   0.356  13.246 -0.9481  1.6376 -0.6368
 3890TIP3    H233086   3.185   0.289  13.122  1.6945 -0.5888  1.6025
 3891TIP3   OH233087   0.693   5.161  16.913  0.2507  0.0856  0.8164
 3891TIP3    H133088   0.691   5.066  16.902 -3.8104 -0.3472  3.4134
 3891TIP3    H233089   0.688   5.195  16.824  2.6064 -1.9710 -0.2425
 3892TIP3   OH233090   4.314   1.720   3.629  0.1311  0.6433  0.0570
 3892TIP3    H133091   4.355   1.637   3.654  2.6034  1.1812 -1.7843
 3892TIP3    H233092   4.234   1.724   3.680  1.8095 -1.0683  3.0710
 3893TIP3   OH233093   4.881   0.374  16.395  0.1922 -0.0231  0.0401
 3893TIP3    H133094   4.819   0.425  16.343  0.8417 -1.0221 -1.8111
 3893TIP3    H233095   4.828   0.304  16.433  0.0001 -0.3243 -0.7620
 3894TIP3   OH233096   2.653   1.158  12.034  0.5899 -0.1416 -1.0133
 3894TIP3    H133097   2.609   1.243  12.035  0.1021 -0.3775 -1.5630
 3894TIP3    H233098   2.616   1.111  12.109  3.5017  1.3793  1.6369
 3895TIP3   OH233099   1.863   6.211  10.865  0.1531  0.4970  1.3527
 3895TIP3    H133100   1.949   6.251  10.873 -0.9876  3.6402 -0.2177
 3895TIP3    H233101   1.871   6.150  10.792  0.9392  1.0903  0.9378
 3896TIP3   OH233102   3.265   0.983   1.903  0.3522  0.4954  0.9237
 3896TIP3    H133103   3.276   0.921   1.974  0.7031 -0.9956 -0.3895
 3896TIP3    H233104   3.313   0.945   1.830 -0.4061  1.7381 -0.2690
 3897TIP3   OH233105   0.430   4.221   1.562  0.8350 -0.0314 -0.2197
 3897TIP3    H133106   0.434   4.170   1.482 -0.8883 -0.2882 -0.1848
 3897TIP3    H233107   0.510   4.274   1.561  0.9850 -0.2358 -1.9557
 3898TIP3   OH233108   3.198   3.812  11.663  0.0975 -0.3364  0.3314
 3898TIP3    H133109   3.208   3.796  11.757 -1.7645 -2.1967  0.2998
 3898TIP3    H233110   3.117   3.863  11.656  0.2761 -0.1250 -0.2485
 3899TIP3   OH233111   6.619   1.644   4.575  0.6430  0.4929 -0.1410
 3899TIP3    H133112   6.634   1.674   4.665  2.5507 -1.1973  0.1975
 3899TIP3    H233113   6.526   1.619   4.574  0.9832 -1.2205  1.9973
 3900TIP3   OH233114   4.473   6.094  12.094 -0.1787  0.4379  0.1953
 3900TIP3    H133115   4.495   6.015  12.046  0.5834 -0.0580  1.3260
 3900TIP3    H233116   4.504   6.166  12.038  1.3465 -0.1411  0.2505
 3901TIP3   OH233117   1.732   3.098  15.853  0.0257 -0.4705 -0.4592
 3901TIP3    H133118   1.798   3.168  15.854 -0.2944 -0.1604 -0.6716
 3901TIP3    H233119   1.778   3.022  15.818  0.7167 -0.7192  0.9052
 3902TIP3   OH233120   6.236   0.690  14.500  0.8201 -0.3343  0.0221
 3902TIP3    H133121   6.219   0.754  14.431  0.2600 -0.7862 -0.2639
 3902TIP3    H233122   6.309   0.727  14.550 -0.2074  1.0661  0.5429
 3903TIP3   OH233123   4.085   5.479   2.618  0.5847  0.0391 -0.0490
 3903TIP3    H133124   4.096   5.397   2.571 -0.0431  0.4798 -0.9811
 3903TIP3    H233125   3.994   5.503   2.605  0.7639  0.9002  0.1932
 3904TIP3   OH233126   6.135   6.758  11.530  0.4940 -0.5387  0.0498
 3904TIP3    H133127   6.054   6.713  11.552  0.7427 -0.8064  0.4159
 3904TIP3    H233128   6.121   6.848  11.559 -0.9431  0.3032 -2.8282
 3905TIP3   OH233129   4.580   6.559   4.160  0.2222 -0.2320 -0.0208
 3905TIP3    H133130   4.503   6.577   4.106  0.1510 -0.5595 -0.0289
 3905TIP3    H233131   4.592   6.639   4.211 -0.2955 -0.2816  0.1907
 3906TIP3   OH233132   4.314   5.402  13.363  0.1590 -0.1430 -0.0306
 3906TIP3    H133133   4.224   5.434  13.354  0.5588  0.8930 -0.5274
 3906TIP3    H233134   4.319   5.370  13.453 -1.2368 -1.9957 -0.5399
 3907TIP3   OH233135   3.677   2.804   1.571 -0.0765 -0.6246  0.5603
 3907TIP3    H133136   3.611   2.736   1.558 -0.7317  0.4435 -2.4871
 3907TIP3    H233137   3.629   2.877   1.610 -0.7490  0.0793 -1.4684
 3908TIP3   OH233138   4.515   1.117   1.132 -0.1435 -0.1144 -0.0291
 3908TIP3    H133139   4.527   1.154   1.045 -0.0078  1.1719  0.5164
 3908TIP3    H233140   4.426   1.082   1.131 -0.1734 -0.0283 -0.6561
 3909TIP3   OH233141   5.805   1.923  14.677 -0.2970 -0.1312  0.4810
 3909TIP3    H133142   5.717   1.897  14.703 -0.4431 -0.1521 -0.0256
 3909TIP3    H233143   5.792   2.000  14.621  0.1038  0.7812  1.6142
 3910TIP3   OH233144   6.664   5.842   5.371  0.2671  0.0376 -0.2229
 3910TIP3    H133145   6.711   5.773   5.418  0.0565 -0.7001 -1.0565
 3910TIP3    H233146   6.616   5.889   5.439 -0.7392 -1.5585  0.2402
 3911TIP3   OH233147   5.660   1.072  17.268  0.7963  0.1168 -0.1468
 3911TIP3    H133148   5.582   1.018  17.257  0.2511  0.6655  0.8519
 3911TIP3    H233149   5.631   1.144  17.325  1.6266  1.1929 -1.0401
 3912TIP3   OH233150   3.544   1.173   1.707 -0.2311  0.5325  0.1154
 3912TIP3    H133151   3.547   1.264   1.676 -0.7351  0.1436 -1.1481
 3912TIP3    H233152   3.576   1.122   1.633 -1.2138 -0.4310  0.3378
 3913TIP3   OH233153   2.987   5.327   0.585  0.8956  0.0730 -0.0235
 3913TIP3    H133154   3.014   5.263   0.519  0.9325 -0.5989  0.6248
 3913TIP3    H233155   3.002   5.412   0.545  3.9574 -0.2319  0.2815
 3914TIP3   OH233156   3.997   5.527   0.494 -0.0457  0.6004  0.0062
 3914TIP3    H133157   4.073   5.491   0.448 -1.0090  0.3504 -1.4821
 3914TIP3    H233158   4.030   5.606   0.537  1.3763 -0.3156  0.6631
 3915TIP3   OH233159   4.059   4.440  16.492 -0.0657 -0.3414  0.0078
 3915TIP3    H133160   4.094   4.528  16.507  0.3561 -0.6704  1.0463
 3915TIP3    H233161   4.013   4.418  16.573 -1.4350 -0.5080 -0.7938
 3916TIP3   OH233162   4.646   2.107   1.030 -0.1534  0.2354  0.1355
 3916TIP3    H133163   4.705   2.152   0.969 -0.0561  0.5613  0.4635
 3916TIP3    H233164   4.611   2.033   0.980  0.3338  0.1905 -0.1441
 3917TIP3   OH233165   2.137   5.726  13.913  0.0799  0.0990 -0.0977
 3917TIP3    H133166   2.128   5.726  14.008 -0.5690 -2.0998 -0.1009
 3917TIP3    H233167   2.074   5.791  13.883  0.5163  1.0393  0.9742
 3918TIP3   OH233168   6.402   4.223   3.299 -0.3066  0.6541  0.1846
 3918TIP3    H133169   6.393   4.317   3.283  0.5770  0.8536  0.7645
 3918TIP3    H233170   6.497   4.206   3.293 -0.6249 -0.6484 -2.2055
 3919TIP3   OH233171   4.904   6.485   4.820 -0.0743  0.1179 -0.3336
 3919TIP3    H133172   4.930   6.563   4.870 -2.0320 -0.2527  1.3677
 3919TIP3    H233173   4.922   6.412   4.878 -2.8943 -0.2963  0.1562
 3920TIP3   OH233174   6.446   3.731  11.934  0.3004  0.8275 -0.0305
 3920TIP3    H133175   6.493   3.696  12.010  1.7856  1.4658 -0.6189
 3920TIP3    H233176   6.438   3.825  11.953  0.3247  0.9206 -0.4752
 3921TIP3   OH233177   5.982   4.569  10.927  0.2028 -0.2849  0.2663
 3921TIP3    H133178   6.072   4.540  10.911  0.4132  0.6838 -0.4065
 3921TIP3    H233179   5.974   4.570  11.023  0.6814 -1.0343  0.3198
 3922TIP3   OH233180   4.295   5.476  14.466 -0.7007  0.1450 -0.7170
 3922TIP3    H133181   4.327   5.551  14.517  0.3437  0.0116 -1.1505
 3922TIP3    H233182   4.280   5.408  14.531 -1.2542  0.5929 -0.3656
 3923TIP3   OH233183   2.328   4.623   6.524  0.0478  0.3034  0.1150
 3923TIP3    H133184   2.359   4.544   6.568 -0.3266  0.1876  0.1707
 3923TIP3    H233185   2.290   4.676   6.594  0.2189  0.4981  0.0649
 3924TIP3   OH233186   6.023   3.261   0.315 -0.1244 -0.5255 -0.1105
 3924TIP3    H133187   5.986   3.317   0.384 -2.0054 -0.3959 -1.1437
 3924TIP3    H233188   6.113   3.246   0.342  0.2891  2.4918  0.5238
 3925TIP3   OH233189   0.514   4.495   1.618  0.1663 -0.0403 -0.2518
 3925TIP3    H133190   0.600   4.493   1.660  0.4684  1.7350 -0.6727
 3925TIP3    H233191   0.453   4.464   1.685  1.0563 -0.7267  0.2571
 3926TIP3   OH233192   5.087   4.108  15.454  0.2403  0.2839 -0.6313
 3926TIP3    H133193   5.081   4.152  15.539  2.3821 -0.4913 -0.0237
 3926TIP3    H233194   5.054   4.173  15.391 -2.1491  0.5843  0.8106
 3927TIP3   OH233195   4.646   3.372   2.446  0.5205 -0.4878 -0.0577
 3927TIP3    H133196   4.652   3.297   2.387  1.0164 -1.4666  1.1868
 3927TIP3    H233197   4.705   3.438   2.408 -0.5004 -0.3985 -1.5752
 3928TIP3   OH233198   2.047   4.730   2.072  0.2092  0.4959  0.6302
 3928TIP3    H133199   2.039   4.637   2.054 -2.0457  0.8611 -0.5423
 3928TIP3    H233200   2.138   4.751   2.050  0.0268 -0.8920 -1.7660
 3929TIP3   OH233201   3.776   1.605  15.744  0.0459 -0.0598  0.1284
 3929TIP3    H133202   3.796   1.694  15.772 -0.7833  0.2988 -0.3758
 3929TIP3    H233203   3.681   1.604  15.733  0.2609 -0.2666 -2.3281
 3930TIP3   OH233204   1.980   4.270   3.879 -0.6693  0.3303 -0.4169
 3930TIP3    H133205   1.948   4.324   3.807  0.2492  0.7733 -0.5114
 3930TIP3    H233206   2.073   4.257   3.860 -0.1977  1.1785  1.1297
 3931TIP3   OH233207   1.225   0.634  11.480 -0.1111  0.3910 -0.2121
 3931TIP3    H133208   1.273   0.578  11.541 -0.1312 -0.6146 -1.0861
 3931TIP3    H233209   1.263   0.614  11.394 -0.1334  1.7200 -0.5513
 3932TIP3   OH233210   4.765   3.676  12.508  0.5698 -0.8946 -0.2952
 3932TIP3    H133211   4.795   3.764  12.531 -1.5282 -0.4134  0.8367
 3932TIP3    H233212   4.684   3.690  12.460  0.0435 -2.2205  0.1627
 3933TIP3   OH233213   3.681   0.622   2.977 -0.4979 -0.2306 -0.3219
 3933TIP3    H133214   3.738   0.677   2.923  0.4289 -1.6063 -0.7947
 3933TIP3    H233215   3.606   0.603   2.921 -2.7281  3.4503  1.0387
 3934TIP3   OH233216   4.163   0.298   0.116  0.3981  0.2497 -0.5856
 3934TIP3    H133217   4.091   0.361   0.117  0.5246  0.4019  0.0709
 3934TIP3    H233218   4.212   0.318   0.036  0.8034  1.4262 -0.0753
 3935TIP3   OH233219   0.648   2.613   3.953  0.0617  0.3248  0.0430
 3935TIP3    H133220   0.709   2.637   3.883  0.0808  0.0311 -0.0436
 3935TIP3    H233221   0.680   2.529   3.985 -0.5343 -0.0326 -0.2806
 3936TIP3   OH233222   0.691   5.011  13.542  0.4018 -0.4217  0.2834
 3936TIP3    H133223   0.662   5.019  13.633 -1.5432  0.4097 -0.3732
 3936TIP3    H233224   0.787   5.017  13.547  0.4054 -1.3537  2.3517
 3937TIP3   OH233225   1.445   5.430  16.802 -0.4193 -0.1120  0.3220
 3937TIP3    H133226   1.417   5.486  16.731 -3.7801 -1.3526  0.5160
 3937TIP3    H233227   1.437   5.484  16.881  0.4258  0.3484  0.1059
 3938TIP3   OH233228   4.689   3.071  12.437 -0.1795 -0.0265  0.1433
 3938TIP3    H133229   4.641   3.142  12.481 -0.9399 -1.3375  1.5265
 3938TIP3    H233230   4.653   3.068  12.349 -2.7533 -0.9856  1.1459
 3939TIP3   OH233231   5.637   0.294   1.374  0.0944 -0.1529 -0.1119
 3939TIP3    H133232   5.649   0.383   1.341  0.5315  0.8041  2.3717
 3939TIP3    H233233   5.723   0.270   1.409  0.5085 -2.3641 -2.4190
 3940TIP3   OH233234   6.197   5.870   1.006  0.0665  0.3011  0.1401
 3940TIP3    H133235   6.273   5.816   1.027 -0.2611 -0.3251 -0.2565
 3940TIP3    H233236   6.122   5.814   1.023 -0.2523  0.3374 -1.0584
 3941TIP3   OH233237   4.709   0.263   0.765 -0.3896  0.2294  0.5356
 3941TIP3    H133238   4.788   0.314   0.787  1.0219 -1.2954 -0.7486
 3941TIP3    H233239   4.650   0.278   0.839  0.9671  1.6620  1.4061
 3942TIP3   OH233240   2.615   2.441   1.635  0.4037  0.2794  0.2152
 3942TIP3    H133241   2.566   2.515   1.670 -0.2022 -0.0911  0.1480
 3942TIP3    H233242   2.604   2.447   1.540  1.1402  0.6470  0.1432
 3943TIP3   OH233243   2.607   4.614   1.908 -0.3415 -0.3430 -0.3987
 3943TIP3    H133244   2.692   4.599   1.868  0.4746  1.0257  0.6971
 3943TIP3    H233245   2.611   4.566   1.991 -0.3918  0.1781 -0.0867
 3944TIP3   OH233246   5.755   1.611   4.995 -0.2734 -0.1942  0.1449
 3944TIP3    H133247   5.741   1.516   4.998 -1.0103 -0.2070 -1.9448
 3944TIP3    H233248   5.708   1.640   4.916 -1.9045  2.2348  1.8737
 3945TIP3   OH233249   0.522   1.851   5.739 -0.4680  0.0362 -0.2629
 3945TIP3    H133250   0.486   1.903   5.667  0.1584 -1.1304 -1.4627
 3945TIP3    H233251   0.599   1.900   5.767 -1.9066  1.6538  1.1722
 3946TIP3   OH233252   5.046   0.673   0.237  0.4228 -0.3126  0.4726
 3946TIP3    H133253   5.135   0.640   0.252  0.2540 -0.5221  1.0580
 3946TIP3    H233254   4.989   0.598   0.258  0.1162 -0.2464 -0.1093
 3947TIP3   OH233255   0.326   5.169  14.601  0.0554  0.0871  0.2226
 3947TIP3    H133256   0.379   5.143  14.526 -0.2096 -0.5311  0.2486
 3947TIP3    H233257   0.278   5.246  14.570 -1.1925 -1.0391 -0.7640
 3948TIP3   OH233258   1.851   5.514   4.751  0.1222  0.5169  0.7679
 3948TIP3    H133259   1.756   5.520   4.739  0.3020 -0.2219 -1.7033
 3948TIP3    H233260   1.883   5.602   4.731  0.0414  0.4070  0.1134
 3949TIP3   OH233261   2.166   6.165  15.359 -0.1153  0.0955  0.5034
 3949TIP3    H133262   2.169   6.083  15.408 -0.8513  0.8712  1.8885
 3949TIP3    H233263   2.148   6.138  15.269 -0.2079 -1.2721  0.9124
 3950TIP3   OH233264   0.184   5.751   0.068  0.4741  0.3159 -0.4193
 3950TIP3    H133265   0.145   5.665   0.052  0.5482 -0.5787  3.2949
 3950TIP3    H233266   0.116   5.800   0.113  0.9297  1.7371 -1.2265
 3951TIP3   OH233267   5.760   4.436  11.198  0.5793 -0.0632  0.5487
 3951TIP3    H133268   5.706   4.358  11.186 -0.1699  0.5104  0.0335
 3951TIP3    H233269   5.824   4.412  11.265  0.1407 -1.0013  0.6413
 3952TIP3   OH233270   6.214   3.615  12.968 -0.6996 -0.2826 -0.2678
 3952TIP3    H133271   6.136   3.668  12.984 -0.1508  0.4382  0.0750
 3952TIP3    H233272   6.252   3.601  13.055  0.9000  1.4873 -0.5988
 3953TIP3   OH233273   3.749   4.179  13.360  0.1105 -0.3629 -0.5050
 3953TIP3    H133274   3.772   4.239  13.431 -0.0144 -0.6425 -0.2292
 3953TIP3    H233275   3.730   4.236  13.286 -0.1090 -0.0591 -0.2143
 3954TIP3   OH233276   3.997   2.578  12.786  0.0388  0.2615 -0.3332
 3954TIP3    H133277   3.999   2.508  12.722 -0.2210 -1.0690  1.0611
 3954TIP3    H233278   4.076   2.566  12.838 -0.0411  0.9730 -0.0380
 3955TIP3   OH233279   4.556   2.535   0.024  0.0221 -0.2505  0.5752
 3955TIP3    H133280   4.471   2.570  -0.004  0.6879  1.4158  0.4876
 3955TIP3    H233281   4.540   2.442   0.038 -2.4211  0.3571  2.7951
 3956TIP3   OH233282   4.755   2.872  14.987 -0.2417 -0.7398 -0.2537
 3956TIP3    H133283   4.780   2.866  14.895  0.1661 -1.3970 -0.1035
 3956TIP3    H233284   4.835   2.854  15.036 -0.3714 -0.0276  0.2347
 3957TIP3   OH233285   0.070   0.849  15.266  0.1052 -0.8752 -0.6962
 3957TIP3    H133286   0.063   0.781  15.334 -1.3483  0.0910  0.2001
 3957TIP3    H233287  -0.012   0.899  15.275  0.7521  0.4579 -1.8935
 3958TIP3   OH233288   4.808   6.340   6.637 -0.0761  0.0754 -0.7183
 3958TIP3    H133289   4.750   6.343   6.561 -0.2006 -0.6042 -0.6591
 3958TIP3    H233290   4.759   6.291   6.703  0.8044 -1.0636 -0.8858
 3959TIP3   OH233291   2.764   5.894   5.238  0.2993  0.2123 -0.2907
 3959TIP3    H133292   2.732   5.892   5.328  1.9000 -0.5740  0.2899
 3959TIP3    H233293   2.685   5.896   5.185 -0.7344 -1.7528  1.0722
 3960TIP3   OH233294   5.653   5.829   3.156  0.2094  0.3387 -0.1642
 3960TIP3    H133295   5.677   5.748   3.200  1.8762  0.6109 -0.4833
 3960TIP3    H233296   5.563   5.846   3.183  0.0225 -1.3096  0.3426
 3961TIP3   OH233297   0.324   6.736  15.680 -0.5670 -0.2065  0.1620
 3961TIP3    H133298   0.254   6.730  15.615 -0.4116  0.0306 -0.0294
 3961TIP3    H233299   0.404   6.718  15.631 -0.3526  0.8535  0.0959
 3962TIP3   OH233300   5.723   4.110   4.874 -0.6274  0.1912  0.4684
 3962TIP3    H133301   5.666   4.061   4.933 -0.5751  0.7141  0.9541
 3962TIP3    H233302   5.791   4.146   4.930 -0.1202  0.0253 -0.0299
 3963TIP3   OH233303   6.216   0.978  11.805  0.0782 -0.2544 -0.4306
 3963TIP3    H133304   6.130   0.982  11.764 -0.7328 -0.8661  1.1132
 3963TIP3    H233305   6.245   0.888  11.792  0.6197  0.0218 -1.1813
 3964TIP3   OH233306   3.317   6.730  14.049 -0.3026  0.1385  0.7280
 3964TIP3    H133307   3.336   6.675  14.125 -1.6420 -0.2003  0.8612
 3964TIP3    H233308   3.373   6.806  14.059 -1.8375  1.0602  3.1703
 3965TIP3   OH233309   6.220   3.333   4.309  0.3946  0.2533 -0.0587
 3965TIP3    H133310   6.311   3.352   4.329  0.8950  1.1558 -2.7654
 3965TIP3    H233311   6.177   3.419   4.312  0.0184  0.0819 -0.5066
 3966TIP3   OH233312   3.510   1.279   2.479  0.1036 -0.3295 -0.2574
 3966TIP3    H133313   3.572   1.208   2.492  2.5172  1.7528  0.3216
 3966TIP3    H233314   3.497   1.282   2.384  1.9330 -0.0312 -0.5377
 3967TIP3   OH233315   2.072   1.398   2.181 -0.5574 -0.3054 -0.0273
 3967TIP3    H133316   2.028   1.451   2.247 -0.1426 -0.1459  0.1259
 3967TIP3    H233317   2.020   1.410   2.101  0.6696  2.0337 -0.5698
 3968TIP3   OH233318   3.331   2.700  14.069 -0.3974 -0.3370 -0.3716
 3968TIP3    H133319   3.241   2.701  14.038 -0.0419 -0.7264 -1.4728
 3968TIP3    H233320   3.356   2.607  14.065 -0.1641 -0.3303  0.6080
 3969TIP3   OH233321   1.147   6.268   0.127  0.0068  0.2843 -0.3052
 3969TIP3    H133322   1.155   6.227   0.214  2.0815 -1.4812 -1.2084
 3969TIP3    H233323   1.076   6.221   0.085 -1.8154  1.9491  0.7691
 3970TIP3   OH233324   3.570   1.804  12.045  1.0008 -0.4745 -0.2289
 3970TIP3    H133325   3.534   1.892  12.036 -0.1467 -1.0323 -1.5645
 3970TIP3    H233326   3.644   1.814  12.105  0.0491  1.1433  0.7665
 3971TIP3   OH233327   4.415   0.451   1.489  0.4510 -0.0081  0.7010
 3971TIP3    H133328   4.473   0.510   1.536  0.7774  0.0548  0.2235
 3971TIP3    H233329   4.329   0.467   1.527  0.5609  0.6626  0.6723
 3972TIP3   OH233330   5.292   4.440   2.219  0.6479 -0.0056  0.1008
 3972TIP3    H133331   5.237   4.402   2.287  0.4590 -0.1623 -0.1355
 3972TIP3    H233332   5.376   4.394   2.227  0.5113 -0.2774 -0.0018
 3973TIP3   OH233333   2.335   0.296  11.861  0.5460  0.0224  0.0249
 3973TIP3    H133334   2.360   0.314  11.770  0.9320 -1.1354 -0.1093
 3973TIP3    H233335   2.273   0.366  11.883  3.4734  2.7968  0.2348
 3974TIP3   OH233336   0.349   5.744  11.524  0.0698  0.2955 -0.1174
 3974TIP3    H133337   0.344   5.826  11.574  1.9490  0.4296 -0.0686
 3974TIP3    H233338   0.399   5.686  11.581  1.0407 -0.0111 -1.2625
 3975TIP3   OH233339   3.933   5.577   3.262  0.1756  0.5271 -0.0104
 3975TIP3    H133340   3.963   5.575   3.171  1.0671  2.4110  0.2009
 3975TIP3    H233341   3.839   5.591   3.255 -0.3761 -2.6246 -0.6302
 3976TIP3   OH233342   6.566   6.223  12.153  0.6502  0.5987 -0.6898
 3976TIP3    H133343   6.488   6.236  12.208  1.8142  0.3337  1.1332
 3976TIP3    H233344   6.548   6.273  12.074 -1.0294  1.2222  0.0346
 3977TIP3   OH233345   2.501   2.844  16.476  0.0817 -0.4748 -0.1902
 3977TIP3    H133346   2.525   2.936  16.489  0.2585 -0.3853 -1.0738
 3977TIP3    H233347   2.501   2.806  16.564  2.0686 -0.1395 -0.0031
 3978TIP3   OH233348   2.721   4.738   4.210 -0.0620  0.1887 -0.4550
 3978TIP3    H133349   2.785   4.680   4.169  1.6508  0.8883  1.0824
 3978TIP3    H233350   2.727   4.718   4.303 -1.1428  1.2149 -0.1435
 3979TIP3   OH233351   3.286   6.419  16.237 -0.1196 -0.4003  0.6809
 3979TIP3    H133352   3.270   6.496  16.182 -0.4850 -2.0711 -1.7212
 3979TIP3    H233353   3.372   6.388  16.209 -0.7855 -1.9063  0.2167
 3980TIP3   OH233354   3.681   3.472  13.208  0.0158  0.1412  0.0960
 3980TIP3    H133355   3.653   3.391  13.165 -0.2850 -0.0268  0.6061
 3980TIP3    H233356   3.646   3.542  13.153  2.8760  0.0225 -2.1862
 3981TIP3   OH233357   0.795   3.119  12.608  0.6452  0.0242  0.1920
 3981TIP3    H133358   0.744   3.039  12.618  0.6047  0.2276  1.8691
 3981TIP3    H233359   0.852   3.102  12.533  1.7387 -2.2100  1.4217
 3982TIP3   OH233360   4.975   1.940   6.217 -0.6242 -0.3386 -0.6676
 3982TIP3    H133361   5.047   1.881   6.241  0.6100  1.6051  0.7534
 3982TIP3    H233362   4.919   1.888   6.160  2.0906 -1.8543 -2.1598
 3983TIP3   OH233363   0.043   0.307  13.582 -0.6505 -0.7472  0.1920
 3983TIP3    H133364  -0.048   0.305  13.551 -0.4390  0.9444 -0.6450
 3983TIP3    H233365   0.094   0.279  13.506 -0.3867 -0.4283  0.2515
 3984TIP3   OH233366   1.378   4.660  13.299 -0.0658 -0.0389 -0.2796
 3984TIP3    H133367   1.412   4.624  13.381  1.2620 -0.2446 -0.8973
 3984TIP3    H233368   1.348   4.748  13.322 -1.0304 -0.6105  0.7165
 3985TIP3   OH233369   5.581   1.595   4.305 -0.4268  0.2166  0.0139
 3985TIP3    H133370   5.649   1.641   4.354 -0.5673  0.6578 -0.1994
 3985TIP3    H233371   5.608   1.503   4.307  0.2855  0.4091 -0.2421
 3986TIP3   OH233372   6.691   3.407   5.917  0.3418  0.7101 -0.4449
 3986TIP3    H133373   6.726   3.489   5.882  3.0333  0.1377  0.7117
 3986TIP3    H233374   6.672   3.426   6.009  2.2178 -0.2607  0.1771
 3987TIP3   OH233375   0.726   3.882  13.806  0.1438 -0.6152  0.0706
 3987TIP3    H133376   0.651   3.824  13.794  1.2552 -1.9141 -0.9065
 3987TIP3    H233377   0.723   3.941  13.731 -1.3508  1.0841  1.3939
 3988TIP3   OH233378   5.523   4.099  15.427 -0.0283 -0.0973 -0.2454
 3988TIP3    H133379   5.492   4.082  15.516 -1.0536  1.3810 -0.2920
 3988TIP3    H233380   5.446   4.086  15.372  0.3120  0.1595 -0.7890
 3989TIP3   OH233381   3.603   4.040  11.888 -0.2290  0.1238  0.4696
 3989TIP3    H133382   3.666   4.020  11.820 -1.4399  0.0404 -0.6632
 3989TIP3    H233383   3.522   4.059  11.841 -1.0852  0.1144  1.8849
 3990TIP3   OH233384   2.636   1.632   3.133  0.3475  0.1011  0.3022
 3990TIP3    H133385   2.575   1.692   3.091  0.3433 -0.3733 -0.3915
 3990TIP3    H233386   2.698   1.688   3.178 -1.0543  0.5806  1.6925
 3991TIP3   OH233387   1.733   3.913   4.573  0.3847  0.2196  0.0003
 3991TIP3    H133388   1.699   3.983   4.517 -0.0772  0.2338  0.2954
 3991TIP3    H233389   1.656   3.866   4.603  0.3274  1.8528  2.8001
 3992TIP3   OH233390   0.744   2.551  12.118  0.5532 -0.0244  0.8241
 3992TIP3    H133391   0.760   2.457  12.133  1.2873  0.4390  3.4491
 3992TIP3    H233392   0.813   2.595  12.167  0.6860  1.9377 -1.0061
 3993TIP3   OH233393   0.835   0.508   5.900  0.5203 -0.9753 -0.4144
 3993TIP3    H133394   0.849   0.560   5.979  0.2089 -1.7781  0.1814
 3993TIP3    H233395   0.918   0.512   5.853 -0.1017  1.7851 -1.4619
 3994TIP3   OH233396   2.554   3.409  13.421  0.2102  0.1383  0.4763
 3994TIP3    H133397   2.592   3.328  13.388 -1.0218  0.3630 -1.6252
 3994TIP3    H233398   2.464   3.410  13.388 -0.6318  1.1771  2.5671
 3995TIP3   OH233399   3.449   3.160  14.368 -0.0915 -0.2764 -0.2442
 3995TIP3    H133400   3.437   3.155  14.273 -0.6665  0.0259 -0.1909
 3995TIP3    H233401   3.384   3.099  14.403  0.9342 -1.3318 -0.0791
 3996TIP3   OH233402   6.027   2.145  17.238 -0.2665 -0.1650  0.2872
 3996TIP3    H133403   5.940   2.141  17.277 -1.1276 -1.8245 -1.6378
 3996TIP3    H233404   6.016   2.107  17.150  1.6502  2.8209 -1.4213
 3997TIP3   OH233405   4.886   5.766  15.712 -0.3101  0.3451  0.3424
 3997TIP3    H133406   4.903   5.851  15.672  0.8182 -0.3345 -0.7040
 3997TIP3    H233407   4.942   5.705  15.663 -1.0248 -0.9839  1.1192
 3998TIP3   OH233408   0.304   4.386   2.817  0.5381  0.1113 -0.4494
 3998TIP3    H133409   0.305   4.325   2.744  0.6496  0.2098 -0.5311
 3998TIP3    H233410   0.279   4.470   2.778 -1.0232 -0.1649 -0.1136
 3999TIP3   OH233411   1.212   1.444   1.336 -0.6931 -0.3394 -0.0145
 3999TIP3    H133412   1.268   1.400   1.272 -1.5743  0.6324 -1.5084
 3999TIP3    H233413   1.125   1.443   1.297 -1.0885  1.0448  0.7584
 4000TIP3   OH233414   4.763   2.075  16.597 -0.6098  0.0832  0.7635
 4000TIP3    H133415   4.726   2.161  16.577 -1.6386 -0.2781  1.0473
 4000TIP3    H233416   4.736   2.058  16.687 -2.8419 -1.7258 -0.1425
 4001TIP3   OH233417   0.596   1.086   2.288 -0.1851 -0.0061  0.1784
 4001TIP3    H133418   0.575   1.066   2.379 -1.0339 -0.1996 -0.0492
 4001TIP3    H233419   0.686   1.055   2.276 -0.5659 -1.3105  0.5577
 4002TIP3   OH233420   0.834   0.742  11.726  0.5603  0.2912  0.3772
 4002TIP3    H133421   0.927   0.763  11.720  0.6196  0.6651  1.9885
 4002TIP3    H233422   0.790   0.811  11.677  1.0895  0.6548  0.4087
 4003TIP3   OH233423   5.424   6.048  12.065  0.2797 -0.1475 -0.2208
 4003TIP3    H133424   5.356   6.063  12.131  0.7801  0.2679  0.2103
 4003TIP3    H233425   5.378   6.005  11.993 -0.0722 -1.6200  0.8320
 4004TIP3   OH233426   5.046   2.794  12.595  0.2340 -0.1219 -0.2604
 4004TIP3    H133427   5.131   2.774  12.634 -0.3005 -0.7136  0.6316
 4004TIP3    H233428   5.042   2.890  12.595  0.4985 -0.0996  0.6071
 4005TIP3   OH233429   1.270   3.737  10.440  0.6857 -0.4387 -0.1552
 4005TIP3    H133430   1.337   3.751  10.373  1.4036 -1.5558  0.2916
 4005TIP3    H233431   1.189   3.724  10.390  1.2224 -1.3355 -0.8271
 4006TIP3   OH233432   6.328   3.334  17.128 -0.4626 -0.3225 -0.2890
 4006TIP3    H133433   6.320   3.268  17.059 -0.1097 -0.2331 -0.4192
 4006TIP3    H233434   6.246   3.384  17.124 -0.9223 -1.0264  0.1023
 4007TIP3   OH233435   6.048   5.023  11.801 -0.1532 -0.2834  0.3538
 4007TIP3    H133436   6.035   5.085  11.729 -0.8603  0.1609  0.8561
 4007TIP3    H233437   6.015   4.940  11.767  0.8587 -0.4214 -0.3447
 4008TIP3   OH233438   3.784   2.760   2.143  0.4290  0.2132  0.0277
 4008TIP3    H133439   3.857   2.763   2.081  0.1301 -0.6855 -0.3763
 4008TIP3    H233440   3.761   2.852   2.157  1.9341  0.5351  0.5273
 4009TIP3   OH233441   6.327   2.955   2.079 -0.1056 -0.2503  0.2941
 4009TIP3    H133442   6.350   2.985   1.991 -0.4753  2.8791  1.1311
 4009TIP3    H233443   6.241   2.915   2.068 -0.1191  0.0216 -0.7828
 4010TIP3   OH233444   6.435   3.527  16.786 -0.3444 -0.4163  0.0224
 4010TIP3    H133445   6.412   3.577  16.865 -0.8666  0.8515 -0.8933
 4010TIP3    H233446   6.416   3.436  16.809  0.6991 -0.2314  1.7651
 4011TIP3   OH233447   1.142   4.141  12.661  0.1586 -0.0658  0.0839
 4011TIP3    H133448   1.156   4.225  12.705  2.5936 -0.5419  0.3469
 4011TIP3    H233449   1.113   4.083  12.731 -0.6787  0.3257  0.0743
 4012TIP3   OH233450   6.115   4.336   1.911 -0.3063  0.2167 -0.1008
 4012TIP3    H133451   6.209   4.332   1.926 -0.2354  1.1856 -0.1939
 4012TIP3    H233452   6.104   4.321   1.817 -0.0008  2.5285 -0.5724
 4013TIP3   OH233453   0.983   2.533  12.958  0.0374 -0.3877 -0.1495
 4013TIP3    H133454   0.997   2.447  12.918  0.8536  1.2749 -3.7841
 4013TIP3    H233455   0.940   2.585  12.891  0.1910  2.3059  1.6657
 4014TIP3   OH233456   5.266   1.087  11.854  0.4334  0.3222  0.2516
 4014TIP3    H133457   5.245   1.149  11.784 -0.9385 -1.1757 -0.7331
 4014TIP3    H233458   5.211   1.011  11.836  0.0525 -0.1533  2.9548
 4015TIP3   OH233459   2.312   4.686   1.445 -0.0314  0.6228 -0.9114
 4015TIP3    H133460   2.350   4.764   1.485  0.0992  1.6782 -2.9431
 4015TIP3    H233461   2.235   4.667   1.499 -0.2968  2.4061 -0.5859
 4016TIP3   OH233462   1.966   5.155  13.935  0.0403 -0.1504  0.1667
 4016TIP3    H133463   1.962   5.186  14.026 -0.4781  0.7487 -0.1444
 4016TIP3    H233464   2.038   5.205  13.896  1.0640 -1.4236  0.3933
 4017TIP3   OH233465   2.460   0.369  14.622  0.2526 -0.3687  0.1775
 4017TIP3    H133466   2.428   0.286  14.586 -0.8062 -0.3065  0.9137
 4017TIP3    H233467   2.498   0.345  14.707  3.8796 -0.7111 -1.3579
 4018TIP3   OH233468   2.261   6.484   5.956 -0.2780  0.3342 -0.5003
 4018TIP3    H133469   2.203   6.418   5.919 -0.3348 -0.3234  0.7305
 4018TIP3    H233470   2.335   6.435   5.992  0.6324  1.0899 -1.2532
 4019TIP3   OH233471   5.436   1.178  13.285 -0.3399  0.2625  0.3498
 4019TIP3    H133472   5.473   1.241  13.348  0.6760 -0.7466  0.8074
 4019TIP3    H233473   5.361   1.140  13.331  0.8854 -1.0787  1.3626
 4020TIP3   OH233474   5.897   3.707   1.609 -0.0679  0.1635 -0.0085
 4020TIP3    H133475   5.824   3.716   1.671  1.4971  0.3923  1.8912
 4020TIP3    H233476   5.863   3.648   1.541 -1.4355 -1.2486  1.7847
 4021TIP3   OH233477   4.970   3.534  14.161 -0.4372 -0.6539 -0.5586
 4021TIP3    H133478   4.933   3.536  14.249 -1.9233 -2.7969 -1.0371
 4021TIP3    H233479   5.063   3.518  14.175 -0.3087  0.9228  0.6309
 4022TIP3   OH233480   4.544   4.053   4.919  0.0622  0.1939  0.3958
 4022TIP3    H133481   4.452   4.078   4.918 -0.1129 -0.3221  1.5615
 4022TIP3    H233482   4.572   4.069   5.009  1.0244  0.0340  0.1372
 4023TIP3   OH233483   3.488   4.151  14.296 -0.0017 -0.1382 -0.7028
 4023TIP3    H133484   3.439   4.131  14.216 -0.5556 -1.6728 -0.0107
 4023TIP3    H233485   3.453   4.235  14.325 -1.1805 -0.5028 -1.0310
 4024TIP3   OH233486   5.808   6.654  15.556 -0.0076 -0.3004  0.4193
 4024TIP3    H133487   5.817   6.558  15.555 -0.6522 -0.4487 -2.8066
 4024TIP3    H233488   5.840   6.681  15.470 -1.6126  2.1945  0.5302
 4025TIP3   OH233489   5.385   2.217   4.781 -0.0690 -0.0578  0.8657
 4025TIP3    H133490   5.380   2.303   4.739 -0.7898 -0.8315 -0.6775
 4025TIP3    H233491   5.450   2.230   4.851  0.2477  1.5961  0.3341
 4026TIP3   OH233492   3.670   0.441   3.678 -0.4092  0.4917 -0.1959
 4026TIP3    H133493   3.727   0.484   3.614 -1.1568  0.3885 -0.9410
 4026TIP3    H233494   3.725   0.433   3.756  1.0660 -0.8156 -1.2965
 4027TIP3   OH233495   5.531   6.451  15.893  0.6259 -0.4314 -0.1181
 4027TIP3    H133496   5.599   6.407  15.842  0.9567  1.7146 -1.6843
 4027TIP3    H233497   5.462   6.469  15.830 -0.7053 -1.1329  1.0960
 4028TIP3   OH233498   5.578   0.093   2.385 -0.1731 -0.2152 -0.0407
 4028TIP3    H133499   5.613   0.047   2.461 -1.3266 -0.4289  0.3749
 4028TIP3    H233500   5.497   0.048   2.364 -0.2114  0.2574 -0.9991
 4029TIP3   OH233501   0.717   5.854   1.541 -0.3561 -0.7117 -0.1980
 4029TIP3    H133502   0.649   5.898   1.489  1.2047 -0.4762 -2.1763
 4029TIP3    H233503   0.724   5.767   1.502  1.9320 -0.0120 -1.5763
 4030TIP3   OH233504   3.866   4.580   4.776  0.2043  0.0520 -0.6534
 4030TIP3    H133505   3.883   4.551   4.866 -2.2436  1.2865  0.3178
 4030TIP3    H233506   3.920   4.524   4.721  2.8429  0.1508  1.6416
 4031TIP3   OH233507   0.450   0.473   4.592  0.3223 -0.1569 -0.5439
 4031TIP3    H133508   0.392   0.547   4.578  3.9212  3.2568  0.6182
 4031TIP3    H233509   0.416   0.429   4.669 -0.9844  1.3947 -0.1980
 4032TIP3   OH233510   5.619   2.948   2.882  0.1054 -0.1877 -0.4971
 4032TIP3    H133511   5.623   2.853   2.880  1.6925 -0.1523  0.2014
 4032TIP3    H233512   5.567   2.971   2.805 -1.3641 -1.6439  0.0066
 4033TIP3   OH233513   0.572   6.571   2.326 -0.0191 -0.4261 -0.7671
 4033TIP3    H133514   0.546   6.580   2.418  2.4196  0.3605 -0.0822
 4033TIP3    H233515   0.504   6.517   2.287 -0.2624 -2.2512  1.9286
 4034TIP3   OH233516   3.052   4.900   6.655 -0.0754 -0.1355  0.3918
 4034TIP3    H133517   2.988   4.971   6.644 -0.3739 -0.6057 -1.1967
 4034TIP3    H233518   2.998   4.821   6.657  0.3671 -0.4318  0.6634
 4035TIP3   OH233519   3.015   1.756   0.874 -0.3346  0.7571 -0.0228
 4035TIP3    H133520   3.111   1.752   0.871 -0.1753  0.2485  2.8439
 4035TIP3    H233521   2.987   1.667   0.852 -0.1783  0.9251 -0.9420
 4036TIP3   OH233522   6.380   0.258  12.179  0.5489 -0.0197 -0.2262
 4036TIP3    H133523   6.325   0.248  12.257 -0.7758  1.6340 -0.8907
 4036TIP3    H233524   6.366   0.177  12.130 -0.3495 -0.1398  0.2037
 4037TIP3   OH233525   2.561   4.166   3.209  0.0035 -0.2971  0.0485
 4037TIP3    H133526   2.577   4.252   3.248  1.1579 -0.6476  0.3805
 4037TIP3    H233527   2.576   4.180   3.115 -1.1346  0.1595 -0.0811
 4038TIP3   OH233528   2.469   1.996  11.519 -0.0177 -0.4344 -0.5371
 4038TIP3    H133529   2.480   1.963  11.608  0.5070 -1.5047 -0.9867
 4038TIP3    H233530   2.509   2.084  11.521 -0.0649 -0.4308  0.2913
 4039TIP3   OH233531   3.993   0.604  10.655 -0.7043 -0.3542  0.6692
 4039TIP3    H133532   3.984   0.682  10.602 -0.6541  0.7560  2.2199
 4039TIP3    H233533   4.056   0.549  10.609 -0.2514  0.8097 -0.1121
 4040TIP3   OH233534   6.284   0.921  15.596  0.0581  0.1982 -0.4232
 4040TIP3    H133535   6.366   0.877  15.572  0.2224  0.4838 -0.3912
 4040TIP3    H233536   6.283   1.000  15.542 -0.5872 -0.2013 -1.0071
 4041TIP3   OH233537   3.513   6.470   1.839  0.4131  0.2436  0.2244
 4041TIP3    H133538   3.576   6.448   1.907 -0.0670  0.5897  0.8013
 4041TIP3    H233539   3.440   6.410   1.854 -0.0424  0.8617  0.5406
 4042TIP3   OH233540   0.281   3.165   2.081 -0.0012  0.7637 -0.0429
 4042TIP3    H133541   0.251   3.236   2.137  0.9045  0.5583  0.7284
 4042TIP3    H233542   0.359   3.199   2.038 -0.8366  1.0203 -1.4285
 4043TIP3   OH233543   4.690   0.528  16.300  1.1396 -0.0482  0.3140
 4043TIP3    H133544   4.601   0.559  16.284  0.8527 -0.9047  0.1787
 4043TIP3    H233545   4.741   0.607  16.313  0.3817  0.4624  0.2595
 4044TIP3   OH233546   1.949   2.386  11.625  0.2338  0.6688 -0.3469
 4044TIP3    H133547   1.995   2.379  11.542 -1.5817  0.2109 -1.3650
 4044TIP3    H233548   1.870   2.334  11.614 -0.2542  0.9075  1.5426
 4045TIP3   OH233549   2.599   2.473   6.087 -0.1291  0.0728 -0.3256
 4045TIP3    H133550   2.669   2.461   6.022  0.3199  0.0230  0.1657
 4045TIP3    H233551   2.623   2.416   6.160 -0.3155  0.5808  0.1424
 4046TIP3   OH233552   3.796   5.857   0.240 -0.5443  0.5515  0.8691
 4046TIP3    H133553   3.786   5.873   0.334  0.2012 -2.4481  1.5639
 4046TIP3    H233554   3.890   5.847   0.227 -0.7442 -0.6039  0.1322
 4047TIP3   OH233555   1.164   1.999  17.114 -0.1398  0.1572 -0.1080
 4047TIP3    H133556   1.247   2.046  17.127  0.8967 -1.7953  0.8076
 4047TIP3    H233557   1.188   1.925  17.059 -2.1291  1.6497 -3.3110
 4048TIP3   OH233558   2.259   3.173   0.818 -0.6322 -0.2027  0.0117
 4048TIP3    H133559   2.296   3.228   0.749  0.9448 -0.1031  0.8941
 4048TIP3    H233560   2.323   3.178   0.890 -3.5953  2.1970  2.7797
 4049TIP3   OH233561   6.513   2.922  14.788 -0.1468  0.1150  0.4593
 4049TIP3    H133562   6.432   2.871  14.797 -0.6520  0.7313 -0.4473
 4049TIP3    H233563   6.543   2.903  14.699 -0.4923  1.6064  0.0074
 4050TIP3   OH233564   5.684   2.116   1.660 -0.6551  0.0926 -0.6230
 4050TIP3    H133565   5.748   2.182   1.633  0.0401 -0.3955 -0.2140
 4050TIP3    H233566   5.659   2.072   1.578  0.5164 -0.5695 -0.6486
 4051TIP3   OH233567   3.653   0.656   2.389  0.3312 -0.5978  0.1433
 4051TIP3    H133568   3.662   0.676   2.483 -0.9682 -0.2432  0.2087
 4051TIP3    H233569   3.669   0.740   2.346 -0.4453 -0.4408  0.1425
 4052TIP3   OH233570   5.524   1.809  13.610 -0.2695 -0.4601 -0.1810
 4052TIP3    H133571   5.574   1.789  13.531 -0.0906 -1.6489  0.2177
 4052TIP3    H233572   5.437   1.835  13.577  0.4439  1.2476 -0.8486
 4053TIP3   OH233573   5.929   6.173  13.484  0.3848 -0.0534 -0.1984
 4053TIP3    H133574   5.871   6.181  13.409  0.6755  1.4874 -0.2898
 4053TIP3    H233575   5.915   6.253  13.534  0.8659 -0.6364  0.9192
 4054TIP3   OH233576   3.886   6.693  16.768 -0.3497 -0.8451 -0.2028
 4054TIP3    H133577   3.812   6.655  16.815 -2.1152  1.9997 -0.4631
 4054TIP3    H233578   3.948   6.717  16.837 -0.7296 -1.1095  0.2402
 4055TIP3   OH233579   0.814   2.822   6.039 -0.5425  0.1705  0.2708
 4055TIP3    H133580   0.882   2.835   6.104  0.0385  0.1823 -0.3257
 4055TIP3    H233581   0.732   2.840   6.086 -0.2927 -1.6629  1.4827
 4056TIP3   OH233582   2.930   1.302  12.270 -0.1874 -0.3101 -0.4671
 4056TIP3    H133583   2.970   1.385  12.245 -1.8439  0.4603 -0.7463
 4056TIP3    H233584   2.968   1.237  12.210  0.3273  0.4378 -0.9617
 4057TIP3   OH233585   6.537   3.806  15.144  0.0338  0.0572 -0.3800
 4057TIP3    H133586   6.596   3.732  15.154  1.1548  0.8930 -0.5784
 4057TIP3    H233587   6.449   3.767  15.141  0.6171 -1.2805 -0.8936
 4058TIP3   OH233588   1.515   1.380   6.135 -0.2242 -0.6159  0.9602
 4058TIP3    H133589   1.563   1.379   6.053  0.1778 -1.9481  1.1827
 4058TIP3    H233590   1.553   1.308   6.186  0.2321  0.8097  2.7126
 4059TIP3   OH233591   2.963   0.879   3.828 -1.1003  0.2538 -0.4112
 4059TIP3    H133592   2.986   0.966   3.795 -0.2119  0.3441  0.3835
 4059TIP3    H233593   3.044   0.828   3.819 -0.8599  0.2438  1.4411
 4060TIP3   OH233594   5.332   2.120   6.438 -0.7599 -0.0927  0.7232
 4060TIP3    H133595   5.412   2.068   6.429 -0.0906  0.5924  2.3495
 4060TIP3    H233596   5.348   2.197   6.383 -0.6727 -0.3693  0.3572
 4061TIP3   OH233597   4.006   0.263   3.924 -0.4443 -0.6532 -0.5483
 4061TIP3    H133598   3.927   0.302   3.886  0.6473  1.0411 -1.1684
 4061TIP3    H233599   4.047   0.333   3.974 -0.8999 -2.3464  2.4431
 4062TIP3   OH233600   4.748   6.353  15.860 -0.3601  0.0329  0.2606
 4062TIP3    H133601   4.842   6.336  15.862 -0.4570 -0.5756 -0.0148
 4062TIP3    H233602   4.739   6.445  15.884  0.2556 -0.0927  0.9866
 4063TIP3   OH233603   2.485   6.216   0.009 -0.0087 -0.3703 -0.1746
 4063TIP3    H133604   2.565   6.203  -0.043  0.4597 -0.9949  0.6695
 4063TIP3    H233605   2.483   6.141   0.068 -0.3433  0.4762  0.9295
 4064TIP3   OH233606   6.095   4.540   5.916  0.2748 -0.7494  0.2643
 4064TIP3    H133607   6.141   4.457   5.905  0.5380 -0.4070 -1.5801
 4064TIP3    H233608   6.004   4.520   5.893  0.3552 -0.5208 -0.2642
 4065TIP3   OH233609   5.897   3.771  15.357  0.4849  0.3329 -0.2442
 4065TIP3    H133610   5.832   3.830  15.394  2.0243  0.6336  2.1456
 4065TIP3    H233611   5.874   3.766  15.264 -1.1619  2.7316 -0.0542
 4066TIP3   OH233612   4.468   0.840  12.209 -0.0321  0.4127  0.0724
 4066TIP3    H133613   4.467   0.808  12.118  1.2821 -0.6832  0.4137
 4066TIP3    H233614   4.414   0.778  12.257 -0.2257  0.6395  0.1488
 4067TIP3   OH233615   4.431   1.018   6.260  0.0079 -0.1032  0.0605
 4067TIP3    H133616   4.524   1.041   6.262 -0.2769  1.5478 -1.7876
 4067TIP3    H233617   4.389   1.093   6.217 -1.9053 -1.6279 -0.8939
 4068TIP3   OH233618   5.708   2.767  11.961  0.4446  0.4529  0.2751
 4068TIP3    H133619   5.659   2.685  11.968  0.3891  0.2627 -1.6979
 4068TIP3    H233620   5.721   2.795  12.051 -1.1151 -0.7864  0.9317
 4069TIP3   OH233621   6.004   6.601  14.784  0.0661  0.3375 -0.3751
 4069TIP3    H133622   5.927   6.546  14.772  1.8032 -2.8816  1.6425
 4069TIP3    H233623   6.052   6.594  14.701 -0.4074 -0.0628 -0.6194
 4070TIP3   OH233624   6.262   5.589   2.923  0.2147 -1.0952 -0.1506
 4070TIP3    H133625   6.179   5.544   2.907 -0.5064 -0.1527  0.8263
 4070TIP3    H233626   6.314   5.526   2.972  0.1770 -1.7851 -0.9830
 4071TIP3   OH233627   5.094   4.936   5.574 -0.2451 -0.1326 -0.3440
 4071TIP3    H133628   5.183   4.965   5.555 -0.0213  0.5069  1.4757
 4071TIP3    H233629   5.040   5.012   5.557 -1.1168 -1.5010 -5.1680
 4072TIP3   OH233630   4.841   3.142   2.076 -0.8327 -0.3707 -0.4055
 4072TIP3    H133631   4.815   3.197   2.002 -0.9563 -2.0215 -1.6408
 4072TIP3    H233632   4.847   3.054   2.039 -2.8072 -1.5943  1.9828
 4073TIP3   OH233633   6.624   1.772  14.241  0.0971 -0.5639 -0.4568
 4073TIP3    H133634   6.705   1.815  14.212 -1.1810  2.4615  0.0309
 4073TIP3    H233635   6.640   1.751  14.333  0.2491  0.4038 -0.2451
 4074TIP3   OH233636   6.769   0.444   2.739 -0.3042 -0.3794 -0.5564
 4074TIP3    H133637   6.748   0.352   2.757 -0.6490 -0.4409 -1.2309
 4074TIP3    H233638   6.691   0.492   2.764 -0.2688 -0.3122 -0.5749
 4075TIP3   OH233639   6.450   3.725  12.496 -0.4103 -0.4149 -0.0656
 4075TIP3    H133640   6.435   3.686  12.583  1.2053 -2.9900 -0.8329
 4075TIP3    H233641   6.367   3.713  12.450 -0.8448 -0.3080  0.6633
 4076TIP3   OH233642   5.291   1.043   3.570  0.3001 -0.6678 -0.1141
 4076TIP3    H133643   5.299   1.122   3.515 -0.0783 -2.0349 -2.2513
 4076TIP3    H233644   5.218   1.062   3.628  0.7645  0.8897  0.0103
 4077TIP3   OH233645   3.028   2.021   5.079  0.6417 -0.4221  0.1896
 4077TIP3    H133646   3.081   1.977   5.145 -0.7369  0.2425  1.8249
 4077TIP3    H233647   3.054   2.113   5.085  1.2044 -0.4820 -0.9367
 4078TIP3   OH233648   3.283   2.658   3.787  0.4881 -0.2780  0.0023
 4078TIP3    H133649   3.349   2.603   3.745  0.0382 -0.0001 -1.1006
 4078TIP3    H233650   3.328   2.741   3.803 -0.0342  0.5444 -2.3877
 4079TIP3   OH233651   2.663   4.931   0.690 -0.1453  0.0526  0.6166
 4079TIP3    H133652   2.754   4.908   0.712 -0.0307  0.6004  0.7373
 4079TIP3    H233653   2.655   4.911   0.597  1.0907  2.9653 -0.2422
 4080TIP3   OH233654   2.170   5.181   5.418 -0.3954  0.0267  0.3961
 4080TIP3    H133655   2.110   5.139   5.357  0.9883 -1.0098 -0.2898
 4080TIP3    H233656   2.217   5.246   5.366  1.2478 -1.2988  0.1299
 4081TIP3   OH233657   3.435   1.531  17.136  0.4085 -0.0626  0.7313
 4081TIP3    H133658   3.374   1.461  17.159 -0.0849  0.5722  1.3941
 4081TIP3    H233659   3.522   1.492  17.149  0.1519 -0.8254  0.2288
 4082TIP3   OH233660   5.089   4.169   2.582  0.0016  0.1197 -0.8304
 4082TIP3    H133661   5.038   4.204   2.655  0.0480 -0.1677 -0.6611
 4082TIP3    H233662   5.045   4.088   2.558  0.1139  0.1019 -0.9780
 4083TIP3   OH233663   0.607   2.592   5.101 -0.2312 -0.3756 -0.1311
 4083TIP3    H133664   0.584   2.505   5.067  2.9335 -1.7693  0.9548
 4083TIP3    H233665   0.641   2.639   5.025  0.8833 -1.2027 -0.1664
 4084TIP3   OH233666   5.967   3.604   6.141 -0.4969  0.6643  0.5929
 4084TIP3    H133667   6.025   3.621   6.216 -1.8626  0.9707  1.6235
 4084TIP3    H233668   5.879   3.601   6.179 -1.1041 -0.5645 -0.8120
 4085TIP3   OH233669   0.046   6.636   4.837  0.3095  0.2671  0.4377
 4085TIP3    H133670  -0.038   6.593   4.820 -0.3319  1.1469  1.2435
 4085TIP3    H233671   0.083   6.589   4.912  0.6004 -0.2039 -0.0002
 4086TIP3   OH233672   5.818   5.234   1.238 -0.2983 -0.0905  0.0306
 4086TIP3    H133673   5.758   5.215   1.310 -1.7534 -1.0059 -1.3628
 4086TIP3    H233674   5.798   5.324   1.213 -1.1100 -0.3736 -0.3928
 4087TIP3   OH233675   0.681   4.916  16.201 -0.0116 -0.6800  0.0877
 4087TIP3    H133676   0.636   4.844  16.246 -1.5114  0.4834  0.5195
 4087TIP3    H233677   0.718   4.969  16.272 -0.5990  0.0271 -0.1250
 4088TIP3   OH233678   2.516   3.178   5.116  0.0751 -0.2455  0.4161
 4088TIP3    H133679   2.509   3.273   5.127 -0.2420 -0.1386 -0.5385
 4088TIP3    H233680   2.441   3.143   5.163 -0.1749  0.0320  0.2338
 4089TIP3   OH233681   2.065   3.468   5.589 -0.2145 -1.3505 -0.1213
 4089TIP3    H133682   2.072   3.475   5.684 -1.6792 -0.3834 -0.0460
 4089TIP3    H233683   1.974   3.443   5.573 -1.0915  1.9553 -1.3062
 4090TIP3   OH233684   6.022   2.135  16.940 -0.4562  0.2621  0.1343
 4090TIP3    H133685   5.944   2.091  16.906  0.2699 -1.1739  0.2508
 4090TIP3    H233686   6.059   2.180  16.863 -0.6654 -0.1587 -0.2161
 4091TIP3   OH233687   5.389   5.199  15.117 -0.4753  0.2150 -0.2624
 4091TIP3    H133688   5.321   5.240  15.172  0.5877  1.3963  0.2315
 4091TIP3    H233689   5.348   5.190  15.031 -1.5719  0.0238  0.2669
 4092TIP3   OH233690   4.160   4.785   3.953 -0.3650 -0.9926 -0.2740
 4092TIP3    H133691   4.243   4.742   3.976 -0.5278  0.0427  2.7900
 4092TIP3    H233692   4.097   4.748   4.014 -2.0908 -1.3264 -2.1662
 4093TIP3   OH233693   5.524   5.884   4.598 -0.2608  0.0495 -0.2475
 4093TIP3    H133694   5.452   5.932   4.556 -0.6615  0.9225  1.3800
 4093TIP3    H233695   5.601   5.909   4.547 -0.5375  2.0593  0.2151
 4094TIP3   OH233696   6.606   5.558   3.000 -0.2024  0.1517  0.3437
 4094TIP3    H133697   6.603   5.472   2.957 -1.1737  0.0854  0.5158
 4094TIP3    H233698   6.686   5.555   3.053  0.1671 -0.3645 -0.2306
 4095TIP3   OH233699   6.652   5.104   1.212 -0.1709 -0.3676 -0.3634
 4095TIP3    H133700   6.662   5.034   1.148  1.2403  0.3053 -0.9338
 4095TIP3    H233701   6.659   5.184   1.160  0.1226  0.1943  0.5254
 4096TIP3   OH233702   5.932   5.230   2.671 -0.4447  0.2842 -0.0390
 4096TIP3    H133703   6.003   5.168   2.689 -0.3287  0.3980 -0.1023
 4096TIP3    H233704   5.965   5.284   2.599 -1.3287 -0.8624 -1.3453
 4097TIP3   OH233705   3.135   5.799  12.111  0.4008 -0.0236 -0.8214
 4097TIP3    H133706   3.216   5.794  12.060  0.4241  0.0021 -0.7868
 4097TIP3    H233707   3.122   5.711  12.145  1.2312  0.3268  0.4553
 4098TIP3   OH233708   5.088   3.619  15.664 -0.3460 -0.1851 -0.1583
 4098TIP3    H133709   4.999   3.649  15.649 -0.8179 -2.1511 -1.7828
 4098TIP3    H233710   5.082   3.564  15.742 -0.9471 -1.5961 -1.1529
 4099TIP3   OH233711   5.739   5.268  13.424  0.5995 -0.8910  0.4971
 4099TIP3    H133712   5.763   5.261  13.516  2.0188 -1.8410  0.0930
 4099TIP3    H233713   5.710   5.359  13.413 -0.1445 -0.9196  1.9807
 4100TIP3   OH233714   3.258   6.579  16.462 -0.2832  0.1786 -0.3931
 4100TIP3    H133715   3.325   6.630  16.416  2.1410 -1.3486  1.1822
 4100TIP3    H233716   3.289   6.489  16.455 -2.3594 -0.6184  0.1971
 4101TIP3   OH233717   0.507   2.006  10.988  0.0145 -0.0255 -0.2317
 4101TIP3    H133718   0.500   2.101  10.976  0.0658 -0.0775 -0.7120
 4101TIP3    H233719   0.426   1.972  10.950 -0.2279 -0.1426  0.3795
 4102TIP3   OH233720   5.657   0.166   5.143  0.2940 -0.4309  0.3451
 4102TIP3    H133721   5.618   0.211   5.068 -0.3970 -0.9255  0.3988
 4102TIP3    H233722   5.743   0.208   5.154  0.0738  0.1877 -0.2186
 4103TIP3   OH233723   5.124   1.121   5.006  0.0372  0.0094 -0.3923
 4103TIP3    H133724   5.037   1.143   4.971 -0.9600 -2.5354  0.2903
 4103TIP3    H233725   5.108   1.105   5.099  1.8809  2.5417  0.4853
 4104TIP3   OH233726   3.046   3.051  15.892  0.0829  0.0695 -0.6771
 4104TIP3    H133727   3.009   2.974  15.935  0.9043 -0.2602 -0.5527
 4104TIP3    H233728   3.141   3.039  15.897  0.2428  1.3379 -0.1880
 4105TIP3   OH233729   5.338   3.507  12.243 -0.2222  0.0516 -0.8913
 4105TIP3    H133730   5.339   3.436  12.307  0.5959  0.6036 -0.2722
 4105TIP3    H233731   5.400   3.572  12.277 -0.0882  0.5535 -2.0182
 4106TIP3   OH233732   4.133   3.555   4.303  0.3288  0.6723 -0.4585
 4106TIP3    H133733   4.177   3.636   4.279  2.7587  0.1659  1.7808
 4106TIP3    H233734   4.186   3.486   4.264  0.7010  0.0838  1.0146
 4107TIP3   OH233735   4.573   2.420  13.271  0.6277  0.2335  0.0415
 4107TIP3    H133736   4.522   2.461  13.201 -1.0646  0.0031  1.0967
 4107TIP3    H233737   4.545   2.465  13.351  0.0140 -1.7719  0.9996
 4108TIP3   OH233738   5.332   3.767  13.123 -0.2472  0.1455  0.1544
 4108TIP3    H133739   5.410   3.808  13.160 -0.4268  1.4595 -0.8667
 4108TIP3    H233740   5.363   3.683  13.088  0.7503  0.7150 -0.3704
 4109TIP3   OH233741   5.564   3.889  13.181  0.1255  0.3151 -0.3035
 4109TIP3    H133742   5.557   3.982  13.160 -0.1641  0.2688 -0.4149
 4109TIP3    H233743   5.615   3.887  13.262  0.8976  0.5197 -0.7687
 4110TIP3   OH233744   4.632   4.947   5.991 -0.6873  0.1073 -0.4192
 4110TIP3    H133745   4.583   4.936   6.072  2.1785 -0.1364  1.4224
 4110TIP3    H233746   4.628   4.861   5.948  0.0679 -0.6461  0.9364
 4111TIP3   OH233747   5.642   4.610   1.050 -0.0377 -0.9012 -0.0966
 4111TIP3    H133748   5.635   4.567   0.965 -0.8895  0.0417 -0.5211
 4111TIP3    H233749   5.567   4.669   1.054  0.0530 -0.8473  1.2668
 4112TIP3   OH233750   4.947   0.226  14.382 -0.3715  0.4272  0.0600
 4112TIP3    H133751   4.947   0.253  14.290 -2.1759 -2.6069 -0.9696
 4112TIP3    H233752   4.862   0.186  14.395  0.6081 -1.0574  2.4614
 4113TIP3   OH233753   1.582   1.175  15.091  0.5003  0.3520 -0.3550
 4113TIP3    H133754   1.607   1.099  15.039  1.7758  0.3751  0.1849
 4113TIP3    H233755   1.557   1.241  15.026  1.3842  0.1513 -0.9200
 4114TIP3   OH233756   1.968   2.688   2.601  0.0285 -0.1754  0.1538
 4114TIP3    H133757   2.021   2.608   2.611  0.7624  0.3875  0.8777
 4114TIP3    H233758   1.907   2.667   2.531  1.9040 -0.5092 -1.4712
 4115TIP3   OH233759   4.211   6.399  10.976  0.2709 -0.1982  0.0897
 4115TIP3    H133760   4.268   6.450  10.918  1.0685 -0.3809  0.7143
 4115TIP3    H233761   4.132   6.384  10.923 -0.1962  2.0685  0.0274
 4116TIP3   OH233762   6.574   1.313   1.475 -0.0273 -0.0963 -0.3309
 4116TIP3    H133763   6.513   1.256   1.430 -0.9629  0.4987  0.1517
 4116TIP3    H233764   6.548   1.402   1.449  1.1357  0.1449 -0.7401
 4117TIP3   OH233765   2.087   0.101  12.388  0.2249  0.6871  0.2977
 4117TIP3    H133766   2.067   0.007  12.392  1.0232  0.5092  0.4346
 4117TIP3    H233767   2.109   0.124  12.478  0.6171  0.8651  0.1588
 4118TIP3   OH233768   3.606   5.785  13.080 -0.2932 -0.1126 -0.0154
 4118TIP3    H133769   3.592   5.740  12.997  2.2538 -1.3126  0.1165
 4118TIP3    H233770   3.579   5.875  13.064 -0.7796 -0.5418 -1.8339
 4119TIP3   OH233771   5.738   4.582  16.454  0.3418 -0.0054  0.2205
 4119TIP3    H133772   5.726   4.490  16.479  0.8254  0.2846  1.5592
 4119TIP3    H233773   5.749   4.579  16.359  0.5106 -1.3453  0.2643
 4120TIP3   OH233774   4.966   0.996   4.451  0.5041 -0.1807 -0.1294
 4120TIP3    H133775   5.009   1.046   4.521  1.2473 -0.0169 -0.6900
 4120TIP3    H233776   4.873   1.015   4.462  0.8678  2.9575 -1.5307
 4121TIP3   OH233777   0.392   5.436   2.693 -0.0063 -0.1728  0.2420
 4121TIP3    H133778   0.451   5.511   2.679 -2.4457  1.4645 -2.3172
 4121TIP3    H233779   0.380   5.399   2.606 -0.4054 -2.4187  1.1815
 4122TIP3   OH233780   2.599   1.891  11.983  0.1668 -0.8481  0.3694
 4122TIP3    H133781   2.671   1.828  11.971 -0.8117 -1.8774 -0.2383
 4122TIP3    H233782   2.555   1.862  12.063  0.2294 -0.4026  0.5704
 4123TIP3   OH233783   2.186   0.149  14.422 -0.0740 -0.3283  0.3846
 4123TIP3    H133784   2.210   0.195  14.341  0.2938  0.5636  0.9948
 4123TIP3    H233785   2.099   0.182  14.444 -2.9405 -4.6516 -2.6577
 4124TIP3   OH233786   5.795   3.927  14.148 -0.0500  0.4965 -0.6442
 4124TIP3    H133787   5.789   4.022  14.149 -0.6667  0.5059 -2.5799
 4124TIP3    H233788   5.822   3.904  14.237 -0.2642  2.4386 -0.0404
 4125TIP3   OH233789   2.430   3.826   5.128 -0.4189  0.1836  0.6794
 4125TIP3    H133790   2.485   3.752   5.156 -0.5301 -0.3194 -0.3602
 4125TIP3    H233791   2.477   3.863   5.054 -0.2462  1.3272  1.3487
 4126TIP3   OH233792   2.860   3.400  14.090 -0.0347 -0.4631 -0.3719
 4126TIP3    H133793   2.923   3.337  14.056 -0.0014 -0.1950 -0.8032
 4126TIP3    H233794   2.786   3.396  14.030  0.0065 -0.0237 -0.4571
 4127TIP3   OH233795   3.022   0.250  10.904  0.2324 -0.2863  0.0869
 4127TIP3    H133796   2.980   0.215  10.825  1.8340 -2.8055  0.2490
 4127TIP3    H233797   2.951   0.256  10.968 -0.5600 -0.9935 -0.6925
 4128TIP3   OH233798   3.649   0.078   3.567 -0.2492 -0.0931 -0.2565
 4128TIP3    H133799   3.568   0.094   3.614 -0.9213  1.9383 -1.9788
 4128TIP3    H233800   3.629   0.096   3.476  1.3487 -2.6211 -1.2330
 4129TIP3   OH233801   5.282   4.564   6.248  0.0819 -0.3587  0.3158
 4129TIP3    H133802   5.331   4.483   6.264  0.0047 -0.3508  0.5975
 4129TIP3    H233803   5.300   4.619   6.325  0.0058 -0.1720  0.2011
 4130TIP3   OH233804   5.274   5.170   5.346 -0.2935 -0.5030  0.5228
 4130TIP3    H133805   5.181   5.193   5.349 -0.2860 -0.5221  1.9858
 4130TIP3    H233806   5.305   5.207   5.264 -1.2111  1.1069  0.8337
 4131TIP3   OH233807   0.267   2.255   2.129  0.2480 -0.2991  0.2067
 4131TIP3    H133808   0.188   2.254   2.182  0.2519 -1.2197  0.2121
 4131TIP3    H233809   0.326   2.314   2.176  0.3376 -1.2707  1.3822
 4132TIP3   OH233810   0.808   2.534   0.033  0.0593  0.6352  0.4905
 4132TIP3    H133811   0.787   2.616  -0.012 -1.8051 -0.1048 -0.0665
 4132TIP3    H233812   0.804   2.467  -0.035  1.2186  0.0082  1.0089
 4133TIP3   OH233813   2.642   6.102  11.704 -0.5615 -0.6563 -0.2861
 4133TIP3    H133814   2.676   6.157  11.775  0.4631 -0.8793 -0.6028
 4133TIP3    H233815   2.576   6.047  11.747  0.4803 -1.2196  0.6439
 4134TIP3   OH233816   1.821   1.023  17.291 -0.0609  0.3650  0.0791
 4134TIP3    H133817   1.911   1.054  17.295  0.2298 -0.4649  0.2104
 4134TIP3    H233818   1.793   1.042  17.201  0.6899 -0.5227 -0.3651
 4135TIP3   OH233819   1.380   5.582   5.411 -0.1909 -0.1419  0.1263
 4135TIP3    H133820   1.452   5.582   5.348 -0.1392 -1.7456  0.1482
 4135TIP3    H233821   1.422   5.578   5.497 -0.2670  1.8019  0.2916
 4136TIP3   OH233822   2.303   6.265  15.968  0.1190  0.4609  0.4547
 4136TIP3    H133823   2.384   6.265  15.917  1.3154 -1.6361  2.2043
 4136TIP3    H233824   2.240   6.218  15.913  0.8914 -0.2985  0.2053
 4137TIP3   OH233825   0.701   4.555  14.720 -0.3884 -0.0701  0.1844
 4137TIP3    H133826   0.694   4.530  14.812 -0.1757  0.2759  0.2974
 4137TIP3    H233827   0.612   4.547  14.686 -0.4050 -0.5239  0.3344
 4138TIP3   OH233828   5.231   5.633   6.600 -0.2473  0.5560 -0.3493
 4138TIP3    H133829   5.189   5.676   6.674 -3.7576 -0.0811 -1.7491
 4138TIP3    H233830   5.302   5.582   6.638 -3.2827 -1.5790  3.0500
 4139TIP3   OH233831   5.816   2.599   2.692  0.7277 -0.4151 -0.2092
 4139TIP3    H133832   5.864   2.526   2.732  0.2212 -0.3768  0.4828
 4139TIP3    H233833   5.873   2.629   2.621  1.5303 -0.6607  0.3197
 4140TIP3   OH233834   3.184   4.873   2.032 -0.1835 -0.4941  0.8689
 4140TIP3    H133835   3.243   4.800   2.011  0.0567 -0.4049  1.2296
 4140TIP3    H233836   3.165   4.913   1.947  0.6605 -0.2253  0.7895
 4141TIP3   OH233837   2.444   6.005   2.275  0.0529 -0.3772 -0.0120
 4141TIP3    H133838   2.486   6.066   2.214 -0.5727 -0.0744 -0.1375
 4141TIP3    H233839   2.363   5.979   2.232 -0.0354 -0.7340  0.3650
 4142TIP3   OH233840   5.074   1.479   6.546  0.7762  0.0871 -0.2890
 4142TIP3    H133841   5.024   1.427   6.483  0.8127  0.1423 -0.3636
 4142TIP3    H233842   5.052   1.441   6.631  0.5744  0.1366 -0.3178
 4143TIP3   OH233843   5.873   0.733  11.513  0.4756  0.2040 -0.0912
 4143TIP3    H133844   5.797   0.678  11.499  1.3772 -1.5535  1.4202
 4143TIP3    H233845   5.937   0.705  11.448 -0.0085  1.4640 -1.1563
 4144TIP3   OH233846   0.539   0.228   2.898  0.6125 -0.1870 -0.4701
 4144TIP3    H133847   0.451   0.264   2.907  0.8531  0.3967 -0.3936
 4144TIP3    H233848   0.596   0.305   2.889  1.1138 -0.5551 -0.5106
 4145TIP3   OH233849   3.398   3.381   2.368 -0.1615  0.5476  0.3920
 4145TIP3    H133850   3.303   3.371   2.377 -0.3439  1.3686 -0.4321
 4145TIP3    H233851   3.419   3.454   2.426 -0.0186  0.3338  0.6112
 4146TIP3   OH233852   3.782   3.829   4.272  0.2537  0.1230 -0.1549
 4146TIP3    H133853   3.823   3.884   4.339  1.6983 -1.8169  0.6793
 4146TIP3    H233854   3.775   3.743   4.313 -0.3484 -0.7414 -1.9539
 4147TIP3   OH233855   0.535   6.247  12.997 -0.1988  0.8560  0.1895
 4147TIP3    H133856   0.579   6.218  12.917  0.1534  2.0128 -0.0483
 4147TIP3    H233857   0.605   6.259  13.061 -0.2305  1.9621  0.0360
 4148TIP3   OH233858   4.760   4.763   2.917 -0.6712  0.2201 -0.0221
 4148TIP3    H133859   4.812   4.829   2.961 -1.9888  0.4727  1.2186
 4148TIP3    H233860   4.803   4.680   2.939  0.1229  0.5267 -0.3650
 4149TIP3   OH233861   1.089   1.219  16.170 -0.1653  0.5657  0.1767
 4149TIP3    H133862   1.079   1.284  16.100  0.0461 -0.2269 -0.6085
 4149TIP3    H233863   1.146   1.152  16.133  1.5198  1.0367  1.7665
 4150TIP3   OH233864   0.339   3.245  11.485  0.5585  0.2119 -0.2324
 4150TIP3    H133865   0.373   3.241  11.575 -1.1165  0.4765  0.4409
 4150TIP3    H233866   0.405   3.295  11.437  1.8546 -0.5684  0.6589
 4151TIP3   OH233867   1.264   1.802   1.880 -0.3599 -0.0016  0.0024
 4151TIP3    H133868   1.239   1.879   1.829  0.2307  0.2739  0.1133
 4151TIP3    H233869   1.195   1.738   1.864 -0.8956  0.5785 -0.0378
 4152TIP3   OH233870   3.873   3.112   2.038 -0.7601  0.3062 -0.3010
 4152TIP3    H133871   3.929   3.190   2.049 -0.0490 -0.3323  0.8655
 4152TIP3    H233872   3.874   3.070   2.124  1.5897 -2.7851 -1.6408
 4153TIP3   OH233873   4.163   2.036  16.447  0.4341  0.4427  0.7321
 4153TIP3    H133874   4.078   2.020  16.407  0.6355  0.6786  0.1897
 4153TIP3    H233875   4.144   2.085  16.526 -0.1471 -1.9573  2.1662
 4154TIP3   OH233876   4.007   0.253  15.364  0.2885 -0.2555 -0.2917
 4154TIP3    H133877   3.984   0.338  15.402  0.5043  0.6658 -2.1261
 4154TIP3    H233878   4.075   0.219  15.423  0.7974  1.2330  0.0300
 4155TIP3   OH233879   4.091   0.095  14.647 -0.4725  0.5136 -0.4218
 4155TIP3    H133880   4.035   0.022  14.675 -0.5352  0.8257  0.2776
 4155TIP3    H233881   4.085   0.159  14.718 -0.4662  1.2322 -1.0555
 4156TIP3   OH233882   3.966   4.276   4.855  0.0934 -0.0905 -0.0910
 4156TIP3    H133883   3.945   4.240   4.941 -0.0739  0.9065  0.3051
 4156TIP3    H233884   4.027   4.348   4.873 -0.8110  0.8593 -0.6941
 4157TIP3   OH233885   3.433   4.167  16.207  0.0833 -0.1702 -0.1855
 4157TIP3    H133886   3.347   4.170  16.248  0.5688  0.2393  0.8307
 4157TIP3    H233887   3.483   4.236  16.250  1.2064 -1.0004 -0.0988
 4158TIP3   OH233888   6.003   1.698  12.449  0.0573  0.7235  0.6304
 4158TIP3    H133889   6.066   1.769  12.458  0.5039  0.2374  1.6271
 4158TIP3    H233890   5.930   1.724  12.504  1.0448 -0.4117  2.6167
 4159TIP3   OH233891   0.580   0.269   1.820 -0.5460  0.1625  0.0442
 4159TIP3    H133892   0.566   0.239   1.730 -2.1397  0.1864  0.2541
 4159TIP3    H233893   0.614   0.192   1.866  2.3006  0.7030 -1.0027
 4160TIP3   OH233894   4.714   1.681  12.374  0.5369  0.8856 -0.0091
 4160TIP3    H133895   4.620   1.693  12.369  0.1645 -1.6939 -1.0574
 4160TIP3    H233896   4.727   1.619  12.445  1.3733  0.7723 -0.2384
 4161TIP3   OH233897   2.655   4.472  12.625 -0.6735 -0.0976 -0.5181
 4161TIP3    H133898   2.749   4.492  12.634 -0.8091 -0.1688  1.6368
 4161TIP3    H233899   2.651   4.408  12.553  1.1501 -1.3679  0.4157
 4162TIP3   OH233900   0.547   1.988   2.877  0.0066  0.4789 -0.2004
 4162TIP3    H133901   0.615   2.053   2.864  0.2414  0.5515  1.2207
 4162TIP3    H233902   0.477   2.035   2.923  1.1841 -0.7251  3.1385
 4163TIP3   OH233903   3.966   2.752   1.943  0.9066 -0.6063  0.5125
 4163TIP3    H133904   3.942   2.745   1.851 -0.4048  0.2048  0.7714
 4163TIP3    H233905   4.041   2.693   1.953  1.7885  0.1405 -1.3125
 4164TIP3   OH233906   4.524   4.936   2.238 -0.5429 -0.0622  0.4961
 4164TIP3    H133907   4.531   4.927   2.333  0.6821  0.4375  0.4698
 4164TIP3    H233908   4.515   5.030   2.223  0.3116 -0.0388  0.0714
 4165TIP3   OH233909   3.135   2.201  12.035 -0.0289 -0.5701 -0.1625
 4165TIP3    H133910   3.128   2.292  12.007 -0.1158 -0.1074  1.2837
 4165TIP3    H233911   3.167   2.154  11.958  0.8769  0.8379 -0.6751
 4166TIP3   OH233912   3.266   5.830   5.936 -0.3850  0.5218  0.0523
 4166TIP3    H133913   3.331   5.885   5.978 -0.3317 -0.0064  0.6862
 4166TIP3    H233914   3.280   5.743   5.974 -0.9326  0.2304 -0.3940
 4167TIP3   OH233915   2.590   3.784   2.594 -0.2426 -0.0286 -0.1611
 4167TIP3    H133916   2.631   3.870   2.579 -0.9219  0.3007 -0.1459
 4167TIP3    H233917   2.500   3.795   2.566 -0.0062 -1.1348 -1.4414
 4168TIP3   OH233918   4.793   2.309   2.698  0.4828  0.0626 -0.8910
 4168TIP3    H133919   4.761   2.229   2.656  0.7752 -0.2588 -0.5099
 4168TIP3    H233920   4.782   2.377   2.631  0.8317 -0.4159 -1.4475
 4169TIP3   OH233921   0.300   5.982  11.696 -0.0669 -0.5682  0.3922
 4169TIP3    H133922   0.323   5.940  11.780 -1.0664 -1.3579  0.2884
 4169TIP3    H233923   0.220   6.032  11.716  1.2487  1.5864  0.5827
 4170TIP3   OH233924   3.175   1.297  12.883  0.4171 -0.1301 -0.4262
 4170TIP3    H133925   3.180   1.228  12.817 -0.5712 -0.9382  0.2982
 4170TIP3    H233926   3.084   1.326  12.880  0.3627 -0.1704  0.5651
 4171TIP3   OH233927   0.883   1.026  17.244 -0.1292 -0.6749  0.5536
 4171TIP3    H133928   0.933   0.971  17.304  0.0299 -0.0488  1.0049
 4171TIP3    H233929   0.914   1.115  17.261 -0.7725 -0.3786  0.2212
 4172TIP3   OH233930   4.181   1.289   3.682 -0.5858 -0.6649 -0.9905
 4172TIP3    H133931   4.139   1.330   3.606 -0.8646  1.2374  0.1427
 4172TIP3    H233932   4.270   1.269   3.651 -0.5535  0.4826 -1.6959
 4173TIP3   OH233933   5.500   3.295   5.253 -0.3530  0.4966  0.0171
 4173TIP3    H133934   5.541   3.377   5.227  0.4609 -0.1618 -0.8104
 4173TIP3    H233935   5.534   3.278   5.341 -1.0992  1.3984  0.5061
 4174TIP3   OH233936   2.387   0.032  13.987 -0.2634 -0.2954  0.1789
 4174TIP3    H133937   2.387   0.125  14.010  0.6354  0.0774 -1.2517
 4174TIP3    H233938   2.296   0.004  14.000 -0.8168  1.0914 -0.5921
 4175TIP3   OH233939   4.634   4.077   0.298 -0.2112  0.3879  0.3962
 4175TIP3    H133940   4.704   4.014   0.279 -0.9233 -0.5976  0.9464
 4175TIP3    H233941   4.674   4.163   0.281  0.1517 -0.2426 -2.4685
 4176TIP3   OH233942   6.294   0.605  10.862  0.3214  0.0131 -0.4692
 4176TIP3    H133943   6.359   0.539  10.839 -2.1056 -2.5981 -0.3416
 4176TIP3    H233944   6.321   0.635  10.949  1.5455 -0.7244 -0.5622
 4177TIP3   OH233945   5.345   4.180  16.879 -0.4856 -0.1322  0.2234
 4177TIP3    H133946   5.272   4.236  16.904 -0.0653  0.1480  0.8571
 4177TIP3    H233947   5.387   4.225  16.806 -0.6870 -0.0726  0.1458
 4178TIP3   OH233948   3.988   5.468  13.676  0.1291 -0.2886 -0.3142
 4178TIP3    H133949   3.947   5.467  13.763  0.7536  3.5234  0.2013
 4178TIP3    H233950   3.933   5.410  13.623 -0.5951 -2.3216  2.4303
 4179TIP3   OH233951   6.257   5.262   5.226 -0.0860  0.6226  0.2774
 4179TIP3    H133952   6.222   5.251   5.314 -2.2637  0.6850 -0.5184
 4179TIP3    H233953   6.267   5.172   5.193  0.1618  0.6090  0.3936
 4180TIP3   OH233954   2.710   1.831  15.004  0.1285  0.1834  0.0019
 4180TIP3    H133955   2.721   1.925  15.015  1.5225 -0.0169  0.4741
 4180TIP3    H233956   2.626   1.822  14.960  0.5574  1.7072 -1.2030
 4181TIP3   OH233957   1.941   1.764   0.448  0.2913  0.4431 -0.1977
 4181TIP3    H133958   1.978   1.740   0.532  0.2333  1.4030  0.1193
 4181TIP3    H233959   1.866   1.819   0.469  0.2888  0.7155 -0.8669
 4182TIP3   OH233960   6.640   2.101  11.474  0.2401  0.4761  0.1497
 4182TIP3    H133961   6.563   2.153  11.453  0.0435  0.4477  0.7794
 4182TIP3    H233962   6.607   2.027  11.524  0.6016  0.1009 -0.1513
 4183TIP3   OH233963   2.708   0.106  13.292 -0.3339  0.0664 -0.1787
 4183TIP3    H133964   2.725   0.179  13.351 -0.9344 -0.4844  0.6978
 4183TIP3    H233965   2.653   0.143  13.223 -0.4639  0.4943  0.1501
 4184TIP3   OH233966   1.416   0.630   4.969 -0.2485  0.2618 -0.6083
 4184TIP3    H133967   1.502   0.593   4.988 -0.2196  0.1277 -0.9895
 4184TIP3    H233968   1.397   0.602   4.879 -0.2095  1.1803 -0.9179
 4185TIP3   OH233969   6.716   3.953   6.282  0.1994  0.3448  0.1210
 4185TIP3    H133970   6.667   3.941   6.200 -0.7092  0.8623  0.5811
 4185TIP3    H233971   6.796   3.998   6.255 -0.4077  1.1421 -0.3950
 4186TIP3   OH233972   5.956   3.821  12.064  0.2330  0.4755 -0.0982
 4186TIP3    H133973   5.979   3.890  12.002  0.0371  1.6400  1.0897
 4186TIP3    H233974   6.041   3.784  12.090  0.2798 -0.6212 -1.6733
 4187TIP3   OH233975   3.895   1.980   1.990  0.4243  0.0089 -0.4375
 4187TIP3    H133976   3.881   1.947   1.901  0.6029  0.3900 -0.6111
 4187TIP3    H233977   3.984   1.953   2.012 -0.4251 -2.2105  0.5762
 4188TIP3   OH233978   1.909   5.354   3.329 -0.5371 -0.1284  0.0293
 4188TIP3    H133979   1.934   5.263   3.314  2.5145  0.2007  2.2222
 4188TIP3    H233980   1.845   5.350   3.400  0.4801 -0.5161  0.9334
 4189TIP3   OH233981   5.668   1.960   4.341  0.7550 -0.6631  0.2007
 4189TIP3    H133982   5.706   1.875   4.318  1.2300 -0.6625  0.9512
 4189TIP3    H233983   5.611   1.941   4.415 -1.3046 -0.7843 -1.3233
 4190TIP3   OH233984   0.826   4.214   3.426 -0.5039  0.3605 -0.6007
 4190TIP3    H133985   0.783   4.289   3.385  0.9508  1.2859 -0.5356
 4190TIP3    H233986   0.919   4.238   3.425 -0.2870 -0.0608  2.2081
 4191TIP3   OH233987   5.289   5.706  17.001  0.9363  0.4330  0.0331
 4191TIP3    H133988   5.336   5.777  16.958  0.4927  1.2764  0.9013
 4191TIP3    H233989   5.278   5.735  17.092 -0.5366 -0.0779  0.0551
 4192TIP3   OH233990   6.087   1.045  17.162  0.2629 -0.0274 -0.0630
 4192TIP3    H133991   6.094   1.065  17.255  2.0775 -1.5260  0.1783
 4192TIP3    H233992   6.023   0.974  17.156  0.9042 -0.6334  0.1766
 4193TIP3   OH233993   6.711   4.861  11.024 -0.3722  0.2130  0.4481
 4193TIP3    H133994   6.748   4.780  10.988 -0.8257  0.6700 -1.1534
 4193TIP3    H233995   6.623   4.836  11.052 -0.4049  0.0756  0.2302
 4194TIP3   OH233996   2.192   5.693   5.589 -0.7341 -0.0424 -0.4775
 4194TIP3    H133997   2.194   5.622   5.525 -1.1201 -0.1210 -0.4055
 4194TIP3    H233998   2.120   5.670   5.648 -1.4443  0.8573 -0.9756
 4195TIP3   OH233999   1.226   1.790  15.724  0.2483  0.3722  0.5956
 4195TIP3    H134000   1.201   1.882  15.724  0.1008  0.3504  1.7761
 4195TIP3    H234001   1.202   1.758  15.637 -0.2535  1.2963  0.3814
 4196TIP3   OH234002   0.938   2.536  11.637  0.3670 -0.1095 -0.2650
 4196TIP3    H134003   0.895   2.454  11.614 -0.6833  0.0349  1.0390
 4196TIP3    H234004   0.885   2.603  11.594 -1.6235  0.1638  2.3652
 4197TIP3   OH234005   4.295   3.395   4.150 -0.4358  0.0606  0.0807
 4197TIP3    H134006   4.344   3.405   4.068  0.3524  1.3977  0.6861
 4197TIP3    H234007   4.352   3.344   4.206 -0.6281 -0.1527  0.0850
 4198TIP3   OH234008   2.623   6.764   3.108 -0.5578  0.2590 -0.4541
 4198TIP3    H134009   2.533   6.787   3.130 -0.2011  0.7175  0.5777
 4198TIP3    H234010   2.677   6.826   3.157  0.3439 -0.8511  0.0058
 4199TIP3   OH234011   1.229   5.172  16.136 -0.4298  0.4480  0.5217
 4199TIP3    H134012   1.165   5.234  16.099  1.1703 -0.0012 -3.5368
 4199TIP3    H234013   1.309   5.224  16.147 -0.7593  0.5117  3.5692
 4200TIP3   OH234014   0.389   3.061  16.786  0.2961  0.0109  0.0451
 4200TIP3    H134015   0.436   3.135  16.749  1.7695 -0.3406  1.1687
 4200TIP3    H234016   0.387   2.997  16.715 -0.2758  0.7811 -0.6601
 4201TIP3   OH234017   4.673   6.400  11.514  0.3620 -0.4582  0.1986
 4201TIP3    H134018   4.579   6.386  11.508  0.3277 -0.3518  0.4958
 4201TIP3    H234019   4.700   6.424  11.425 -0.1512  1.2025  0.4725
 4202TIP3   OH234020   2.220   4.741   0.051 -0.4173 -0.0070  0.8274
 4202TIP3    H134021   2.229   4.835   0.066 -2.0245  0.4309 -0.5683
 4202TIP3    H234022   2.309   4.707   0.051  0.3463  1.8594 -0.5764
 4203TIP3   OH234023   0.771   5.883   3.526  0.0219 -0.0436 -0.1471
 4203TIP3    H134024   0.825   5.805   3.516 -0.1704 -0.1994  0.0131
 4203TIP3    H234025   0.684   5.856   3.497 -0.1112  0.0284  0.1811
 4204TIP3   OH234026   2.831   5.451  16.259  0.2494  0.3044 -0.2312
 4204TIP3    H134027   2.856   5.539  16.232 -0.7867  0.7309  0.1664
 4204TIP3    H234028   2.906   5.396  16.235  1.7772  1.6044  1.3539
 4205TIP3   OH234029   6.294   5.078  13.786 -0.6034  0.5913  0.0920
 4205TIP3    H134030   6.371   5.127  13.818 -0.3747 -0.4018  1.1189
 4205TIP3    H234031   6.247   5.053  13.865 -0.9326 -0.5056 -0.4355
 4206TIP3   OH234032   0.008   6.072  12.509 -0.0422  0.1580  0.3152
 4206TIP3    H134033  -0.006   6.100  12.418  0.0299 -1.9645 -0.4072
 4206TIP3    H234034  -0.022   5.981  12.511  2.1670 -0.6296  1.8119
 4207TIP3   OH234035   3.832   1.648   5.885 -0.3134 -0.4625 -0.4016
 4207TIP3    H134036   3.921   1.640   5.919 -0.2499 -0.6415 -0.6069
 4207TIP3    H234037   3.776   1.622   5.959 -0.2230  0.2863 -0.0653
 4208TIP3   OH234038   1.095   4.412  13.106 -0.1582  0.2392  0.2557
 4208TIP3    H134039   1.047   4.486  13.143  0.2255  1.4081 -1.4692
 4208TIP3    H234040   1.167   4.452  13.057  0.9955 -1.3619  0.5555
 4209TIP3   OH234041   0.564   3.214   2.014 -0.1546 -0.2966 -0.0736
 4209TIP3    H134042   0.609   3.229   1.931 -1.8638  0.2894 -0.9467
 4209TIP3    H234043   0.561   3.301   2.056 -1.1155 -0.1588 -0.3943
 4210TIP3   OH234044   4.480   3.230  11.131 -0.3738  0.0713  0.2362
 4210TIP3    H134045   4.495   3.255  11.223  2.3289  1.5441 -0.4853
 4210TIP3    H234046   4.398   3.273  11.107 -1.2194 -0.4721  1.9598
 4211TIP3   OH234047   6.027   2.904  15.510 -0.2059 -0.0597  0.0142
 4211TIP3    H134048   6.119   2.890  15.535 -0.0861  1.1343  0.3122
 4211TIP3    H234049   5.982   2.922  15.592 -0.4048  0.8626 -0.2826
 4212TIP3   OH234050   3.285   6.068  11.844  0.5456 -0.7077 -0.0558
 4212TIP3    H134051   3.278   5.973  11.835 -1.4038 -0.6783  0.5961
 4212TIP3    H234052   3.358   6.081  11.905 -1.0201 -1.9955  2.2601
 4213TIP3   OH234053   4.962   1.485  12.203 -0.1776 -0.2167 -0.2328
 4213TIP3    H134054   4.885   1.531  12.170  1.4797  2.3145 -0.8827
 4213TIP3    H234055   4.931   1.441  12.282 -2.4712 -0.0561 -0.9617
 4214TIP3   OH234056   3.462   3.077  15.475 -0.4533  0.1530 -0.1145
 4214TIP3    H134057   3.414   3.127  15.409 -0.3566  0.7596  0.2747
 4214TIP3    H234058   3.462   2.987  15.441 -2.0618  0.0835 -0.0198
 4215TIP3   OH234059   5.284   3.199   2.158 -0.2351 -0.2527  0.5306
 4215TIP3    H134060   5.343   3.247   2.217  0.0739  0.8423 -0.6376
 4215TIP3    H234061   5.199   3.240   2.171  0.1388  1.0458 -0.8756
 4216TIP3   OH234062   0.403   0.373   4.834  0.8795  0.1244 -0.1225
 4216TIP3    H134063   0.410   0.454   4.884  1.4954  0.0435 -0.0775
 4216TIP3    H234064   0.431   0.304   4.895 -1.0742 -0.3215  0.3407
 4217TIP3   OH234065   1.717   5.288   3.966  0.1041  0.2256 -0.2245
 4217TIP3    H134066   1.789   5.343   3.997  0.1002  0.6775 -0.9913
 4217TIP3    H234067   1.642   5.317   4.017  0.2056  0.6052 -0.2848
 4218TIP3   OH234068   1.486   5.490  15.411 -0.8400 -0.7202  0.0109
 4218TIP3    H134069   1.431   5.560  15.447 -0.8199 -0.7804  0.1619
 4218TIP3    H234070   1.505   5.517  15.322  0.1956  0.0881  0.4531
 4219TIP3   OH234071   3.612   4.624   1.102 -0.3811  0.0189 -0.2562
 4219TIP3    H134072   3.520   4.649   1.101  0.2043  2.4101 -0.5802
 4219TIP3    H234073   3.653   4.683   1.039  1.3169 -1.3047 -0.4526
 4220TIP3   OH234074   1.041   4.522  14.482 -0.0982 -0.0145  0.4819
 4220TIP3    H134075   1.078   4.514  14.394 -0.2293 -0.8920  0.5024
 4220TIP3    H234076   0.993   4.441  14.496  0.3862 -0.1289  1.5844
 4221TIP3   OH234077   2.167   0.815   1.069 -0.6933 -0.1236 -0.1926
 4221TIP3    H134078   2.257   0.805   1.099 -0.6433  1.0559  0.1098
 4221TIP3    H234079   2.158   0.909   1.049 -2.2406  0.0474  1.0972
 4222TIP3   OH234080   2.086   6.671  13.714  0.0840 -0.3319  0.0031
 4222TIP3    H134081   2.022   6.688  13.783 -1.0705  2.3833 -1.5670
 4222TIP3    H234082   2.134   6.593  13.744 -0.3071  0.6917  3.8257
 4223TIP3   OH234083   3.175   4.952   4.991 -0.3774 -0.2741  0.4498
 4223TIP3    H134084   3.159   4.857   4.985 -1.2474 -0.1012 -0.2234
 4223TIP3    H234085   3.118   4.990   4.924 -0.8128  0.8058  1.3914
 4224TIP3   OH234086   1.708   6.091   1.509 -0.1043 -0.1203  0.1202
 4224TIP3    H134087   1.781   6.044   1.467 -0.0328 -0.0035  0.1129
 4224TIP3    H234088   1.734   6.097   1.601 -0.1334 -0.1326  0.1291
 4225TIP3   OH234089   6.038   0.148   4.253  0.2068 -0.2423 -0.1751
 4225TIP3    H134090   6.106   0.166   4.188  0.8985 -0.7232  0.4052
 4225TIP3    H234091   5.984   0.227   4.253  0.1312 -0.2664 -1.3908
 4226TIP3   OH234092   4.728   5.319   2.049  0.8941  0.2368  0.3977
 4226TIP3    H134093   4.715   5.302   2.143  1.0646  1.3628  0.6425
 4226TIP3    H234094   4.810   5.368   2.046  1.0161 -0.0088 -0.3759
 4227TIP3   OH234095   5.176   5.337   5.725 -0.2183  0.0266 -0.2755
 4227TIP3    H134096   5.196   5.261   5.779 -1.1290  0.3263  0.5146
 4227TIP3    H234097   5.260   5.365   5.690  0.2076 -0.9729 -0.0769
 4228TIP3   OH234098   3.740   3.384   2.994 -0.2000 -0.8250 -1.1614
 4228TIP3    H134099   3.752   3.435   3.075  2.5000 -0.9397 -1.3791
 4228TIP3    H234100   3.655   3.342   3.004 -1.1406  1.2515  0.4176
 4229TIP3   OH234101   1.082   4.850   4.531 -0.0657 -0.1063 -0.2026
 4229TIP3    H134102   1.030   4.782   4.574  0.0502 -1.9660 -2.7625
 4229TIP3    H234103   1.083   4.825   4.438  0.8465  2.8798 -1.1299
 4230TIP3   OH234104   2.300   0.386  13.431 -0.5676 -0.0384  0.1526
 4230TIP3    H134105   2.322   0.303  13.474 -2.4947 -0.1323  1.0298
 4230TIP3    H234106   2.315   0.452  13.498 -1.3538  0.0568  0.2415
 4231TIP3   OH234107   3.519   3.263   2.758  0.5003  0.9185  0.5160
 4231TIP3    H134108   3.581   3.312   2.812 -0.8148  1.2373  1.8116
 4231TIP3    H234109   3.523   3.306   2.673  1.0259  1.8305  0.9837
 4232TIP3   OH234110   4.690   5.526  14.833 -0.4795 -0.1861 -0.0750
 4232TIP3    H134111   4.711   5.484  14.917 -0.4488 -1.0725 -0.5075
 4232TIP3    H234112   4.727   5.614  14.840 -0.4678 -0.2554  0.8331
 4233TIP3   OH234113   3.379   2.603   5.476  0.1213 -0.6462 -0.1875
 4233TIP3    H134114   3.311   2.668   5.457 -1.1142 -2.2751 -1.7328
 4233TIP3    H234115   3.449   2.625   5.415  1.1297  1.0968  1.4726
 4234TIP3   OH234116   4.208   1.477  11.384  0.0414  0.2068  0.0611
 4234TIP3    H134117   4.145   1.538  11.345  0.8416  0.4311 -0.9378
 4234TIP3    H234118   4.294   1.515  11.364  0.5084  0.1098  1.7346
 4235TIP3   OH234119   6.223   4.097   6.404 -0.1624 -0.0761  0.6578
 4235TIP3    H134120   6.313   4.129   6.412 -0.0529  0.9626 -2.8609
 4235TIP3    H234121   6.169   4.174   6.419 -0.1070  0.7555 -2.6056
 4236TIP3   OH234122   5.000   1.134  15.405  0.1461 -0.1471  0.5220
 4236TIP3    H134123   5.034   1.157  15.319  0.3697 -2.5310 -0.1208
 4236TIP3    H234124   4.919   1.184  15.414 -0.8493 -1.1566 -1.9065
 4237TIP3   OH234125   3.152   1.961  14.893 -0.1138 -0.3072 -0.0123
 4237TIP3    H134126   3.213   1.903  14.939  3.2391  1.2317 -2.1509
 4237TIP3    H234127   3.126   2.025  14.959  0.0719 -1.3426  1.1047
 4238TIP3   OH234128   5.880   1.226  14.191  0.0706  0.0083  0.2025
 4238TIP3    H134129   5.959   1.266  14.155 -0.2481  1.1253  0.6975
 4238TIP3    H234130   5.815   1.233  14.121 -0.4330  1.8132  0.8093
 4239TIP3   OH234131   5.346   1.130   4.459  0.4454  0.3457  0.6804
 4239TIP3    H134132   5.316   1.044   4.427  1.2323  0.1562  0.4208
 4239TIP3    H234133   5.295   1.193   4.409  1.3241  0.0440 -0.6442
 4240TIP3   OH234134   2.193   3.452   0.383  0.5042 -0.5743  0.0049
 4240TIP3    H134135   2.218   3.534   0.426  2.0982 -1.1559  0.2658
 4240TIP3    H234136   2.101   3.439   0.408  0.6182  0.4459  1.0618
 4241TIP3   OH234137   3.903   6.699  13.013 -0.4312 -0.3718  0.5902
 4241TIP3    H134138   3.831   6.696  12.950 -2.2642  0.4980  2.5276
 4241TIP3    H234139   3.919   6.607  13.036 -0.5876 -0.6028 -0.2050
 4242TIP3   OH234140   0.711   5.975   4.882 -0.4825 -0.2130  0.3299
 4242TIP3    H134141   0.616   5.965   4.887 -0.5888  1.0212  1.1289
 4242TIP3    H234142   0.744   5.923   4.955 -0.3344 -2.5401 -1.2691
 4243TIP3   OH234143   4.157   2.042  16.871 -0.0597  0.9482  0.4919
 4243TIP3    H134144   4.073   2.083  16.848  0.7945  2.3868 -0.2402
 4243TIP3    H234145   4.213   2.060  16.796  0.8040 -0.3384  0.8056
 4244TIP3   OH234146   3.898   1.207  13.027 -0.3666  0.0369  0.2271
 4244TIP3    H134147   3.986   1.244  13.016 -0.9030  1.6879  1.1181
 4244TIP3    H234148   3.901   1.124  12.979  1.1394  0.8814 -1.2618
 4245TIP3   OH234149   4.616   4.656  14.532  0.0489 -0.5258  0.2028
 4245TIP3    H134150   4.614   4.734  14.477  0.5342 -1.4038 -1.0948
 4245TIP3    H234151   4.676   4.679  14.604  1.6896 -0.3180 -1.1671
 4246TIP3   OH234152   2.153   5.187   3.519 -0.3274  0.0243  0.1384
 4246TIP3    H134153   2.224   5.127   3.495 -0.1816  0.1649  0.2176
 4246TIP3    H234154   2.080   5.162   3.462 -0.7000 -1.1116  1.0858
 4247TIP3   OH234155   0.144   0.537  11.502  0.2551  0.4371  0.3146
 4247TIP3    H134156   0.162   0.452  11.543 -0.4532  0.3015  0.3514
 4247TIP3    H234157   0.152   0.520  11.408  1.6303  0.6916  0.3596
 4248TIP3   OH234158   1.295   0.989  15.240 -0.6654  0.3737  0.0734
 4248TIP3    H134159   1.322   1.073  15.276 -0.5192  1.9420 -3.3632
 4248TIP3    H234160   1.203   0.981  15.264 -0.8440  1.7946 -0.0526
 4249TIP3   OH234161   3.766   1.827  16.897 -1.1882 -0.4228 -0.5595
 4249TIP3    H134162   3.695   1.863  16.951 -0.1626  0.2750  0.3804
 4249TIP3    H234163   3.843   1.828  16.955  0.3162  1.6596 -2.4206
 4250TIP3   OH234164   4.863   6.134  11.453 -0.3766 -0.0116 -0.1122
 4250TIP3    H134165   4.908   6.049  11.448 -2.4373 -1.1046 -1.7978
 4250TIP3    H234166   4.845   6.157  11.362  0.7462  2.6622  0.2542
 4251TIP3   OH234167   6.468   1.943  16.931  0.4740 -0.5587  0.1178
 4251TIP3    H134168   6.450   1.995  16.852  1.5849  3.1850  2.0793
 4251TIP3    H234169   6.382   1.923  16.967 -0.0001 -0.1453 -0.7554
 4252TIP3   OH234170   6.403   3.328   1.938 -0.4103 -0.0974  0.3730
 4252TIP3    H134171   6.480   3.385   1.934  0.0633 -0.7913 -1.7163
 4252TIP3    H234172   6.360   3.340   1.853 -0.0172 -3.1182 -0.3818
 4253TIP3   OH234173   2.868   0.373  14.922  0.5991  0.0202  0.5183
 4253TIP3    H134174   2.879   0.467  14.940 -0.5519  0.3213 -0.1936
 4253TIP3    H234175   2.955   0.343  14.896  0.4066  1.6435 -2.4009
 4254TIP3   OH234176   1.169   1.043   5.901  0.2346 -0.7278  0.0554
 4254TIP3    H134177   1.214   1.025   5.818 -0.6477 -0.9506 -0.3827
 4254TIP3    H234178   1.183   0.964   5.954  1.7233 -0.1602  0.5529
 4255TIP3   OH234179   1.183   1.002  12.983  0.1048  0.2465  0.1058
 4255TIP3    H134180   1.191   1.076  12.923  0.9327 -1.3455 -1.8577
 4255TIP3    H234181   1.266   0.955  12.974 -0.3133 -0.8256  1.4904
 4256TIP3   OH234182   5.617   1.046  15.374  0.2032  0.0284  0.4491
 4256TIP3    H134183   5.680   1.068  15.443  3.2069  0.0157 -2.0351
 4256TIP3    H234184   5.557   1.121  15.371  3.6219  3.0419 -0.6688
 4257TIP3   OH234185   4.020   5.763  12.145 -0.7788  0.3709 -0.0750
 4257TIP3    H134186   4.111   5.793  12.143 -1.1994  1.7629  0.6947
 4257TIP3    H234187   4.001   5.737  12.054 -0.1597  1.7335 -0.6132
 4258TIP3   OH234188   3.819   1.668   6.473  0.0954 -0.3022 -0.3797
 4258TIP3    H134189   3.792   1.748   6.428 -1.6920  0.6471  2.1273
 4258TIP3    H234190   3.836   1.696   6.563 -0.2561 -2.6647  0.4978
 4259TIP3   OH234191   6.159   6.018  11.169 -0.0074  0.0588 -0.0971
 4259TIP3    H134192   6.212   6.096  11.154 -0.0308  0.0161 -0.4081
 4259TIP3    H234193   6.177   5.994  11.259  1.7331 -0.8723 -0.6444
 4260TIP3   OH234194   3.049   1.837   0.606  0.2364  0.2043 -0.1853
 4260TIP3    H134195   3.037   1.742   0.605  1.6546  0.0117 -0.3071
 4260TIP3    H234196   2.988   1.868   0.673 -1.1089 -0.6449 -0.9614
 4261TIP3   OH234197   5.161   2.147   1.730  0.0777 -0.4880  0.1970
 4261TIP3    H134198   5.138   2.166   1.822 -0.1068  0.6214 -0.0612
 4261TIP3    H234199   5.079   2.159   1.683 -0.2811 -2.8647  0.0951
 4262TIP3   OH234200   3.338   2.113  13.253  0.0504  0.0621  0.1133
 4262TIP3    H134201   3.394   2.189  13.271 -0.1395  0.5006 -1.0374
 4262TIP3    H234202   3.278   2.144  13.185  0.7370 -1.4799 -1.2345
 4263TIP3   OH234203   2.153   0.786   5.884 -0.1435  0.3316 -0.2491
 4263TIP3    H134204   2.066   0.826   5.877 -1.4277 -2.1514  0.2580
 4263TIP3    H234205   2.208   0.854   5.925 -1.9693  1.7770 -0.0682
 4264TIP3   OH234206   5.185   0.563  17.115  0.4080  0.2775 -0.3772
 4264TIP3    H134207   5.246   0.500  17.076  1.0488 -1.6407  3.2846
 4264TIP3    H234208   5.099   0.523  17.106  0.4855  0.0802 -0.2411
 4265TIP3   OH234209   5.937   5.926   0.294  0.3066  0.5249 -0.1487
 4265TIP3    H134210   6.015   5.942   0.347  1.3301 -2.0601 -0.6978
 4265TIP3    H234211   5.900   5.845   0.329 -1.5540  1.1204 -0.5987
 4266TIP3   OH234212   3.273   4.377  14.385 -0.0663 -0.2668  0.3228
 4266TIP3    H134213   3.212   4.434  14.432 -0.3604 -0.1419 -0.2065
 4266TIP3    H234214   3.261   4.400  14.293  0.5996 -0.4194  0.1930
 4267TIP3   OH234215   6.584   3.825   5.233 -0.0342 -0.4765  0.1724
 4267TIP3    H134216   6.576   3.826   5.138 -0.1377  0.3843  0.1895
 4267TIP3    H234217   6.615   3.736   5.253  0.1368 -0.6133 -0.6679
 4268TIP3   OH234218   2.729   0.127   5.593 -0.7531  0.3871 -0.0379
 4268TIP3    H134219   2.785   0.096   5.522 -0.3918 -1.7672  1.1071
 4268TIP3    H234220   2.671   0.191   5.551  0.7670  0.6823 -1.8141
 4269TIP3   OH234221   3.788   5.195  11.360 -0.2694 -0.2452  0.1962
 4269TIP3    H134222   3.752   5.124  11.306  0.7277 -0.8183  0.2692
 4269TIP3    H234223   3.821   5.152  11.438 -2.0275  0.6284  1.4876
 4270TIP3   OH234224   4.771   0.178   1.874  0.5192 -0.1121 -0.4162
 4270TIP3    H134225   4.867   0.178   1.873  0.5256  0.7720 -0.3179
 4270TIP3    H234226   4.747   0.173   1.781  0.6508 -0.9159 -0.4134
 4271TIP3   OH234227   2.998   1.379  14.765  0.2555  0.4923  0.2443
 4271TIP3    H134228   2.971   1.458  14.813 -0.0881  0.0733  0.7544
 4271TIP3    H234229   2.929   1.367  14.700  0.9080  1.2692 -0.6230
 4272TIP3   OH234230   3.508   5.570  13.212 -0.0178 -0.0760  0.6112
 4272TIP3    H134231   3.532   5.634  13.146  2.2537 -0.6640  0.7715
 4272TIP3    H234232   3.437   5.611  13.261  1.1577  2.2197  0.5329
 4273TIP3   OH234233   0.691   5.638  14.651  0.4136  0.4626 -0.0935
 4273TIP3    H134234   0.681   5.659  14.744  0.4945  0.0272  0.0183
 4273TIP3    H234235   0.602   5.629  14.618  0.3827  0.7417 -0.0884
 4274TIP3   OH234236   2.142   3.596  11.273 -0.3161  0.0885  0.2787
 4274TIP3    H134237   2.229   3.558  11.279  0.5460  2.1385  1.7533
 4274TIP3    H234238   2.145   3.652  11.196 -0.6650 -0.5697 -0.2250
 4275TIP3   OH234239   1.335   0.779   1.067 -0.3853 -0.0678  0.6495
 4275TIP3    H134240   1.281   0.700   1.066 -0.9956  0.2182 -2.8342
 4275TIP3    H234241   1.425   0.746   1.069 -0.6332 -0.7729  0.6759
 4276TIP3   OH234242   3.194   1.061   6.453 -0.1955 -0.2776  0.4277
 4276TIP3    H134243   3.277   1.037   6.493 -0.5821 -1.0697  0.7959
 4276TIP3    H234244   3.137   1.082   6.527 -0.8430 -1.5141  0.3182
 4277TIP3   OH234245   5.390   3.181  10.854 -0.3101 -0.8887 -0.1104
 4277TIP3    H134246   5.460   3.232  10.814  0.2776 -2.6710 -1.5028
 4277TIP3    H234247   5.310   3.210  10.810 -0.1748 -0.3385 -0.0048
 4278TIP3   OH234248   2.531   1.670  13.753  0.4903  0.1979 -0.0597
 4278TIP3    H134249   2.521   1.656  13.847 -0.5340 -1.3304 -0.3694
 4278TIP3    H234250   2.496   1.591  13.712 -1.2257  1.7367 -1.8158
 4279TIP3   OH234251   0.784   3.967  10.728 -0.2634  0.4399 -0.1877
 4279TIP3    H134252   0.698   3.998  10.700 -0.2844  1.5204  0.9944
 4279TIP3    H234253   0.767   3.882  10.768 -0.6105  0.1487 -0.9267
 4280TIP3   OH234254   5.567   3.155   5.495 -0.0892  0.2012 -0.5041
 4280TIP3    H134255   5.620   3.102   5.434  2.2815  0.0930  1.5061
 4280TIP3    H234256   5.526   3.091   5.553  0.1250  0.4401 -0.0906
 4281TIP3   OH234257   0.704   0.049   4.834 -0.1754  0.7099  0.1044
 4281TIP3    H134258   0.741  -0.020   4.889 -0.2028  0.5668 -0.0548
 4281TIP3    H234259   0.777   0.075   4.777 -0.0506  1.0956  0.4395
 4282TIP3   OH234260   3.683   5.604   1.091 -0.3979 -0.5373  0.1966
 4282TIP3    H134261   3.671   5.568   1.003  0.8197 -2.1235  0.6308
 4282TIP3    H234262   3.697   5.527   1.147 -0.8605  0.4476  1.7362
 4283TIP3   OH234263   3.944   1.346   2.169  0.0577 -0.1272 -0.1783
 4283TIP3    H134264   3.929   1.426   2.219  2.0448  0.0191  0.2902
 4283TIP3    H234265   4.027   1.312   2.203 -0.0730 -1.6807 -1.2914
 4284TIP3   OH234266   0.946   4.334   4.158  0.1763  0.2794 -0.3438
 4284TIP3    H134267   0.988   4.248   4.162  1.1652  0.7335 -0.5877
 4284TIP3    H234268   1.010   4.394   4.196 -0.4488  0.9308 -0.2885
 4285TIP3   OH234269   1.296   5.888  11.634 -0.2419  0.1182  0.2698
 4285TIP3    H134270   1.274   5.905  11.543 -0.3999 -0.1674  0.2537
 4285TIP3    H234271   1.382   5.846  11.631 -0.4191 -0.2438  0.2260
 4286TIP3   OH234272   3.907   4.693  13.877 -0.1936 -0.0405 -0.2987
 4286TIP3    H134273   3.867   4.610  13.852 -0.5884  0.1205 -0.2060
 4286TIP3    H234274   3.955   4.721  13.799 -1.0618  0.2491 -0.7363
 4287TIP3   OH234275   0.896   6.195  13.196  0.2191  0.1103  0.7188
 4287TIP3    H134276   0.904   6.103  13.219  0.0025 -1.3765 -4.1500
 4287TIP3    H234277   0.986   6.229  13.202  0.7260 -1.0980  0.2694
 4288TIP3   OH234278   6.134   4.374  13.645 -0.4185 -0.4406 -0.8232
 4288TIP3    H134279   6.093   4.457  13.621  0.7106 -0.1083 -1.6771
 4288TIP3    H234280   6.206   4.364  13.583  1.0556 -0.7966  0.8760
 4289TIP3   OH234281   1.327   0.918   3.471  0.0585  0.5422  0.1455
 4289TIP3    H134282   1.264   0.970   3.519  0.0451  0.2651  0.4342
 4289TIP3    H234283   1.343   0.967   3.390 -0.9598  0.3303 -0.2029
 4290TIP3   OH234284   0.172   3.634   0.718 -0.4337  0.1309 -0.1687
 4290TIP3    H134285   0.258   3.611   0.683 -0.9842 -1.7290 -0.4025
 4290TIP3    H234286   0.181   3.726   0.745  1.1086  0.5003 -1.7380
 4291TIP3   OH234287   6.551   0.248   1.759  0.2087  0.5769  0.1990
 4291TIP3    H134288   6.541   0.304   1.836  0.8625 -0.0239  0.7376
 4291TIP3    H234289   6.511   0.165   1.786 -0.3253  0.6253 -0.4198
 4292TIP3   OH234290   5.684   3.903   5.282  0.2653  0.1401 -0.3245
 4292TIP3    H134291   5.620   3.888   5.351  0.6057 -3.1613 -0.6026
 4292TIP3    H234292   5.760   3.849   5.306 -0.0766 -2.2177 -3.7717
 4293TIP3   OH234293   4.170   0.357  16.759  0.1194 -0.0674  0.2061
 4293TIP3    H134294   4.116   0.381  16.684  1.4049 -0.1806 -0.7873
 4293TIP3    H234295   4.227   0.287  16.727 -0.2813 -1.1351  1.7021
 4294TIP3   OH234296   1.954   2.572  13.439  0.6507  0.0414 -0.0862
 4294TIP3    H134297   1.985   2.572  13.348 -0.7927 -0.6579 -0.6082
 4294TIP3    H234298   1.892   2.499  13.443 -1.0059  1.4266  0.8541
 4295TIP3   OH234299   5.288   4.202  16.480 -0.3220 -0.5168  1.2044
 4295TIP3    H134300   5.331   4.117  16.463 -0.7069 -0.4288 -0.3964
 4295TIP3    H234301   5.322   4.229  16.565  2.5724 -0.6143  0.1943
 4296TIP3   OH234302   1.967   1.162  11.862  0.7562  0.4133 -0.5007
 4296TIP3    H134303   2.045   1.206  11.896  1.0903 -0.8827  0.4817
 4296TIP3    H234304   1.975   1.072  11.893 -1.4183  0.3869  0.1149
 4297TIP3   OH234305   2.754   4.915   4.569  0.2591  0.0481 -0.5581
 4297TIP3    H134306   2.822   4.901   4.503  0.2225 -0.3213 -0.5167
 4297TIP3    H234307   2.685   4.853   4.546  0.0529  0.2297 -0.4360
 4298TIP3   OH234308   0.585   1.359   4.235 -0.0350  0.6249  0.7299
 4298TIP3    H134309   0.551   1.382   4.322 -1.5357 -0.1701  0.3921
 4298TIP3    H234310   0.605   1.265   4.241 -1.1027  0.3236 -0.0387
 4299TIP3   OH234311   6.669   2.334  14.270  0.2254 -0.1003 -0.1953
 4299TIP3    H134312   6.612   2.304  14.341 -0.3838  0.2482 -0.5381
 4299TIP3    H234313   6.668   2.263  14.207  1.4278 -0.7733  0.5073
 4300TIP3   OH234314   6.387   6.304   4.368 -0.1123  0.3760  0.5100
 4300TIP3    H134315   6.401   6.398   4.355  0.0071  0.4496  1.1215
 4300TIP3    H234316   6.316   6.282   4.308 -0.4969  0.9675  0.7375
 4301TIP3   OH234317   4.508   1.221  15.133 -0.1304  0.1319  0.1954
 4301TIP3    H134318   4.489   1.246  15.043  1.0041  0.7973  0.1144
 4301TIP3    H234319   4.448   1.274  15.186 -2.3227 -1.8011 -0.1903
 4302TIP3   OH234320   0.058   1.776  13.492 -0.6458  0.3592 -0.1647
 4302TIP3    H134321   0.060   1.869  13.470  1.3026 -0.0689 -2.2114
 4302TIP3    H234322   0.148   1.746  13.479 -1.2045 -1.7986  0.5405
 4303TIP3   OH234323   6.562   1.760  10.949 -0.1170 -0.6665  0.2543
 4303TIP3    H134324   6.477   1.723  10.927  0.0017 -0.4056 -0.6649
 4303TIP3    H234325   6.612   1.758  10.868  1.0566 -1.5566  0.9540
 4304TIP3   OH234326   5.785   1.750   5.767 -0.5239  0.2978 -0.0123
 4304TIP3    H134327   5.781   1.737   5.673 -1.4158  0.0934  0.0448
 4304TIP3    H234328   5.699   1.722   5.799 -0.0433 -0.1497  0.9235
 4305TIP3   OH234329   3.650   5.301  12.846 -0.3300 -0.0366  0.8285
 4305TIP3    H134330   3.596   5.344  12.913  0.6892 -1.4259  2.6537
 4305TIP3    H234331   3.662   5.368  12.779 -1.3863  1.4743  2.0592
 4306TIP3   OH234332   2.921   0.940  17.250 -0.0457 -0.4198 -0.3148
 4306TIP3    H134333   2.911   1.028  17.212 -1.3429 -0.8830 -1.0945
 4306TIP3    H234334   2.895   0.880  17.180  1.0618 -1.4657  0.1172
 4307TIP3   OH234335   1.931   1.101   3.702  0.1890  0.2496 -0.6042
 4307TIP3    H134336   1.979   1.076   3.781 -0.1880  0.7503 -0.2124
 4307TIP3    H234337   1.914   1.194   3.713  0.6916  0.4700 -1.5797
 4308TIP3   OH234338   6.187   6.294  11.635 -0.0425  0.0081 -0.3035
 4308TIP3    H134339   6.260   6.275  11.694  0.2170  0.6552 -0.4157
 4308TIP3    H234340   6.212   6.374  11.590  0.0406 -0.8128 -1.7622
 4309TIP3   OH234341   1.370   0.470  15.341 -0.1113  0.3964  0.4981
 4309TIP3    H134342   1.288   0.497  15.382 -1.5324 -2.2950 -0.3413
 4309TIP3    H234343   1.433   0.539  15.364 -2.1610  1.6878  2.5689
 4310TIP3   OH234344   5.563   2.143  16.806 -0.3140  0.2672 -0.2664
 4310TIP3    H134345   5.529   2.054  16.805 -0.5424  0.3528 -1.9778
 4310TIP3    H234346   5.549   2.176  16.718  0.9269  1.5739 -0.0184
 4311TIP3   OH234347   1.456   4.136   3.597  0.1281  0.0957  0.2668
 4311TIP3    H134348   1.497   4.121   3.682  0.7031  1.4326  0.2421
 4311TIP3    H234349   1.365   4.157   3.617  0.3403  0.7292  0.5790
 4312TIP3   OH234350   2.325   5.797   5.864 -0.2939 -0.0700  0.1878
 4312TIP3    H134351   2.247   5.771   5.912 -0.3510  0.1759  0.2322
 4312TIP3    H234352   2.306   5.775   5.773 -0.3707 -0.1097  0.2136
 4313TIP3   OH234353   0.552   3.405  11.393 -0.1357 -0.0237  0.7804
 4313TIP3    H134354   0.563   3.491  11.433  1.5146 -0.3601  1.1065
 4313TIP3    H234355   0.578   3.416  11.302  0.0990 -0.1798  0.8279
 4314TIP3   OH234356   1.232   2.994  17.128 -0.5291 -0.1952  0.2607
 4314TIP3    H134357   1.208   3.047  17.204  3.2214  1.5815  0.4060
 4314TIP3    H234358   1.203   2.905  17.150 -1.8070  0.7363  2.5929
 4315TIP3   OH234359   4.266   6.610   2.816  0.0124 -0.2050 -0.1989
 4315TIP3    H134360   4.327   6.543   2.845 -2.3678 -1.9857  1.1121
 4315TIP3    H234361   4.318   6.690   2.810  2.0225 -1.1260  2.8317
 4316TIP3   OH234362   5.867   1.656  14.414  0.4799  0.0566 -0.0879
 4316TIP3    H134363   5.796   1.706  14.375  0.9516 -0.5664 -1.8628
 4316TIP3    H234364   5.914   1.718  14.469  0.1238  1.1609 -0.9979
 4317TIP3   OH234365   0.103   3.997  11.815 -0.4048 -0.1328 -0.3852
 4317TIP3    H134366   0.177   4.019  11.758 -0.6009  0.1462 -0.5380
 4317TIP3    H234367   0.095   3.902  11.809  0.9058 -0.3491  0.8279
 4318TIP3   OH234368   0.389   3.016  10.619  0.3666 -0.1792 -0.1485
 4318TIP3    H134369   0.370   3.043  10.709  2.3456 -2.0521  0.9292
 4318TIP3    H234370   0.475   3.052  10.601  0.9642 -1.6713 -0.4193
 4319TIP3   OH234371   3.291   2.888   1.646 -0.5398  0.2780 -0.1426
 4319TIP3    H134372   3.250   2.968   1.679  4.0550  2.5357  0.9170
 4319TIP3    H234373   3.306   2.834   1.724  3.6017  2.2753  0.7141
 4320TIP3   OH234374   1.773   1.504  12.524  0.5010 -0.5186  0.0196
 4320TIP3    H134375   1.846   1.495  12.462  1.0719  0.1047  0.5811
 4320TIP3    H234376   1.785   1.592  12.561  0.0069 -0.7825  0.8125
 4321TIP3   OH234377   2.094   1.376   1.007 -0.3956 -0.4054 -0.5732
 4321TIP3    H134378   2.184   1.408   0.995  0.2289 -2.2392 -0.9802
 4321TIP3    H234379   2.039   1.450   0.981  0.9008  1.8894  2.5261
 4322TIP3   OH234380   1.517   3.779  13.978  0.7844 -0.1660  0.7483
 4322TIP3    H134381   1.517   3.683  13.976  1.0504 -0.1655  0.5076
 4322TIP3    H234382   1.537   3.804  13.888 -1.0543  0.1436  0.3815
 4323TIP3   OH234383   6.116   2.495   2.468  0.1672  0.4362 -0.1702
 4323TIP3    H134384   6.176   2.516   2.396  0.2073  0.0211 -0.2579
 4323TIP3    H234385   6.029   2.508   2.431  0.1770  2.3693  0.3392
 4324TIP3   OH234386   2.013   5.085  11.526  0.3798 -0.0022 -0.4488
 4324TIP3    H134387   2.074   5.012  11.537  1.0138  0.7490  1.5103
 4324TIP3    H234388   2.016   5.105  11.432  1.2600 -1.5644 -0.7935
 4325TIP3   OH234389   4.615   6.531  14.302  0.5240 -0.2750  0.6571
 4325TIP3    H134390   4.618   6.444  14.343 -1.7252 -1.1161 -0.7756
 4325TIP3    H234391   4.691   6.532  14.244 -0.2795 -1.9842 -0.5167
 4326TIP3   OH234392   0.173   4.764   0.498  0.8433  0.0815  0.1697
 4326TIP3    H134393   0.083   4.732   0.487  1.1821 -0.4657 -1.3466
 4326TIP3    H234394   0.222   4.688   0.529  0.8635  0.2545  0.5576
 4327TIP3   OH234395   3.839   2.476   4.443 -0.0774 -0.2026 -0.3483
 4327TIP3    H134396   3.882   2.532   4.378 -0.1737  0.2621 -0.0081
 4327TIP3    H234397   3.779   2.421   4.391  1.2943 -1.2396 -0.9007
 4328TIP3   OH234398   6.592   0.410   3.648  0.4894  0.3499  0.3647
 4328TIP3    H134399   6.636   0.337   3.604 -2.1292 -0.0436 -1.8372
 4328TIP3    H234400   6.635   0.488   3.613  1.6262 -0.0540  0.8156
 4329TIP3   OH234401   5.947   6.400   0.658 -0.2955  0.3007 -0.0371
 4329TIP3    H134402   6.034   6.371   0.631  0.4299  1.5944  0.7841
 4329TIP3    H234403   5.887   6.360   0.595  0.9255 -0.3193 -0.8338
 4330TIP3   OH234404   2.626   6.054  17.024  0.3965 -1.1134  0.0259
 4330TIP3    H134405   2.716   6.047  17.057  0.3357 -2.3457 -0.0371
 4330TIP3    H234406   2.571   6.045  17.102  0.3135  0.3993  0.1775
 4331TIP3   OH234407   4.191   6.115  15.236 -0.3688  0.2562  0.1882
 4331TIP3    H134408   4.237   6.148  15.313 -1.3632  0.8280  0.5701
 4331TIP3    H234409   4.185   6.191  15.178 -0.2211  0.0079 -0.1497
 4332TIP3   OH234410   1.454   0.784  13.540 -0.0107 -0.4496  0.4218
 4332TIP3    H134411   1.426   0.865  13.583  0.3031  0.3804 -0.8790
 4332TIP3    H234412   1.380   0.759  13.484  1.1353  0.8830 -1.8153
 4333TIP3   OH234413   5.059   5.886  12.704  0.1471  0.2881 -0.0045
 4333TIP3    H134414   5.069   5.900  12.610 -0.2224 -1.0413 -0.2705
 4333TIP3    H234415   5.008   5.805  12.710  0.3395  0.2508  1.3377
 4334TIP3   OH234416   5.510   2.738   5.782  0.2306  0.1688  0.1250
 4334TIP3    H134417   5.587   2.774   5.826 -1.7126  2.7637  1.7048
 4334TIP3    H234418   5.475   2.673   5.844  0.4179 -0.0793 -0.0252
 4335TIP3   OH234419   0.914   6.367   1.610  0.1641 -0.4221 -0.3004
 4335TIP3    H134420   0.848   6.297   1.607  0.8067 -1.1797  1.5904
 4335TIP3    H234421   0.976   6.344   1.542 -1.6288  0.4717 -2.3442
 4336TIP3   OH234422   2.081   2.150   0.479  0.2010  0.2275 -1.0179
 4336TIP3    H134423   1.992   2.152   0.443 -0.8217  1.4900  1.3344
 4336TIP3    H234424   2.071   2.109   0.564  1.7761  0.9653 -0.4471
 4337TIP3   OH234425   5.190   5.308  11.034  0.4016 -0.6693 -0.1094
 4337TIP3    H134426   5.277   5.274  11.053  0.3000 -1.1816 -0.5217
 4337TIP3    H234427   5.153   5.244  10.973  0.3822  0.4454 -1.2925
 4338TIP3   OH234428   1.485   3.199  15.925 -0.2965 -0.4744  0.0977
 4338TIP3    H134429   1.459   3.239  15.842 -0.6495  0.6934  0.7502
 4338TIP3    H234430   1.576   3.175  15.913 -1.0444 -2.8173 -1.5542
 4339TIP3   OH234431   4.687   0.656  16.938  0.6600  0.2015 -0.4933
 4339TIP3    H134432   4.663   0.701  16.857 -1.9380 -0.7144 -0.3140
 4339TIP3    H234433   4.627   0.582  16.943  1.9209 -0.7631  1.4243
 4340TIP3   OH234434   6.284   2.053   1.368  0.1590 -0.8309  0.2014
 4340TIP3    H134435   6.288   2.092   1.455 -1.4196  1.4271 -0.6478
 4340TIP3    H234436   6.279   1.958   1.385  0.7899 -0.5147  2.4941
 4341TIP3   OH234437   2.948   0.800   1.703 -0.3295  0.6759 -0.6691
 4341TIP3    H134438   2.963   0.717   1.657 -1.4757  0.7467 -1.2192
 4341TIP3    H234439   2.992   0.790   1.787 -0.1674 -0.3571 -0.8694
 4342TIP3   OH234440   2.024   6.358   0.654  0.3608 -0.1109  0.2900
 4342TIP3    H134441   2.115   6.344   0.682 -0.5623 -1.1123  3.2490
 4342TIP3    H234442   2.015   6.453   0.650  1.6555  0.0015 -0.5484
 4343TIP3   OH234443   1.326   1.106  17.216  0.1921  0.4220  0.2073
 4343TIP3    H134444   1.370   1.175  17.165 -1.0765  0.3384 -1.0572
 4343TIP3    H234445   1.321   1.141  17.305  3.3346  0.1893  0.6220
 4344TIP3   OH234446   6.178   4.816  13.787 -0.1439 -0.3347 -0.1695
 4344TIP3    H134447   6.106   4.880  13.792 -0.6298 -0.7370 -1.5190
 4344TIP3    H234448   6.199   4.797  13.878 -0.0429  1.6861  0.2803
 4345TIP3   OH234449   5.560   0.459   3.808  0.4260 -0.0356  0.9143
 4345TIP3    H134450   5.500   0.385   3.804  2.4802 -2.0477  3.9106
 4345TIP3    H234451   5.602   0.461   3.723 -2.6274  0.5044 -0.7376
 4346TIP3   OH234452   1.516   3.861   2.412  0.1692 -0.4136  0.4585
 4346TIP3    H134453   1.465   3.925   2.363 -0.5286 -1.2034  0.1349
 4346TIP3    H234454   1.486   3.871   2.503  1.1638  0.7591  0.6779
 4347TIP3   OH234455   5.724   5.357  16.905  0.0594  0.5190 -0.3864
 4347TIP3    H134456   5.691   5.355  16.815  0.7004 -0.3257 -0.6070
 4347TIP3    H234457   5.648   5.386  16.957 -1.0959 -1.4814 -0.8634
 4348TIP3   OH234458   5.780   1.188  16.552 -0.5845  0.7865  0.1159
 4348TIP3    H134459   5.806   1.100  16.580  1.5479  1.6770  1.0821
 4348TIP3    H234460   5.765   1.236  16.633  1.6496  2.2451 -0.2521
 4349TIP3   OH234461   6.281   3.609  17.303  0.0756 -0.2975  0.0428
 4349TIP3    H134462   6.330   3.691  17.312 -1.8574  1.1517 -1.6836
 4349TIP3    H234463   6.338   3.542  17.342  2.0680  1.7216  0.7800
 4350TIP3   OH234464   5.847   2.243   5.243 -0.2075  0.1424  0.3545
 4350TIP3    H134465   5.822   2.306   5.176 -0.0036 -0.4195 -0.2624
 4350TIP3    H234466   5.776   2.179   5.244  0.3545 -0.4978 -0.1657
 4351TIP3   OH234467   3.535   5.092  13.552  0.0533  0.0146 -0.4013
 4351TIP3    H134468   3.568   5.106  13.463 -0.0338  1.2222 -0.2678
 4351TIP3    H234469   3.517   4.998  13.557  2.5630 -0.5740 -0.7910
 4352TIP3   OH234470   2.993   3.790  15.955  0.4066 -0.2640  0.0834
 4352TIP3    H134471   2.932   3.731  15.911 -0.4603 -0.6545  1.7227
 4352TIP3    H234472   3.064   3.734  15.985  3.7557  0.6075 -4.9642
 4353TIP3   OH234473   1.004   3.838   3.799 -0.7034  0.3598  0.0509
 4353TIP3    H134474   1.004   3.746   3.771 -1.9053 -0.0433  1.2187
 4353TIP3    H234475   0.966   3.885   3.725  0.6669  0.0526 -0.8782
 4354TIP3   OH234476   0.883   1.652   0.060 -0.3887  0.2015  0.2277
 4354TIP3    H134477   0.824   1.576   0.058  0.5298 -0.5372  0.3469
 4354TIP3    H234478   0.923   1.648   0.147 -0.3328  0.8363  0.2316
 4355TIP3   OH234479   2.741   1.404  14.992 -0.2155  0.4824 -0.1952
 4355TIP3    H134480   2.716   1.461  15.065 -1.7618 -0.4643  0.0750
 4355TIP3    H234481   2.795   1.459  14.935 -1.0989  2.0088  0.3873
 4356TIP3   OH234482   6.171   0.123   4.486  0.1248  0.3566  0.3387
 4356TIP3    H134483   6.154   0.113   4.392 -1.2805  0.8290  0.5162
 4356TIP3    H234484   6.263   0.148   4.492  0.7186 -1.4158 -0.7957
 4357TIP3   OH234485   0.237   0.489   4.311 -0.3275 -0.3854 -0.1811
 4357TIP3    H134486   0.323   0.523   4.286 -0.2663  0.7139  1.3998
 4357TIP3    H234487   0.244   0.395   4.297  0.6310 -0.1615 -1.4617
 4358TIP3   OH234488   5.630   4.216  11.428  0.0163  0.2224  0.4378
 4358TIP3    H134489   5.717   4.225  11.387  0.1045 -1.6074  0.1365
 4358TIP3    H234490   5.634   4.131  11.472 -1.8157 -0.1432 -0.0529
 4359TIP3   OH234491   6.204   3.675   1.212  0.1260 -0.4497  0.1960
 4359TIP3    H134492   6.194   3.717   1.297 -0.8385 -0.3861  0.0586
 4359TIP3    H234493   6.125   3.623   1.201 -0.4538  0.6699 -1.2873
 4360TIP3   OH234494   2.034   1.813  16.979 -0.2855 -0.4116  0.5014
 4360TIP3    H134495   2.077   1.767  16.907 -0.8663  3.2328 -2.4930
 4360TIP3    H234496   1.947   1.835  16.945  0.2006  3.4189  1.2791
 4361TIP3   OH234497   5.457   0.789   0.858 -0.0673 -0.3389  0.0410
 4361TIP3    H134498   5.390   0.843   0.899 -0.4339  0.2591 -1.3069
 4361TIP3    H234499   5.529   0.849   0.838  0.4512 -0.7787  0.5246
 4362TIP3   OH234500   4.003   6.741  14.397  0.0583 -0.3168 -0.1480
 4362TIP3    H134501   3.977   6.783  14.315 -1.8731  0.0642  0.6087
 4362TIP3    H234502   3.924   6.697  14.428  0.4958  0.2669  1.9556
 4363TIP3   OH234503   6.614   4.379   0.312  0.4409 -0.3839  0.0692
 4363TIP3    H134504   6.665   4.346   0.385  0.4222 -1.9220 -0.5744
 4363TIP3    H234505   6.679   4.409   0.248  0.4615  2.0967  1.1313
 4364TIP3   OH234506   0.344   4.106  13.228 -0.0970 -0.1594  0.2639
 4364TIP3    H134507   0.304   4.186  13.262 -0.2700 -0.4883  0.8479
 4364TIP3    H234508   0.388   4.068  13.304 -1.0741 -1.2625  0.2981
 4365TIP3   OH234509   5.225   0.458  14.684 -0.5108  0.2955  0.4130
 4365TIP3    H134510   5.190   0.536  14.641 -1.1382  0.1608  0.6767
 4365TIP3    H234511   5.201   0.386  14.626  0.6032  0.3543 -0.1441
 4366TIP3   OH234512   3.019   0.977   2.219  0.4916 -0.5575  0.4440
 4366TIP3    H134513   2.963   0.971   2.297  1.0684  1.9711  1.1347
 4366TIP3    H234514   3.106   0.952   2.251  0.5533 -0.4165  0.3871
 4367TIP3   OH234515   0.123   2.142  14.625 -0.4033 -0.3264 -0.1717
 4367TIP3    H134516   0.208   2.119  14.587  1.0006  1.2728  1.8063
 4367TIP3    H234517   0.060   2.108  14.561  1.7102  0.0721 -2.6935
 4368TIP3   OH234518   5.483   0.682  13.447 -0.0419  0.6453  0.1063
 4368TIP3    H134519   5.401   0.706  13.403 -0.8589 -0.9604  0.6622
 4368TIP3    H234520   5.537   0.643  13.378  0.5607  2.3340 -0.4074
 4369TIP3   OH234521   3.951   3.462  14.386 -0.2005  0.6178 -0.1856
 4369TIP3    H134522   3.868   3.459  14.433 -0.9148  1.8422 -1.3042
 4369TIP3    H234523   3.940   3.400  14.314  0.8584 -1.1877  1.1241
 4370TIP3   OH234524   6.572   0.540   4.269  0.8871  0.1507  0.7271
 4370TIP3    H134525   6.665   0.544   4.291  0.9277 -0.1966  0.6231
 4370TIP3    H234526   6.566   0.472   4.203  0.6542  0.6472  0.2268
 4371TIP3   OH234527   6.245   0.247  12.916  0.3628  0.4784 -0.1158
 4371TIP3    H134528   6.153   0.265  12.896  0.6027  2.2098  0.1910
 4371TIP3    H234529   6.255   0.154  12.900 -0.8967  0.6534 -2.3731
 4372TIP3   OH234530   4.429   0.506   3.090 -0.7939  0.3986  0.1481
 4372TIP3    H134531   4.401   0.426   3.134  1.6189 -0.0105  1.1173
 4372TIP3    H234532   4.356   0.529   3.033 -1.7632 -2.2264  0.1920
 4373TIP3   OH234533   6.180   2.373  17.166  0.1835  0.1739  0.2360
 4373TIP3    H134534   6.135   2.295  17.197 -0.9334  0.5399 -0.4260
 4373TIP3    H234535   6.138   2.445  17.213 -0.1226  0.5449 -0.6037
 4374TIP3   OH234536   4.538   0.711   4.385 -0.3374 -0.3801 -0.1124
 4374TIP3    H134537   4.578   0.787   4.427 -1.1422  0.0343 -0.0834
 4374TIP3    H234538   4.532   0.735   4.293 -0.3632 -0.5194 -0.1480
 4375TIP3   OH234539   6.581   0.593   2.928 -0.5737  0.0951  0.6064
 4375TIP3    H134540   6.516   0.656   2.960  1.3694  3.2008 -1.0364
 4375TIP3    H234541   6.665   0.632   2.951  0.7361 -1.7673 -0.7655
 4376TIP3   OH234542   6.055   6.050  14.900 -0.3774 -0.6143  0.1490
 4376TIP3    H134543   6.052   5.969  14.850 -0.6619 -0.4212 -0.1549
 4376TIP3    H234544   6.093   6.114  14.839 -0.3354 -0.4746  0.3192
 4377TIP3   OH234545   5.179   1.923   0.675 -0.1379  0.2829  0.2267
 4377TIP3    H134546   5.146   2.011   0.693 -2.8022 -0.7441  0.8660
 4377TIP3    H234547   5.176   1.915   0.580  0.4774  1.0024  0.1435
 4378TIP3   OH234548   3.884   5.598   3.890 -0.5502  0.5565 -0.1015
 4378TIP3    H134549   3.909   5.637   3.806 -1.3506 -0.0587 -0.6461
 4378TIP3    H234550   3.791   5.619   3.899 -0.2186  1.5918  1.1992
 4379TIP3   OH234551   5.215   6.474  14.339 -0.2044 -0.3618 -0.3805
 4379TIP3    H134552   5.286   6.507  14.395 -1.0057  1.5238 -0.4077
 4379TIP3    H234553   5.186   6.550  14.289 -0.7935 -1.5911 -1.9982
 4380TIP3   OH234554   1.659   4.289   3.034  0.0403  0.4553  0.2442
 4380TIP3    H134555   1.616   4.258   2.955 -3.1745  1.6063  1.4116
 4380TIP3    H234556   1.640   4.383   3.037  1.9827  0.8705  1.2985
 4381TIP3   OH234557   5.145   2.358  13.376  0.4346 -0.2618 -0.4455
 4381TIP3    H134558   5.120   2.340  13.285 -1.0898 -0.0613 -0.0907
 4381TIP3    H234559   5.075   2.317  13.428  0.4396  0.9901  0.5844
 4382TIP3   OH234560   5.084   2.335  14.099 -0.2914 -0.1102  0.0854
 4382TIP3    H134561   5.135   2.412  14.126  0.3722 -0.3626 -0.4350
 4382TIP3    H234562   5.094   2.331  14.004  0.9941 -1.7284  0.2407
 4383TIP3   OH234563   4.947   6.424  11.536  0.0464  0.9840 -0.5205
 4383TIP3    H134564   4.860   6.397  11.565  0.3855 -0.0621 -0.4230
 4383TIP3    H234565   4.936   6.450  11.445 -0.4502  1.3182 -0.3669
 4384TIP3   OH234566   4.733   6.150   3.626  0.0912 -0.4030  0.5009
 4384TIP3    H134567   4.688   6.195   3.555 -0.5304 -1.0931  0.4414
 4384TIP3    H234568   4.674   6.079   3.651  1.0822 -1.2732  0.4886
 4385TIP3   OH234569   1.322   4.701   3.872  0.6915  0.1102 -0.1522
 4385TIP3    H134570   1.299   4.680   3.963 -0.3368 -3.1532 -1.0407
 4385TIP3    H234571   1.270   4.779   3.852 -2.2130 -1.3954  0.9303
 4386TIP3   OH234572   1.864   1.548  11.850 -0.2615 -0.0418  0.1590
 4386TIP3    H134573   1.897   1.584  11.768  2.1094 -0.5676  0.7953
 4386TIP3    H234574   1.832   1.624  11.899 -0.8009  0.3955 -0.8564
 4387TIP3   OH234575   5.810   0.913  16.593  0.0307 -0.0565  0.5997
 4387TIP3    H134576   5.895   0.916  16.637  1.5232 -1.4044 -1.9313
 4387TIP3    H234577   5.768   0.834  16.627 -0.0121  0.3552  1.5182
 4388TIP3   OH234578   6.574   6.415  16.587  0.1580 -0.0184 -0.5266
 4388TIP3    H134579   6.657   6.454  16.614 -0.2270 -1.6822  4.0367
 4388TIP3    H234580   6.597   6.361  16.511  3.1732 -0.0101  0.2344
 4389TIP3   OH234581   5.916   0.375   5.027  0.0668 -0.2115 -0.2254
 4389TIP3    H134582   5.835   0.424   5.010 -1.5308 -1.6735  2.4260
 4389TIP3    H234583   5.929   0.322   4.949 -0.9270  0.8443 -1.1463
 4390TIP3   OH234584   2.751   2.808  13.804  0.2384 -0.1067 -0.5749
 4390TIP3    H134585   2.833   2.818  13.756 -0.0204 -0.0237 -0.9988
 4390TIP3    H234586   2.684   2.801  13.737  0.0895 -2.1530 -0.2982
 4391TIP3   OH234587   0.831   0.011  15.370  0.4938  0.0055 -0.0603
 4391TIP3    H134588   0.819  -0.046  15.294  2.1832  1.5650 -1.5861
 4391TIP3    H234589   0.765   0.079  15.360 -0.6879 -0.9226  1.0800
 4392TIP3   OH234590   4.679   2.330  15.016 -0.6398  0.3090  0.1117
 4392TIP3    H134591   4.708   2.416  14.986 -1.6641  0.3052 -0.9743
 4392TIP3    H234592   4.605   2.348  15.073 -0.1857  0.1851  0.7545
 4393TIP3   OH234593   4.116   6.012  17.152 -0.5874  0.1071  0.2167
 4393TIP3    H134594   4.122   5.922  17.119 -1.2951  0.6036 -1.4127
 4393TIP3    H234595   4.044   6.050  17.101 -1.1057  1.2460  1.7430
 4394TIP3   OH234596   0.443   4.436  17.289 -0.0060  0.1296  0.7369
 4394TIP3    H134597   0.511   4.485  17.336  0.4795  1.7248 -1.4064
 4394TIP3    H234598   0.370   4.498  17.283 -0.1687 -0.1454 -0.2559
 4395TIP3   OH234599   6.738   3.319  14.517  0.7942 -0.8492  0.0435
 4395TIP3    H134600   6.733   3.224  14.506  0.7852 -0.7201 -1.2797
 4395TIP3    H234601   6.676   3.354  14.453 -1.0642  0.0110  2.2017
 4396TIP3   OH234602   5.851   3.681   5.683  0.1103  0.0552 -0.4431
 4396TIP3    H134603   5.807   3.677   5.769  0.5330 -1.0284 -0.2678
 4396TIP3    H234604   5.941   3.705   5.704  0.6353 -1.7833 -0.3993
 4397TIP3   OH234605   2.498   3.105   2.928  0.5444 -0.0542  0.7697
 4397TIP3    H134606   2.507   3.174   2.862 -0.5441  0.2052  0.8724
 4397TIP3    H234607   2.422   3.055   2.900 -0.6635  0.7539  2.4223
 4398TIP3   OH234608   4.751   4.809  12.849  0.0146 -0.3323 -0.2585
 4398TIP3    H134609   4.802   4.728  12.845 -0.6894 -0.7413 -2.2461
 4398TIP3    H234610   4.749   4.841  12.758 -1.3209  0.9006  0.1560
 4399TIP3   OH234611   0.583   3.710   4.296  0.0193 -0.4948  0.5909
 4399TIP3    H134612   0.517   3.681   4.233  0.5637 -0.2536 -0.1119
 4399TIP3    H234613   0.550   3.681   4.381 -0.3957 -1.4391  0.1223
 4400TIP3   OH234614   6.656   0.075   3.021 -0.5451 -0.6407  0.0772
 4400TIP3    H134615   6.643   0.169   3.036  0.7662 -0.6771  1.7399
 4400TIP3    H234616   6.709   0.070   2.942 -0.3086  0.0548  0.1864
 4401TIP3   OH234617   2.641   5.196  12.600  0.4194  0.2924  0.2469
 4401TIP3    H134618   2.551   5.178  12.627 -0.4923  0.2623 -2.5046
 4401TIP3    H234619   2.678   5.247  12.672 -2.0254  0.9285  1.1357
 4402TIP3   OH234620   2.473   2.539  15.782  0.8620 -0.6475  0.1452
 4402TIP3    H134621   2.535   2.569  15.847  1.2492  2.0567 -1.3330
 4402TIP3    H234622   2.477   2.443  15.787  2.0274 -0.5351  2.9055
 4403TIP3   OH234623   3.015   4.608  13.698 -0.0229  0.1052 -0.0670
 4403TIP3    H134624   2.924   4.586  13.722  0.0764 -1.4607 -0.9898
 4403TIP3    H234625   3.062   4.525  13.704  2.4697  1.4621  4.6623
 4404TIP3   OH234626   0.592   4.787  15.493  0.6402  0.2252 -0.2114
 4404TIP3    H134627   0.593   4.744  15.579 -1.6879  1.4573  0.5382
 4404TIP3    H234628   0.628   4.874  15.511  2.7886 -0.4013 -1.1515
 4405TIP3   OH234629   6.036   2.778  11.468 -0.5095  0.6842 -0.8604
 4405TIP3    H134630   6.059   2.870  11.485  1.1337  0.3750 -1.2283
 4405TIP3    H234631   6.018   2.776  11.374 -0.8060  0.6736 -0.8036
 4406TIP3   OH234632   3.936   4.230  12.417 -0.2970 -0.5108 -0.7342
 4406TIP3    H134633   3.872   4.217  12.487 -0.3360  1.3828 -0.3708
 4406TIP3    H234634   3.883   4.235  12.337 -0.3893 -1.1512 -0.7169
 4407TIP3   OH234635   1.369   0.751  12.595  0.5933 -0.4160  0.2398
 4407TIP3    H134636   1.297   0.701  12.633  0.8439 -0.5712  0.5204
 4407TIP3    H234637   1.436   0.751  12.663 -0.6590  3.2759  1.7537
 4408TIP3   OH234638   0.443   2.164   0.575  0.2687  0.6592  0.0035
 4408TIP3    H134639   0.458   2.110   0.652 -0.6783 -1.7819 -1.4384
 4408TIP3    H234640   0.513   2.140   0.514 -0.9952 -0.1139 -1.2137
 4409TIP3   OH234641   3.219   4.311   3.238  0.6791  0.2622  0.7449
 4409TIP3    H134642   3.176   4.378   3.185 -0.6997  0.2263  1.7541
 4409TIP3    H234643   3.242   4.242   3.176 -0.6412  0.3359  0.1419
 4410TIP3   OH234644   1.125   2.606   3.914  0.1713  0.4675  0.2917
 4410TIP3    H134645   1.064   2.680   3.919  0.2396  0.5637 -0.2580
 4410TIP3    H234646   1.102   2.561   3.833  1.7500  1.3367 -0.6946
 4411TIP3   OH234647   4.733   5.491  12.016  0.4712  0.4839  0.0111
 4411TIP3    H134648   4.777   5.576  12.026  1.3916  0.0889 -0.5871
 4411TIP3    H234649   4.664   5.507  11.952  0.4587  0.8520  0.1139
 4412TIP3   OH234650   4.371   6.166   2.669  0.7630 -0.1633  0.2401
 4412TIP3    H134651   4.459   6.145   2.700  0.7218 -0.3959  0.2016
 4412TIP3    H234652   4.315   6.152   2.745  0.6876 -0.5477  0.1170
 4413TIP3   OH234653   6.162   2.551   0.725 -0.1440  0.9028  0.1455
 4413TIP3    H134654   6.165   2.597   0.809 -1.8163  0.6439  0.4002
 4413TIP3    H234655   6.181   2.618   0.660  2.7315  0.7882  0.7669
 4414TIP3   OH234656   4.808   3.611  16.644  0.2086  0.0482 -0.0851
 4414TIP3    H134657   4.717   3.582  16.650  0.3954 -0.2779  2.3216
 4414TIP3    H234658   4.858   3.530  16.636  0.3150  0.2235 -1.3514
 4415TIP3   OH234659   3.822   2.223   3.674  0.3675  0.3236 -0.3539
 4415TIP3    H134660   3.820   2.317   3.655  1.7248  0.2607 -0.9399
 4415TIP3    H234661   3.883   2.187   3.610 -0.4207 -1.0302 -0.3820
 4416TIP3   OH234662   5.957   5.494   4.573  0.0339  0.3712 -0.3841
 4416TIP3    H134663   5.943   5.500   4.667  2.3903  1.3790 -0.0391
 4416TIP3    H234664   5.941   5.401   4.552 -1.1464  0.2653  0.8586
 4417TIP3   OH234665   4.462   4.172  12.139  0.0654  0.4288 -0.4421
 4417TIP3    H134666   4.407   4.094  12.133 -1.1773  1.3260 -1.3364
 4417TIP3    H234667   4.478   4.184  12.232 -1.2113  0.0953 -0.1638
 4418TIP3   OH234668   1.814   3.223   2.221 -0.0490  0.0093 -1.3506
 4418TIP3    H134669   1.836   3.213   2.314  0.0518  0.6989 -1.2895
 4418TIP3    H234670   1.786   3.136   2.193 -0.2520 -0.1697 -0.6254
 4419TIP3   OH234671   5.678   4.187  14.398 -0.2210 -0.0811  0.3923
 4419TIP3    H134672   5.756   4.234  14.427  0.2711  0.5163 -1.7514
 4419TIP3    H234673   5.646   4.142  14.477 -0.2493  3.1135  2.3598
 4420TIP3   OH234674   6.554   4.566  15.202 -0.6155  0.2537 -0.0840
 4420TIP3    H134675   6.547   4.653  15.241 -0.6161  0.6851 -1.0153
 4420TIP3    H234676   6.648   4.551  15.192 -0.4346 -1.0377  2.5786
 4421TIP3   OH234677   2.328   0.291   2.578  0.5746  0.0576  0.1314
 4421TIP3    H134678   2.324   0.352   2.505  0.2281 -1.5957 -1.2929
 4421TIP3    H234679   2.236   0.276   2.602  0.6802  0.4917  0.8422
 4422TIP3   OH234680   5.167   1.885  11.687  0.2369 -0.3279  0.1093
 4422TIP3    H134681   5.095   1.850  11.635  1.0937  0.4810 -1.7072
 4422TIP3    H234682   5.170   1.830  11.765 -1.2749 -1.4089 -0.5560
 4423TIP3   OH234683   5.474   0.200   6.311  0.0495  0.2634  0.5054
 4423TIP3    H134684   5.515   0.285   6.324 -2.3311  1.4983  0.6029
 4423TIP3    H234685   5.534   0.153   6.254  1.6212  1.8473  0.7471
 4424TIP3   OH234686   3.563   0.120   3.278  0.1788 -0.3876 -0.2768
 4424TIP3    H134687   3.586   0.165   3.196  0.0929 -0.0889 -0.1391
 4424TIP3    H234688   3.489   0.065   3.254 -0.3305  0.2670 -0.2333
 4425TIP3   OH234689   4.292   2.362   0.284  0.0832  0.8854 -0.0098
 4425TIP3    H134690   4.257   2.273   0.278 -0.9301  1.1006  1.8075
 4425TIP3    H234691   4.380   2.356   0.248  0.3690 -1.0680  0.8907
 4426TIP3   OH234692   1.023   1.812   2.393  0.3844  0.4661  0.0860
 4426TIP3    H134693   0.996   1.720   2.386 -1.0650  0.5236  3.3106
 4426TIP3    H234694   1.119   1.809   2.384  0.2519 -1.1278 -1.3408
 4427TIP3   OH234695   6.303   5.418  14.090  0.0678 -0.1865  0.0392
 4427TIP3    H134696   6.235   5.472  14.051  0.8310 -0.1695 -1.3202
 4427TIP3    H234697   6.293   5.333  14.047 -0.0235 -0.6203  0.9059
 4428TIP3   OH234698   6.276   3.899   0.292  0.2149  0.2980  0.1292
 4428TIP3    H134699   6.366   3.876   0.266  1.0783  2.5992  0.8782
 4428TIP3    H234700   6.253   3.833   0.358  1.3554 -0.3122 -0.0595
 4429TIP3   OH234701   0.249   0.906   2.512 -0.0869  0.1370 -0.0165
 4429TIP3    H134702   0.216   0.853   2.440  0.9231 -0.7124  0.1305
 4429TIP3    H234703   0.246   0.996   2.479  0.3010 -0.2364 -1.0902
 4430TIP3   OH234704   5.838   2.030  12.399  0.7488  0.4863 -0.4231
 4430TIP3    H134705   5.869   2.055  12.486 -0.5575 -1.3098  0.6400
 4430TIP3    H234706   5.798   1.944  12.412  0.3859  0.2208 -2.7960
 4431TIP3   OH234707   2.941   3.811  12.967 -0.6751 -0.0531 -0.3058
 4431TIP3    H134708   2.925   3.738  12.907  0.4781 -0.8762  0.3424
 4431TIP3    H234709   3.035   3.830  12.958 -0.8533  1.0124 -0.0786
 4432TIP3   OH234710   0.451   3.546   5.463 -0.1556 -0.0387  0.5196
 4432TIP3    H134711   0.456   3.625   5.410  2.7112  0.2551  1.0364
 4432TIP3    H234712   0.375   3.559   5.520 -0.3110  1.9065 -0.0641
 4433TIP3   OH234713   2.780   4.037  11.382 -0.1820 -0.1321  0.4905
 4433TIP3    H134714   2.696   4.063  11.343 -0.4890 -1.3567  0.2754
 4433TIP3    H234715   2.845   4.056  11.314 -0.5893 -1.3069 -0.2486
 4434TIP3   OH234716   1.425   5.083  10.625 -0.5194 -0.2252  0.0539
 4434TIP3    H134717   1.505   5.126  10.596 -0.5297  0.2261  0.6788
 4434TIP3    H234718   1.454   4.996  10.653 -0.2217 -0.0317  0.3667
 4435TIP3   OH234719   0.964   6.472  15.715 -0.6285  0.0798  0.5987
 4435TIP3    H134720   1.037   6.483  15.776 -1.7258  0.7182  1.8357
 4435TIP3    H234721   0.999   6.415  15.646  0.8852 -0.0050  1.3975
 4436TIP3   OH234722   1.628   1.170  15.840  0.5366  0.6419 -0.2528
 4436TIP3    H134723   1.642   1.092  15.895  0.9634 -0.6882 -2.1394
 4436TIP3    H234724   1.606   1.239  15.902 -0.5572 -1.1401  1.4735
 4437TIP3   OH234725   0.109   1.126   4.383 -0.0937 -0.0852  0.4528
 4437TIP3    H134726   0.014   1.143   4.385 -0.2637 -0.5596 -1.5881
 4437TIP3    H234727   0.140   1.170   4.305  0.8483 -2.3025 -0.5164
 4438TIP3   OH234728   0.381   2.155  15.858  0.0030  0.2552  0.0021
 4438TIP3    H134729   0.391   2.232  15.802  1.4839 -0.6723 -1.0958
 4438TIP3    H234730   0.416   2.183  15.943  1.4290  0.5636 -0.6442
 4439TIP3   OH234731   2.485   5.360  10.892  0.4537 -0.1391  0.8076
 4439TIP3    H134732   2.429   5.285  10.876 -1.5122  1.4656 -0.3319
 4439TIP3    H234733   2.515   5.387  10.805 -1.3190  2.0944  0.7737
 4440TIP3   OH234734   3.053   1.817  11.542 -0.4109  0.6768  0.1165
 4440TIP3    H134735   3.084   1.774  11.621  4.5259  0.3686 -1.5896
 4440TIP3    H234736   3.030   1.746  11.483  2.7488  0.3699 -0.9317
 4441TIP3   OH234737   2.885   2.398   2.072 -0.1488  0.3242 -0.3444
 4441TIP3    H134738   2.872   2.384   1.978 -0.2679  3.3154 -0.8700
 4441TIP3    H234739   2.798   2.419   2.105  0.1395  0.8274  0.1050
 4442TIP3   OH234740   6.463   2.288  11.868  0.4745 -0.1130 -0.2313
 4442TIP3    H134741   6.474   2.309  11.775  1.2655  0.6091  0.0173
 4442TIP3    H234742   6.519   2.211  11.881  1.8334  0.8773  0.0310
 4443TIP3   OH234743   0.678   5.985  12.349  0.4866  0.5600  0.2933
 4443TIP3    H134744   0.594   5.946  12.375  0.1993  1.5378  0.8838
 4443TIP3    H234745   0.663   6.015  12.259  0.4599  0.0330  0.1180
 4444TIP3   OH234746   0.663   3.849  14.102 -0.1200  0.4600  0.1645
 4444TIP3    H134747   0.648   3.847  14.007 -3.0287  1.8239  0.4709
 4444TIP3    H234748   0.609   3.922  14.133 -0.0336 -0.5523  2.9845
 4445TIP3   OH234749   2.787   4.295   3.718 -0.1184 -0.1074 -0.3003
 4445TIP3    H134750   2.731   4.228   3.680 -0.2286 -0.1521 -0.0659
 4445TIP3    H234751   2.766   4.375   3.670 -1.6906  0.2913  0.9297
 4446TIP3   OH234752   5.071   0.751   5.010 -0.1680  0.1425 -0.9405
 4446TIP3    H134753   5.058   0.656   5.019 -1.5631  0.4340  0.4136
 4446TIP3    H234754   4.987   0.789   5.033  1.6853  1.9907  3.9570
 4447TIP3   OH234755   4.630   1.050  11.550  0.4592 -0.4125 -0.1011
 4447TIP3    H134756   4.702   1.098  11.591  0.6539 -0.3342 -0.5302
 4447TIP3    H234757   4.583   1.117  11.500 -0.3223 -0.3258  0.7154
 4448TIP3   OH234758   0.242   2.030  11.635 -0.4414  0.0824  0.2114
 4448TIP3    H134759   0.231   2.091  11.562  0.5034  1.0579  0.8592
 4448TIP3    H234760   0.226   2.083  11.713  0.9903 -0.3294  0.8135
 4449TIP3   OH234761   1.763   4.703   1.679  0.6147 -0.0436 -0.8895
 4449TIP3    H134762   1.816   4.631   1.714  0.2772  0.7464  1.4233
 4449TIP3    H234763   1.681   4.698   1.727  0.4688  1.6920 -0.8785
 4450TIP3   OH234764   2.144   4.571  12.653 -0.3440 -0.0318  0.1772
 4450TIP3    H134765   2.065   4.562  12.600 -0.3124 -1.0800  0.2721
 4450TIP3    H234766   2.146   4.663  12.679 -0.2552  0.5567 -1.7725
 4451TIP3   OH234767   4.291   4.926   1.763  0.3253 -0.7648  0.0491
 4451TIP3    H134768   4.320   4.869   1.692  0.2356 -0.8380  0.0708
 4451TIP3    H234769   4.370   4.941   1.815  0.1694 -1.5978  0.5471
 4452TIP3   OH234770   6.289   4.153  10.955 -0.1674  0.1896 -0.8309
 4452TIP3    H134771   6.331   4.073  10.923  2.8627  1.1306  0.4205
 4452TIP3    H234772   6.334   4.224  10.909 -0.5976  1.2794  0.3598
 4453TIP3   OH234773   4.137   1.196  14.027 -0.0478 -0.1332  0.1074
 4453TIP3    H134774   4.043   1.191  14.044  0.0677 -1.6997  0.5043
 4453TIP3    H234775   4.167   1.270  14.080 -0.7095 -1.0593  1.8719
 4454TIP3   OH234776   5.549   0.784   0.137  0.0170 -0.2680 -0.3265
 4454TIP3    H134777   5.624   0.736   0.102  0.8255  0.5249  0.2816
 4454TIP3    H234778   5.514   0.832   0.062  1.4336  1.0307 -0.2085
 4455TIP3   OH234779   0.113   6.609  13.245 -1.1005  0.8805 -0.0195
 4455TIP3    H134780   0.199   6.577  13.272 -1.6857  0.2041  1.1158
 4455TIP3    H234781   0.110   6.700  13.274 -1.0115  0.7087  0.5327
 4456TIP3   OH234782   3.845   0.069   0.761 -0.2833  0.0834  0.6217
 4456TIP3    H134783   3.854   0.027   0.846  1.1410 -0.1303  0.3955
 4456TIP3    H234784   3.791   0.008   0.710  1.1382 -1.1747  0.5283
 4457TIP3   OH234785   4.540   1.067  16.245 -0.0826  0.0740 -0.2498
 4457TIP3    H134786   4.554   1.002  16.177  1.7123  0.0642  0.0874
 4457TIP3    H234787   4.574   1.148  16.209  0.1680  0.2322  0.3199
 4458TIP3   OH234788   2.322   5.459  15.211  0.2034  0.3345 -0.1272
 4458TIP3    H134789   2.352   5.422  15.294  0.3355  0.6509 -0.0354
 4458TIP3    H234790   2.403   5.480  15.164  0.1702 -1.1902 -0.9506
 4459TIP3   OH234791   0.105   2.565   3.804  0.5394 -0.4153 -0.3028
 4459TIP3    H134792   0.125   2.657   3.792  1.1111 -0.5915 -0.7356
 4459TIP3    H234793   0.130   2.547   3.895  0.1670 -0.0817 -0.1333
 4460TIP3   OH234794   4.710   0.758   5.289  0.7278  0.0488  0.1702
 4460TIP3    H134795   4.737   0.681   5.239 -0.5647  0.4983 -1.3215
 4460TIP3    H234796   4.693   0.725   5.377  2.0636 -0.9789  0.0760
 4461TIP3   OH234797   2.281   3.832  12.056  0.6628 -0.5065 -0.5251
 4461TIP3    H134798   2.203   3.779  12.039  1.5672 -1.2748 -2.5699
 4461TIP3    H234799   2.328   3.783  12.124 -1.5816  1.0666  2.3509
 4462TIP3   OH234800   6.605   6.749  12.190 -0.4604 -1.0325  0.0145
 4462TIP3    H134801   6.658   6.674  12.163 -2.0776 -1.3511 -2.5927
 4462TIP3    H234802   6.639   6.822  12.137  0.4065 -0.0876  1.7678
 4463TIP3   OH234803   0.277   2.898   3.634  0.3943  0.1369  0.0176
 4463TIP3    H134804   0.199   2.851   3.602  0.4613  0.7615 -1.1238
 4463TIP3    H234805   0.245   2.949   3.709 -0.0695 -0.3556  0.1630
 4464TIP3   OH234806   5.887   4.006  12.782  0.3745  0.3660  0.3486
 4464TIP3    H134807   5.792   4.001  12.797  0.0451 -1.0467 -1.6805
 4464TIP3    H234808   5.903   4.098  12.760 -0.5269  0.6267  0.7451
 4465TIP3   OH234809   2.256   1.529   1.628  0.2133 -0.5762 -0.5383
 4465TIP3    H134810   2.250   1.477   1.708  0.3750 -0.6660 -0.5836
 4465TIP3    H234811   2.231   1.468   1.558  0.4423 -0.6063 -0.5963
 4466TIP3   OH234812   2.485   0.549   3.806 -0.4088 -0.4769 -0.9612
 4466TIP3    H134813   2.458   0.567   3.716 -0.9544 -0.6686 -0.8391
 4466TIP3    H234814   2.490   0.454   3.811  0.1411 -0.4491 -0.9359
 4467TIP3   OH234815   2.016   1.407   4.641 -0.0590  0.7875  0.4741
 4467TIP3    H134816   2.110   1.418   4.654  0.0026  0.2184  0.5639
 4467TIP3    H234817   2.010   1.345   4.568 -0.3554  0.4932  0.7470
 4468TIP3   OH234818   1.453   0.306   6.579 -0.6978  0.2519 -0.4313
 4468TIP3    H134819   1.451   0.272   6.668 -1.5607 -0.7930 -0.8258
 4468TIP3    H234820   1.421   0.234   6.525 -0.0672  0.8219 -1.6094
 4469TIP3   OH234821   4.242   6.441  11.852 -0.2599  0.0344 -0.0226
 4469TIP3    H134822   4.175   6.507  11.835 -0.1257 -0.4632 -3.1543
 4469TIP3    H234823   4.238   6.382  11.776  4.2727  0.4726 -0.9227
 4470TIP3   OH234824   6.099   4.677   3.866  0.3728  0.2637  0.1803
 4470TIP3    H134825   6.065   4.587   3.872  0.1006  0.3776  0.3793
 4470TIP3    H234826   6.024   4.732   3.890 -0.0192  0.6292 -1.7042
 4471TIP3   OH234827   4.998   4.258  16.629 -0.2856 -0.5248 -0.4725
 4471TIP3    H134828   5.047   4.197  16.574 -1.8937 -1.4816 -0.9007
 4471TIP3    H234829   5.016   4.344  16.591  1.0421 -0.8500 -0.6122
 4472TIP3   OH234830   2.189   3.578  14.253 -0.3857 -0.6523  0.2108
 4472TIP3    H134831   2.103   3.540  14.270 -0.8326  0.9763  1.7642
 4472TIP3    H234832   2.174   3.672  14.246  1.1615 -0.4055 -0.2449
 4473TIP3   OH234833   4.883   6.667  11.115 -0.7921  0.1642  0.1787
 4473TIP3    H134834   4.912   6.724  11.186  0.6410  2.0678 -1.8039
 4473TIP3    H234835   4.963   6.627  11.081 -1.0503  1.2545 -1.9040
 4474TIP3   OH234836   3.451   5.368   0.938  0.5509 -0.2324  0.0288
 4474TIP3    H134837   3.525   5.310   0.956  0.2820 -1.1475 -1.5806
 4474TIP3    H234838   3.478   5.419   0.862  0.3577  1.0147  0.7804
 4475TIP3   OH234839   4.010   4.729  16.825 -0.0360  0.9282  0.1417
 4475TIP3    H134840   3.933   4.785  16.829 -0.3245  0.4953  0.8549
 4475TIP3    H234841   3.982   4.646  16.862  1.1908  1.2776  2.0479
 4476TIP3   OH234842   5.865   4.301   3.242  0.0073 -0.0804  0.4054
 4476TIP3    H134843   5.877   4.236   3.311  0.1982  0.7287  1.1393
 4476TIP3    H234844   5.900   4.259   3.163 -0.9668 -1.3376  0.6006
 4477TIP3   OH234845   5.573   1.035  14.852 -0.2664  0.2640 -0.3182
 4477TIP3    H134846   5.491   1.017  14.899  0.2615 -1.4706  0.0026
 4477TIP3    H234847   5.570   1.129  14.834 -2.8926  0.0718 -1.3836
 4478TIP3   OH234848   0.837   4.906   2.763 -0.3111  0.1379 -0.4476
 4478TIP3    H134849   0.926   4.878   2.787 -0.7329 -1.8077 -0.9435
 4478TIP3    H234850   0.782   4.830   2.782 -1.8863  1.2838 -0.2155
 4479TIP3   OH234851   3.023   2.441  15.252 -0.5395 -0.2200  0.8195
 4479TIP3    H134852   3.038   2.488  15.171 -0.2305  0.2212  1.1287
 4479TIP3    H234853   3.104   2.393  15.268 -0.6959 -0.5180  0.7315
 4480TIP3   OH234854   4.438   4.233   0.585 -0.1601 -0.4976 -0.3734
 4480TIP3    H134855   4.491   4.311   0.599 -1.7472  0.3249  1.4777
 4480TIP3    H234856   4.499   4.160   0.596  0.9424  0.4334 -0.1941
 4481TIP3   OH234857   3.374   4.187   4.895 -0.0736 -0.0020 -0.0824
 4481TIP3    H134858   3.406   4.275   4.874  0.6768 -0.3954 -0.6277
 4481TIP3    H234859   3.374   4.141   4.811 -2.2627  0.0185 -0.1561
 4482TIP3   OH234860   3.167   1.552   2.904  0.5172 -0.0567 -0.3369
 4482TIP3    H134861   3.150   1.510   2.820  1.4994 -0.6053 -0.2827
 4482TIP3    H234862   3.113   1.504   2.967 -0.3988  0.5077 -0.6799
 4483TIP3   OH234863   5.662   6.505  11.677 -0.3637  0.1486 -0.4014
 4483TIP3    H134864   5.594   6.529  11.739 -0.5384 -1.0219 -0.1169
 4483TIP3    H234865   5.665   6.409  11.680  1.1020  0.1605 -0.6129
 4484TIP3   OH234866   1.822   2.029   1.278 -0.0133 -0.2503  0.1427
 4484TIP3    H134867   1.881   2.051   1.350 -1.1903 -1.5509  1.5645
 4484TIP3    H234868   1.838   1.936   1.261 -1.1170 -0.4409  0.0608
 4485TIP3   OH234869   1.685   2.121  13.375 -0.3500  0.4099 -0.2315
 4485TIP3    H134870   1.736   2.057  13.325 -0.4613 -0.3364  0.5878
 4485TIP3    H234871   1.612   2.143  13.318 -0.0612  0.1611 -0.7073
 4486TIP3   OH234872   3.061   4.270   3.733  0.1189  0.3499 -0.1959
 4486TIP3    H134873   2.968   4.293   3.734 -0.1951 -0.8476 -0.1647
 4486TIP3    H234874   3.086   4.276   3.640 -0.2281 -0.2153 -0.3292
 4487TIP3   OH234875   6.193   4.163   0.353  0.2373 -1.0019 -0.4580
 4487TIP3    H134876   6.155   4.192   0.270  2.2912 -1.4118 -1.6130
 4487TIP3    H234877   6.191   4.068   0.348  1.4058 -1.0355 -0.5880
 4488TIP3   OH234878   5.211   6.674  12.134 -0.3729  0.1487  0.0744
 4488TIP3    H134879   5.185   6.606  12.072  1.6863 -0.3562 -0.3124
 4488TIP3    H234880   5.226   6.752  12.079 -1.4320  0.5560  0.3451
 4489TIP3   OH234881   5.629   3.520   5.305  0.1880 -0.3585  0.0555
 4489TIP3    H134882   5.616   3.568   5.386  1.0365  1.3828 -0.7681
 4489TIP3    H234883   5.678   3.581   5.249  0.2611 -1.7638 -1.4972
 4490TIP3   OH234884   6.417   4.803  12.242  0.4575 -0.4354  0.2705
 4490TIP3    H134885   6.446   4.768  12.157 -0.2856 -0.6710  0.1055
 4490TIP3    H234886   6.468   4.753  12.306  2.3190  0.9513 -0.0528
 4491TIP3   OH234887   0.006   0.785   3.014  0.1996  0.1380 -0.6668
 4491TIP3    H134888   0.007   0.802   2.920  0.4078 -0.6387 -0.8177
 4491TIP3    H234889   0.019   0.870   3.054 -0.9438  0.6528 -1.3159
 4492TIP3   OH234890   3.343   2.803  16.921  0.4057  0.0408 -0.2469
 4492TIP3    H134891   3.430   2.764  16.927  0.0282 -0.6687  1.0024
 4492TIP3    H234892   3.310   2.773  16.836  1.0711 -0.3442 -0.3824
 4493TIP3   OH234893   6.118   2.089  12.963 -0.1821 -0.3945  0.1318
 4493TIP3    H134894   6.081   2.172  12.995 -0.1166 -0.3697  0.1434
 4493TIP3    H234895   6.202   2.114  12.924 -0.7487 -0.2463 -1.0616
 4494TIP3   OH234896   6.264   4.302  14.816 -0.5285  0.6461 -0.2931
 4494TIP3    H134897   6.291   4.359  14.744 -1.2460  2.9164  1.1035
 4494TIP3    H234898   6.326   4.323  14.886  1.0718 -2.5642 -0.5737
 4495TIP3   OH234899   5.903   0.126  15.630 -0.4515 -0.3097 -0.5987
 4495TIP3    H134900   5.884   0.036  15.602 -2.4612  0.2707 -1.2512
 4495TIP3    H234901   5.836   0.146  15.695 -0.0908  0.7505 -0.5285
 4496TIP3   OH234902   3.297   2.048   2.164 -0.1385  0.1342 -0.5545
 4496TIP3    H134903   3.322   2.083   2.250 -0.1559  2.3206 -1.3886
 4496TIP3    H234904   3.378   2.051   2.113 -0.0302 -1.5626 -0.5202
 4497TIP3   OH234905   5.932   1.067  15.280 -0.4009 -0.0907  0.5372
 4497TIP3    H134906   6.025   1.049  15.286 -0.3591 -0.4386 -0.8592
 4497TIP3    H234907   5.889   0.988  15.311 -0.2397  0.2061  1.5311
 4498TIP3   OH234908   0.819   1.912   3.951  0.1095  0.0949 -0.2280
 4498TIP3    H134909   0.805   1.867   3.868  0.0510  0.1089 -0.2260
 4498TIP3    H234910   0.766   1.863   4.014  0.4245 -0.1233 -0.1319
 4499TIP3   OH234911   0.510   2.253  15.478  0.3562 -0.6930 -0.4921
 4499TIP3    H134912   0.457   2.223  15.404 -0.6984  1.0018 -0.4732
 4499TIP3    H234913   0.599   2.257  15.444 -0.1034 -0.0039 -1.6620
 4500TIP3   OH234914   5.853   1.417  11.223 -0.2300  0.7548 -0.0083
 4500TIP3    H134915   5.872   1.457  11.138 -1.6949  0.9687 -0.2590
 4500TIP3    H234916   5.860   1.323  11.206 -0.0585  0.8080 -0.2477
 4501TIP3   OH234917   1.862   1.156  16.438 -0.0193 -0.1485 -0.3068
 4501TIP3    H134918   1.893   1.218  16.503  2.5235 -1.2935 -0.3155
 4501TIP3    H234919   1.815   1.209  16.374  1.1840  1.6083  0.2023
 4502TIP3   OH234920   3.769   1.902  12.872 -0.2014 -0.2304  0.0377
 4502TIP3    H134921   3.820   1.829  12.837 -0.5788 -1.9218  2.7310
 4502TIP3    H234922   3.678   1.877  12.858 -0.3469 -0.6895  1.6130
 4503TIP3   OH234923   4.625   4.633  13.032 -0.0689 -0.2848  0.2193
 4503TIP3    H134924   4.668   4.713  13.001 -1.2715  0.5417  0.6121
 4503TIP3    H234925   4.572   4.603  12.958  0.8729 -1.1046 -0.1465
 4504TIP3   OH234926   4.173   4.085  14.996 -0.5601  0.3031 -0.6343
 4504TIP3    H134927   4.217   4.168  15.013 -0.6765  0.6255 -1.8246
 4504TIP3    H234928   4.142   4.092  14.906  1.0874 -1.7689 -1.4489
 4505TIP3   OH234929   5.621   6.454   5.804 -0.6444 -0.2200  0.1284
 4505TIP3    H134930   5.572   6.389   5.854 -0.2154  0.5136  1.5665
 4505TIP3    H234931   5.555   6.514   5.772 -1.1062 -1.5990 -1.6598
 4506TIP3   OH234932   0.676   2.694  15.231  0.0153  0.0779  0.0263
 4506TIP3    H134933   0.697   2.601  15.239 -0.6228 -0.3706 -2.5341
 4506TIP3    H234934   0.583   2.696  15.206  0.5742  1.1721 -2.3391
 4507TIP3   OH234935   6.502   3.855   3.307  0.6181 -0.0986  0.6892
 4507TIP3    H134936   6.557   3.780   3.329  0.3094 -0.2647  0.9141
 4507TIP3    H234937   6.434   3.819   3.250  1.8631  0.4772 -1.2493
 4508TIP3   OH234938   1.391   3.453  15.691 -0.2136  0.3516 -0.1642
 4508TIP3    H134939   1.348   3.532  15.658 -0.9430  1.0710  2.3173
 4508TIP3    H234940   1.429   3.479  15.775 -0.6214 -1.9592  0.8186
 4509TIP3   OH234941   3.452   1.825   1.506 -0.0778  0.0751 -0.4382
 4509TIP3    H134942   3.522   1.868   1.556 -1.7693  1.4085  0.8718
 4509TIP3    H234943   3.447   1.737   1.545 -0.5992  0.7178  1.0231
 4510TIP3   OH234944   1.234   2.911   0.391 -0.5651  0.4902  0.0996
 4510TIP3    H134945   1.177   2.975   0.434 -0.0466  0.6280  0.5953
 4510TIP3    H234946   1.302   2.964   0.349 -0.6819  0.3161 -0.3075
 4511TIP3   OH234947   2.948   2.089  15.417  0.0740  0.6077  0.2537
 4511TIP3    H134948   2.955   2.035  15.497 -0.5917  0.6054  0.3119
 4511TIP3    H234949   2.868   2.139  15.429 -0.2211  0.3454 -0.5796
 4512TIP3   OH234950   0.311   2.358   4.504  0.0647 -0.1055  0.1826
 4512TIP3    H134951   0.225   2.335   4.540 -0.2296 -0.5304 -0.7665
 4512TIP3    H234952   0.360   2.392   4.579 -0.6928 -0.5257  0.8822
 4513TIP3   OH234953   6.613   0.936  13.321 -0.2026  0.0597 -0.2225
 4513TIP3    H134954   6.526   0.965  13.291 -0.3021 -0.8248 -0.8184
 4513TIP3    H234955   6.596   0.892  13.405 -0.0939  1.3730  0.5177
 4514TIP3   OH234956   4.544   5.140  14.363  0.6532 -0.5210 -0.1634
 4514TIP3    H134957   4.533   5.233  14.344  0.0154 -0.1740  1.7156
 4514TIP3    H234958   4.463   5.099  14.332  1.0248 -0.5047 -1.1916
 4515TIP3   OH234959   3.141   3.327   3.100  0.5649 -0.1509  0.0160
 4515TIP3    H134960   3.143   3.423   3.098 -0.6591 -0.0458  1.7772
 4515TIP3    H234961   3.204   3.304   3.169 -0.3706 -0.5181  0.7586
 4516TIP3   OH234962   2.883   6.582   0.293 -0.2151  0.1989 -0.2928
 4516TIP3    H134963   2.848   6.625   0.215 -0.8250  1.4890  0.6454
 4516TIP3    H234964   2.941   6.646   0.333 -0.7150 -0.0340  0.8621
 4517TIP3   OH234965   0.225   1.062   1.886  0.6362 -0.1763 -0.4056
 4517TIP3    H134966   0.203   1.042   1.977  0.7910 -0.2555 -0.3859
 4517TIP3    H234967   0.221   0.978   1.841 -3.5697  0.3032 -1.3843
 4518TIP3   OH234968   5.160   2.014   4.981 -0.0780  0.4618 -0.1156
 4518TIP3    H134969   5.219   1.950   5.021 -0.5702 -0.4434 -0.7965
 4518TIP3    H234970   5.206   2.097   4.988  1.1943 -0.1905 -0.4397
 4519TIP3   OH234971   2.348   2.756   2.523  0.3658  0.3327 -0.7610
 4519TIP3    H134972   2.378   2.843   2.549 -0.6884  0.6179 -0.4360
 4519TIP3    H234973   2.352   2.757   2.427 -2.0288  1.6896 -0.9334
 4520TIP3   OH234974   4.258   1.652   4.203 -0.1898 -0.1560 -0.7025
 4520TIP3    H134975   4.206   1.689   4.275 -1.6645  0.3952 -2.0107
 4520TIP3    H234976   4.326   1.717   4.187 -0.3758  0.1277 -0.3715
 4521TIP3   OH234977   2.129   3.679   4.158  0.0441 -0.3208 -0.1996
 4521TIP3    H134978   2.126   3.687   4.063  1.5070 -0.3962 -0.2682
 4521TIP3    H234979   2.162   3.591   4.174  0.0327 -0.2255  0.3721
 4522TIP3   OH234980   1.467   6.388   1.216 -0.0535 -0.0551  0.2847
 4522TIP3    H134981   1.467   6.395   1.121 -2.2973 -2.2721  0.0066
 4522TIP3    H234982   1.383   6.424   1.243 -0.1703 -0.9612  1.2332
 4523TIP3   OH234983   4.229   1.037  14.867  0.4425 -0.4761 -0.0372
 4523TIP3    H134984   4.258   0.955  14.828 -0.4980 -0.4019 -0.9405
 4523TIP3    H234985   4.231   1.100  14.795  3.1674  0.8611  1.0777
 4524TIP3   OH234986   1.843   3.066  17.165  0.5800  0.6406 -0.4525
 4524TIP3    H134987   1.778   3.136  17.172  1.3907  1.5677 -1.6512
 4524TIP3    H234988   1.907   3.100  17.103  0.0751 -1.8944 -2.5171
 4525TIP3   OH234989   2.505   6.188   0.336 -0.1741 -0.5562 -0.2652
 4525TIP3    H134990   2.473   6.098   0.331  0.4520 -0.8129  0.1517
 4525TIP3    H234991   2.427   6.241   0.353 -0.3077 -1.2463  1.5116
 4526TIP3   OH234992   6.206   0.290   5.472  0.4437 -0.4149 -0.3537
 4526TIP3    H134993   6.235   0.311   5.561  2.4703 -3.4017 -0.1466
 4526TIP3    H234994   6.258   0.347   5.416  0.8993 -0.1730  0.3027
 4527TIP3   OH234995   5.066   3.596  14.420  0.4925 -0.3728 -0.3452
 4527TIP3    H134996   4.988   3.567  14.469 -0.4839  0.0120 -1.6308
 4527TIP3    H234997   5.107   3.514  14.391  0.5736 -0.5761  0.3125
 4528TIP3   OH234998   0.687   0.366  13.875 -0.1720 -0.1531 -0.0297
 4528TIP3    H134999   0.773   0.354  13.917 -0.1938  0.0602  0.0770
 4528TIP3    H235000   0.639   0.286  13.897  0.8528 -1.4552 -2.2191
 4529TIP3   OH235001   3.672   6.658  13.787  0.1684  0.4485 -0.2724
 4529TIP3    H135002   3.611   6.585  13.804  2.5990 -1.4435  0.8759
 4529TIP3    H235003   3.669   6.711  13.867 -0.5770  0.8813 -0.5718
 4530TIP3   OH235004   4.971   4.375  11.088  0.7712  0.0457  0.9669
 4530TIP3    H135005   5.058   4.372  11.047  0.3756 -0.3142  0.1329
 4530TIP3    H235006   4.924   4.301  11.049  0.1714  0.0872  1.6059
 4531TIP3   OH235007   4.269   2.323  16.295  0.3719  0.6275  0.6025
 4531TIP3    H135008   4.237   2.305  16.206 -0.5642 -0.6563  1.1551
 4531TIP3    H235009   4.189   2.328  16.348  0.9669 -1.0587  1.7605
 4532TIP3   OH235010   3.282   5.351  11.733 -0.4680  0.2771  0.4041
 4532TIP3    H135011   3.281   5.383  11.642  3.3496  1.8295  0.7435
 4532TIP3    H235012   3.245   5.423  11.784 -1.2987 -0.0382  0.2736
 4533TIP3   OH235013   3.864   1.472  13.331  0.2090  0.2989 -0.1011
 4533TIP3    H135014   3.834   1.554  13.371  0.4184 -0.3175  1.3833
 4533TIP3    H235015   3.784   1.429  13.301  0.0706  0.8788 -0.5937
 4534TIP3   OH235016   3.624   2.319   4.737 -0.3445  0.1811 -0.6647
 4534TIP3    H135017   3.590   2.291   4.822 -0.0272  1.4384 -0.0955
 4534TIP3    H235018   3.558   2.381   4.705  1.0721  2.2608  0.2268
 4535TIP3   OH235019   3.946   4.839   5.110  0.2158  0.5694 -0.3706
 4535TIP3    H135020   3.880   4.892   5.154 -0.0072  0.1850 -0.2390
 4535TIP3    H235021   3.958   4.881   5.025 -1.2726 -0.1989 -0.9920
 4536TIP3   OH235022   5.937   0.217  15.269  0.3441  0.1506 -0.3733
 4536TIP3    H135023   5.962   0.281  15.203 -1.1758  0.5286 -0.6158
 4536TIP3    H235024   5.869   0.260  15.321  1.9758  0.1143  1.9222
 4537TIP3   OH235025   3.351   4.657  11.935 -0.4400  0.0893  0.2815
 4537TIP3    H135026   3.411   4.720  11.895  0.1897  1.2749  2.8798
 4537TIP3    H235027   3.271   4.706  11.953 -0.7040 -0.4040  0.4886
 4538TIP3   OH235028   0.368   5.706  15.726 -0.3466 -0.2731  0.0301
 4538TIP3    H135029   0.380   5.756  15.646 -2.3986 -1.2222 -0.9560
 4538TIP3    H235030   0.334   5.768  15.790  2.5948  0.8094  0.6945
 4539TIP3   OH235031   3.311   4.763  15.181  0.1663  0.4763 -0.1631
 4539TIP3    H135032   3.271   4.843  15.149  0.9974  1.0509  0.2016
 4539TIP3    H235033   3.305   4.702  15.108 -0.0757  1.0179 -0.6001
 4540TIP3   OH235034   6.305   1.944  12.314 -0.0697  0.0525 -0.6970
 4540TIP3    H135035   6.349   2.028  12.316  0.8670 -0.3400 -2.4635
 4540TIP3    H235036   6.248   1.948  12.237  0.3374 -1.0801 -1.0784
 4541TIP3   OH235037   5.601   0.916  12.303  0.4247 -0.0516 -0.2973
 4541TIP3    H135038   5.616   0.856  12.231  1.5479 -1.7390  1.2579
 4541TIP3    H235039   5.668   0.984  12.293  1.2055 -0.8099 -0.3271
 4542TIP3   OH235040   6.328   3.538  15.873  1.0861  0.0970  0.5765
 4542TIP3    H135041   6.319   3.450  15.911  1.8221 -0.3022 -0.1432
 4542TIP3    H235042   6.421   3.546  15.854  0.6349 -0.1909 -2.1934
 4543TIP3   OH235043   4.140   6.033  16.229  0.2338 -0.1594  0.2400
 4543TIP3    H135044   4.230   6.019  16.203  0.2691 -0.1663  0.3641
 4543TIP3    H235045   4.138   6.123  16.261  0.3512 -0.3845  0.8864
 4544TIP3   OH235046   2.575   1.937  10.863  0.0323  0.0022 -0.3268
 4544TIP3    H135047   2.606   1.871  10.801 -1.0653  0.7769 -1.7390
 4544TIP3    H235048   2.566   2.017  10.811 -1.3570  0.5649  0.7258
 4545TIP3   OH235049   3.580   2.579  14.437  0.1037 -0.2503  0.1224
 4545TIP3    H135050   3.664   2.620  14.457  0.0800 -0.6024  1.0035
 4545TIP3    H235051   3.598   2.485  14.438  0.1717 -0.2979 -1.9453
 4546TIP3   OH235052   1.020   1.919   0.060 -0.0624  0.1521 -0.7144
 4546TIP3    H135053   1.012   1.829   0.092  0.0333  0.5385  0.4529
 4546TIP3    H235054   1.024   1.911  -0.035  1.6248 -1.2003 -0.5626
 4547TIP3   OH235055   6.316   5.291   2.752 -0.0928 -0.5735  0.5423
 4547TIP3    H135056   6.337   5.354   2.682 -3.0106 -1.4263 -1.2957
 4547TIP3    H235057   6.296   5.346   2.828 -2.2141  0.8536 -0.9086
 4548TIP3   OH235058   1.242   5.754   4.316 -0.5782  0.1204  0.3060
 4548TIP3    H135059   1.168   5.694   4.322 -1.9487  0.9063 -4.8008
 4548TIP3    H235060   1.207   5.838   4.346 -1.1656  0.0721 -0.2338
 4549TIP3   OH235061   4.304   6.572  11.594 -0.2858  0.1146  0.2616
 4549TIP3    H135062   4.366   6.642  11.612 -0.3799  0.6652 -1.3840
 4549TIP3    H235063   4.218   6.613  11.607 -0.3380  0.0079  0.2541
 4550TIP3   OH235064   2.301   3.741   5.437  0.3008  0.3700  0.0245
 4550TIP3    H135065   2.338   3.829   5.442  0.9622  0.1265 -0.4236
 4550TIP3    H235066   2.341   3.694   5.509 -0.5577  0.6080  0.6705
 4551TIP3   OH235067   5.265   3.694  14.924  0.1158  0.3745 -0.4852
 4551TIP3    H135068   5.276   3.783  14.957  0.6932 -0.3484  1.4134
 4551TIP3    H235069   5.196   3.657  14.979  0.0476 -0.4200 -1.0923
 4552TIP3   OH235070   4.227   4.336  12.697  0.7823 -0.0566 -0.6589
 4552TIP3    H135071   4.135   4.349  12.675  1.4960  1.7868 -2.9345
 4552TIP3    H235072   4.257   4.268  12.636  1.2195  0.2257 -0.7608
 4553TIP3   OH235073   3.347   5.175   1.087 -0.2980 -0.5458 -0.7595
 4553TIP3    H135074   3.364   5.239   1.019 -0.5284 -1.9751 -2.2143
 4553TIP3    H235075   3.368   5.090   1.047 -0.1615 -1.4189  1.0353
 4554TIP3   OH235076   6.645   0.995  14.217 -0.5462  0.0281  0.0115
 4554TIP3    H135077   6.675   0.916  14.173  2.4218  1.4725 -0.8145
 4554TIP3    H235078   6.712   1.061  14.198 -1.7891  2.1993  2.3931
 4555TIP3   OH235079   5.293   0.298   1.684  0.2556  0.5426 -0.0125
 4555TIP3    H135080   5.272   0.373   1.628  0.6391  0.7364  0.0997
 4555TIP3    H235081   5.346   0.241   1.628 -0.8022 -0.0945 -0.3948
 4556TIP3   OH235082   3.981   5.006  12.984  0.1495 -0.1332 -0.2314
 4556TIP3    H135083   4.068   4.966  12.987  0.2997  0.1898  2.0496
 4556TIP3    H235084   3.944   4.978  12.901  1.6189 -2.0667 -0.2985
 4557TIP3   OH235085   2.445   5.280   2.923 -0.1776 -0.2605  0.2845
 4557TIP3    H135086   2.445   5.266   2.829  0.7775 -0.0219  0.2327
 4557TIP3    H235087   2.533   5.315   2.942 -1.2460  2.3394  0.8638
 4558TIP3   OH235088   5.236   6.124   3.330  0.0508  0.1399  0.3694
 4558TIP3    H135089   5.186   6.087   3.403 -0.9252  1.8455  0.6163
 4558TIP3    H235090   5.200   6.212   3.319  0.1171 -0.0954 -2.2355
 4559TIP3   OH235091   0.467   5.165   6.443 -0.1214 -0.2664 -0.0926
 4559TIP3    H135092   0.412   5.225   6.493  1.9996  0.5582  1.4023
 4559TIP3    H235093   0.545   5.216   6.422  0.1467 -1.4128 -2.0514
 4560TIP3   OH235094   0.440   3.054   3.235 -0.5263  0.5196 -0.1753
 4560TIP3    H135095   0.416   2.970   3.197 -2.2692  1.1898 -0.6779
 4560TIP3    H235096   0.524   3.039   3.277 -0.8863 -1.5035 -0.1066
 4561TIP3   OH235097   5.599   2.156  15.616 -0.2679 -0.4659 -0.2380
 4561TIP3    H135098   5.694   2.155  15.608 -0.0346 -3.2983  1.4644
 4561TIP3    H235099   5.567   2.153  15.526  1.2391  0.0380 -0.8223
 4562TIP3   OH235100   0.495   4.170   2.932 -0.2253  0.1907  0.1145
 4562TIP3    H135101   0.423   4.233   2.940  0.9222  1.5219  0.5362
 4562TIP3    H235102   0.506   4.135   3.020  0.0210  0.4565  0.1936
 4563TIP3   OH235103   1.436   0.249   3.298 -0.1821 -0.3340  0.1410
 4563TIP3    H135104   1.479   0.321   3.345  0.7807 -1.2782  0.7672
 4563TIP3    H235105   1.404   0.289   3.217  1.2466  0.5856 -0.0062
 4564TIP3   OH235106   1.010   5.234   1.887 -0.9531 -0.0044  0.3757
 4564TIP3    H135107   1.085   5.186   1.853  0.1226  0.6792  1.6768
 4564TIP3    H235108   1.046   5.317   1.917 -2.2224  0.3193  1.0791
 4565TIP3   OH235109   3.601   6.689  11.100 -0.8869 -0.0050  0.6593
 4565TIP3    H135110   3.682   6.668  11.148 -0.4292 -2.6402 -1.0512
 4565TIP3    H235111   3.614   6.780  11.071  1.6938 -0.4539  0.1021
 4566TIP3   OH235112   1.663   0.923  16.580  0.1099  0.0305 -0.0040
 4566TIP3    H135113   1.668   1.007  16.625  2.1305 -0.1067  0.1372
 4566TIP3    H235114   1.752   0.907  16.550 -0.8651 -0.4797 -3.0106
 4567TIP3   OH235115   1.443   2.011  14.272  0.2110  0.2912  0.3496
 4567TIP3    H135116   1.477   2.065  14.344 -1.3718 -0.5876  1.8186
 4567TIP3    H235117   1.451   1.921  14.304 -1.5772 -0.0439 -0.0929
 4568TIP3   OH235118   0.364   4.254  10.412  0.5159  0.0431 -0.2936
 4568TIP3    H135119   0.371   4.194  10.338  0.7679  0.9795 -1.0391
 4568TIP3    H235120   0.448   4.245  10.458  0.2985 -0.6553 -0.0078
 4569TIP3   OH235121   6.152   0.751  13.468  0.3375 -1.2080 -0.2650
 4569TIP3    H135122   6.206   0.801  13.529 -0.0215 -2.1563  0.8737
 4569TIP3    H235123   6.083   0.713  13.523  0.2623 -2.4652 -1.1752
 4570TIP3   OH235124   0.761   3.169  14.805  0.2659  0.2329  0.4504
 4570TIP3    H135125   0.844   3.129  14.827  0.6125  0.4742 -0.3874
 4570TIP3    H235126   0.764   3.182  14.711 -0.8876 -0.1238  0.3473
 4571TIP3   OH235127   5.356   1.735   0.435 -0.5290 -0.0365  0.0432
 4571TIP3    H135128   5.266   1.703   0.434 -0.7244  0.5149 -0.4367
 4571TIP3    H235129   5.349   1.829   0.418  0.1426  0.0043 -0.0610
 4572TIP3   OH235130   6.640   4.874  13.009  0.2070 -0.0484 -0.3170
 4572TIP3    H135131   6.635   4.889  12.915  0.6474 -5.6246 -1.6005
 4572TIP3    H235132   6.724   4.912  13.035 -0.0670  1.8882 -2.0160
 4573TIP3   OH235133   1.901   2.560   5.223  0.4213 -0.0896 -0.1302
 4573TIP3    H135134   1.904   2.636   5.282 -1.0252 -0.6558  0.7238
 4573TIP3    H235135   1.981   2.512   5.241  0.0610 -0.1979  1.3537
 4574TIP3   OH235136   2.340   0.123   2.340 -0.1421 -0.2516  0.0529
 4574TIP3    H135137   2.420   0.076   2.363  0.5059  0.5401 -0.5085
 4574TIP3    H235138   2.323   0.178   2.417  0.0176 -0.2245  0.0710
 4575TIP3   OH235139   2.505   2.029   3.532  0.1215 -0.7121 -0.0238
 4575TIP3    H135140   2.498   2.125   3.541 -1.1430 -0.9433  2.2027
 4575TIP3    H235141   2.444   2.008   3.460 -0.3929  0.0731  0.1629
 4576TIP3   OH235142   1.838   2.829   0.534  0.1094  0.3246  0.3231
 4576TIP3    H135143   1.909   2.768   0.556  0.5431  0.7138  0.0280
 4576TIP3    H235144   1.764   2.799   0.586  0.5475  0.0269  0.7870
 4577TIP3   OH235145   2.161   1.294   6.032 -0.5628 -0.4939  0.2397
 4577TIP3    H135146   2.188   1.208   6.066  2.8170  0.4090  0.2447
 4577TIP3    H235147   2.180   1.355   6.104 -1.2001  0.4783 -0.3948
 4578TIP3   OH235148   3.333   2.844   6.357 -0.2545 -0.1677 -1.0123
 4578TIP3    H135149   3.323   2.865   6.264 -2.5359  1.6449 -0.4448
 4578TIP3    H235150   3.383   2.917   6.393 -0.5275 -0.1875 -0.5888
 4579TIP3   OH235151   4.831   4.477   2.498  0.3588  0.4983  0.4417
 4579TIP3    H135152   4.812   4.535   2.571  0.6610  0.5473  0.4796
 4579TIP3    H235153   4.769   4.504   2.430  0.1661  0.5384  0.6305
 4580TIP3   OH235154   5.637   1.568  11.338 -0.2667  0.8112 -0.4072
 4580TIP3    H135155   5.556   1.526  11.307  0.3673 -1.5537  0.9164
 4580TIP3    H235156   5.682   1.594  11.257 -0.7646 -1.0468 -1.3548
 4581TIP3   OH235157   2.468   0.780   0.241  0.9613 -0.2160 -0.0104
 4581TIP3    H135158   2.409   0.845   0.279  0.0589 -1.3293  0.5454
 4581TIP3    H235159   2.553   0.798   0.281  0.9831  1.2835 -0.6783
 4582TIP3   OH235160   3.994   1.607   3.457  0.1722 -0.0359  0.8051
 4582TIP3    H135161   4.064   1.546   3.432 -0.4707 -0.6083  0.3671
 4582TIP3    H235162   3.997   1.608   3.553 -1.0292 -2.2470  0.9179
 4583TIP3   OH235163   6.073   6.482   1.678 -0.0971  0.2358 -0.5064
 4583TIP3    H135164   6.168   6.471   1.677 -0.1404 -0.1610 -0.2278
 4583TIP3    H235165   6.041   6.425   1.608 -0.0687  1.0452 -1.2106
 4584TIP3   OH235166   0.242   1.030   5.301 -0.1151 -0.4250  0.3160
 4584TIP3    H135167   0.285   1.102   5.255  0.1507 -0.6524  0.2013
 4584TIP3    H235168   0.151   1.057   5.309  0.0565  0.0825  0.5964
 4585TIP3   OH235169   2.264   2.355   4.078  0.3019 -0.2082 -0.2131
 4585TIP3    H135170   2.282   2.273   4.126 -1.6316  0.4189  1.7334
 4585TIP3    H235171   2.342   2.408   4.092  0.2129 -0.4535  1.4484
 4586TIP3   OH235172   6.023   4.587   2.374 -0.0963  0.0165  0.2706
 4586TIP3    H135173   5.983   4.604   2.289  2.4341  0.9366 -0.8377
 4586TIP3    H235174   5.987   4.655   2.431 -1.1713 -0.0847 -0.2551
 4587TIP3   OH235175   3.101   5.011  13.513  0.3200  0.4193 -0.7618
 4587TIP3    H135176   3.089   5.032  13.606  0.8379 -1.2164 -0.3014
 4587TIP3    H235177   3.160   5.080  13.481 -0.5770  1.5228 -0.1300
 4588TIP3   OH235178   1.693   3.165   6.016  0.1423  0.0081  0.4711
 4588TIP3    H135179   1.635   3.111   6.069  1.1594 -0.5801  1.0208
 4588TIP3    H235180   1.767   3.108   5.996  0.5128  0.7204 -0.2467
 4589TIP3   OH235181   0.694   2.997  11.548  0.0488  0.6072  0.6493
 4589TIP3    H135182   0.629   2.974  11.615 -0.0084  1.1150  0.7741
 4589TIP3    H235183   0.700   3.092  11.553  1.0353  0.5489  0.8660
 4590TIP3   OH235184   5.872   2.664   3.978  0.0522  0.0705  0.1978
 4590TIP3    H135185   5.862   2.634   3.888 -0.8573 -0.3486  0.4264
 4590TIP3    H235186   5.783   2.676   4.010  0.3731  1.0018  0.7941
 4591TIP3   OH235187   0.528   6.287   0.551  0.4826  0.3830  0.0925
 4591TIP3    H135188   0.533   6.250   0.463 -0.1131 -1.1711  0.6613
 4591TIP3    H235189   0.615   6.323   0.567  1.2888 -1.2381 -0.3569
 4592TIP3   OH235190   0.571   6.701  11.726  0.4196 -0.2182 -0.2310
 4592TIP3    H135191   0.605   6.655  11.649 -0.1857 -1.2185  0.0819
 4592TIP3    H235192   0.484   6.732  11.698  0.5755  0.2172 -0.2409
 4593TIP3   OH235193   4.750   5.998  13.598 -0.7518  0.3816  0.3115
 4593TIP3    H135194   4.799   5.916  13.594 -0.6049  0.5067 -2.7105
 4593TIP3    H235195   4.806   6.061  13.552 -1.0072  2.1375  2.2706
 4594TIP3   OH235196   2.079   1.648  15.686 -0.1223  0.1240  0.3002
 4594TIP3    H135197   2.006   1.701  15.656  0.1015  1.0633  1.3447
 4594TIP3    H235198   2.150   1.665  15.624 -0.6381 -0.4670 -0.4720
 4595TIP3   OH235199   6.035   5.827  13.140 -0.1807 -0.1585 -0.3124
 4595TIP3    H135200   6.067   5.829  13.230  3.4864  0.2122 -1.4487
 4595TIP3    H235201   5.962   5.890  13.139  0.2693  0.5159  2.1670
 4596TIP3   OH235202   1.270   6.290  16.398 -0.6254 -0.1499  0.2833
 4596TIP3    H135203   1.299   6.292  16.489 -1.4672 -2.6599  0.6844
 4596TIP3    H235204   1.176   6.306  16.402 -0.6121  0.0581 -0.1756
 4597TIP3   OH235205   1.145   0.611  12.659  0.3644 -0.2203  0.3279
 4597TIP3    H135206   1.084   0.662  12.712  1.2078  0.7304  0.4107
 4597TIP3    H235207   1.141   0.523  12.695 -0.4019  0.0119  0.8112
 4598TIP3   OH235208   4.799   1.839  15.605 -0.2219  0.6847  0.1816
 4598TIP3    H135209   4.752   1.857  15.687  1.3003 -1.3184  1.5889
 4598TIP3    H235210   4.866   1.907  15.601  0.3012  0.2456  1.1321
 4599TIP3   OH235211   3.039   4.926   5.975 -0.0480 -0.0075 -0.0168
 4599TIP3    H135212   2.995   4.873   6.042  2.0812 -1.0651  0.6315
 4599TIP3    H235213   2.989   4.908   5.895  1.3540 -4.3483 -0.1965
 4600TIP3   OH235214   3.069   0.577  10.527  0.6620  0.6758  0.3580
 4600TIP3    H135215   3.108   0.532  10.602 -0.3482 -0.2710  0.3395
 4600TIP3    H235216   2.976   0.583  10.549  0.5956  1.7180 -0.1709
 4601TIP3   OH235217   0.011   4.864  15.761 -0.0092  0.1074  0.1540
 4601TIP3    H135218   0.005   4.955  15.789 -0.4072  0.1868 -0.1705
 4601TIP3    H235219   0.088   4.861  15.704 -0.2772  0.3518 -0.2263
 4602TIP3   OH235220   5.627   1.746  15.576  0.4543  0.3931 -0.0821
 4602TIP3    H135221   5.591   1.740  15.664 -0.4482 -0.2679 -0.4788
 4602TIP3    H235222   5.551   1.770  15.521  0.7396 -0.4152 -0.8470
 4603TIP3   OH235223   6.454   2.693   2.166 -0.2962 -0.3220 -0.0197
 4603TIP3    H135224   6.510   2.769   2.181  0.6635 -1.2159  1.1599
 4603TIP3    H235225   6.417   2.707   2.079  1.2204  0.6478 -0.5499
 4604TIP3   OH235226   1.561   2.873  12.237 -0.1726 -0.2001  0.1935
 4604TIP3    H135227   1.496   2.917  12.292  1.0930  2.8629 -0.6110
 4604TIP3    H235228   1.641   2.873  12.290 -0.4921 -3.4740  0.9587
 4605TIP3   OH235229   5.916   5.841  15.912  0.2528  0.1291 -0.0492
 4605TIP3    H135230   5.905   5.840  15.817 -1.7118  2.0470  0.0575
 4605TIP3    H235231   5.865   5.766  15.943  0.3046 -0.0818 -0.4720
 4606TIP3   OH235232   4.218   5.660  15.416  0.2617  0.3154  0.0173
 4606TIP3    H135233   4.207   5.640  15.323 -0.2541 -0.9551  0.3252
 4606TIP3    H235234   4.179   5.746  15.427 -1.6191 -0.4094 -0.5819
 4607TIP3   OH235235   4.983   0.135   5.205  0.0729 -0.1359 -0.3423
 4607TIP3    H135236   4.944   0.101   5.124 -1.5451 -2.5478  1.3297
 4607TIP3    H235237   4.910   0.173   5.253  0.3432 -1.5596  1.3168
 4608TIP3   OH235238   2.082   1.420  15.842  0.4360  0.0851 -0.4150
 4608TIP3    H135239   1.999   1.381  15.816  0.8331 -0.8722 -0.2854
 4608TIP3    H235240   2.089   1.500  15.790 -0.6644  0.2948 -0.2614
 4609TIP3   OH235241   4.715   0.300   0.485 -0.2110  0.1942  0.1705
 4609TIP3    H135242   4.726   0.213   0.446  0.5296 -0.3483  1.5224
 4609TIP3    H235243   4.723   0.285   0.579 -0.1309  1.7309  0.4318
 4610TIP3   OH235244   3.450   2.836   0.113  0.0334 -0.5659  0.9124
 4610TIP3    H135245   3.408   2.755   0.083  0.1728  0.2104 -1.6858
 4610TIP3    H235246   3.377   2.896   0.132 -0.1229 -0.1852 -0.7033
 4611TIP3   OH235247   4.650   6.449   1.441  0.2757 -0.0561 -0.1389
 4611TIP3    H135248   4.620   6.483   1.525  0.2487 -0.2907 -0.0525
 4611TIP3    H235249   4.725   6.503   1.418 -0.4034  0.7591 -0.5134
 4612TIP3   OH235250   1.515   4.364   5.116 -0.2309 -0.1026  0.2216
 4612TIP3    H135251   1.563   4.332   5.040  1.0918 -1.3990  1.5399
 4612TIP3    H235252   1.582   4.385   5.181 -1.2574  1.9967  0.7247
 4613TIP3   OH235253   3.862   2.130  16.036 -0.0748 -0.6144  0.4877
 4613TIP3    H135254   3.798   2.196  16.012  1.2825  0.7273  0.3805
 4613TIP3    H235255   3.845   2.057  15.977 -1.7539 -0.4702  0.7583
 4614TIP3   OH235256   0.192   5.330   3.876 -0.2929  0.0036  0.4547
 4614TIP3    H135257   0.252   5.305   3.805  0.0007  0.4083  0.5546
 4614TIP3    H235258   0.245   5.385   3.933 -0.7625  0.3679  0.5433
 4615TIP3   OH235259   0.555   5.092  15.187 -0.7464  0.0107 -0.0017
 4615TIP3    H135260   0.514   5.040  15.117 -0.1262  0.5340 -0.7793
 4615TIP3    H235261   0.532   5.182  15.167 -0.3669  0.1881  0.3327
 4616TIP3   OH235262   0.229   0.632   3.087 -0.4420  0.2954  0.1928
 4616TIP3    H135263   0.205   0.621   3.178  0.4965 -3.4236  0.1387
 4616TIP3    H235264   0.156   0.679   3.047 -2.9975 -1.9371  1.9701
 4617TIP3   OH235265   6.313   4.712   6.263  0.1840 -0.3531 -0.6343
 4617TIP3    H135266   6.274   4.630   6.295 -0.0777  0.3615  1.0121
 4617TIP3    H235267   6.407   4.701   6.278  0.1704 -0.4503 -0.6172
 4618TIP3   OH235268   1.683   1.857  10.734  0.2483 -0.7125  0.3664
 4618TIP3    H135269   1.713   1.790  10.673  0.2613  0.8366 -1.4366
 4618TIP3    H235270   1.590   1.839  10.747  0.9330 -3.2126  2.8948
 4619TIP3   OH235271   2.716   2.790   1.626  0.5233  0.9439 -0.7400
 4619TIP3    H135272   2.643   2.736   1.657  1.5840  0.6182  1.3522
 4619TIP3    H235273   2.686   2.880   1.639  0.5121  0.8116  0.1900
 4620TIP3   OH235274   2.005   2.469  15.842 -0.0703  0.2206 -0.3038
 4620TIP3    H135275   2.056   2.541  15.878 -1.7064  1.3892 -0.1990
 4620TIP3    H235276   1.961   2.430  15.918  0.3606 -0.5443 -0.4339
 4621TIP3   OH235277   3.924   2.748  13.858 -0.6855 -0.5491  0.2465
 4621TIP3    H135278   4.004   2.750  13.911  0.0792  2.3064 -0.8357
 4621TIP3    H235279   3.855   2.778  13.918 -0.1625  0.8518  0.1925
 4622TIP3   OH235280   2.646   1.286   4.042 -0.0837  0.1784 -0.3760
 4622TIP3    H135281   2.645   1.191   4.052 -1.0771  0.2710  0.5890
 4622TIP3    H235282   2.706   1.318   4.109  0.8750  0.1991 -1.2216
 4623TIP3   OH235283   2.735   6.505   6.248  0.6981 -0.6512  0.6514
 4623TIP3    H135284   2.695   6.444   6.310  0.6405 -0.1281  1.1398
 4623TIP3    H235285   2.667   6.571   6.232  0.4491 -1.1813 -0.5525
 4624TIP3   OH235286   1.272   3.888   0.378  0.1823  0.2837  0.1244
 4624TIP3    H135287   1.315   3.834   0.312 -0.9377  0.7987 -1.0786
 4624TIP3    H235288   1.317   3.972   0.374  1.7850 -0.4108  1.8487
 4625TIP3   OH235289   6.122   3.218  13.476 -0.5558 -0.1651  0.3778
 4625TIP3    H135290   6.129   3.269  13.395  0.0630 -0.5472  0.1854
 4625TIP3    H235291   6.160   3.274  13.543 -0.6232 -0.0449  0.3161
 4626TIP3   OH235292   0.085   4.473   3.772 -0.1582  0.2226  0.4264
 4626TIP3    H135293   0.019   4.474   3.842  0.1843  0.4614  0.7433
 4626TIP3    H235294   0.168   4.458   3.817  0.1857  1.2809  0.1747
 4627TIP3   OH235295   5.708   1.559  13.626 -0.2268  0.5690  0.1484
 4627TIP3    H135296   5.613   1.571  13.630 -0.2162  0.8683 -0.4497
 4627TIP3    H235297   5.726   1.536  13.535  0.3134  0.8785  0.1726
 4628TIP3   OH235298   0.159   4.491   0.334 -0.1522 -0.3317  0.5349
 4628TIP3    H135299   0.190   4.560   0.275 -1.4986 -1.1569 -1.2395
 4628TIP3    H235300   0.238   4.445   0.361  0.4695 -0.4274 -1.3099
 4629TIP3   OH235301   0.563   3.606   0.409  0.5137 -0.0964  0.3824
 4629TIP3    H135302   0.515   3.596   0.491  0.6888  2.1114  0.8170
 4629TIP3    H235303   0.615   3.685   0.421  1.4399 -0.3775 -1.4367
 4630TIP3   OH235304   2.305   4.834   2.378 -0.3510  0.6558 -0.1879
 4630TIP3    H135305   2.227   4.883   2.352 -1.1574 -0.8380 -0.7305
 4630TIP3    H235306   2.280   4.742   2.370  0.4611  0.0786  2.6817
 4631TIP3   OH235307   4.331   2.568   3.976 -0.0303 -0.1084 -0.1405
 4631TIP3    H135308   4.236   2.574   3.962 -0.1779  0.1167  0.8534
 4631TIP3    H235309   4.369   2.604   3.897 -0.7750 -0.4030 -0.6485
 4632TIP3   OH235310   0.383   2.432   2.335  0.0245 -0.1015  0.3160
 4632TIP3    H135311   0.301   2.474   2.307  0.3328  0.3016  0.0179
 4632TIP3    H235312   0.354   2.359   2.390 -0.6310 -1.3637 -1.6032
 4633TIP3   OH235313   0.807   4.529   1.785 -0.4015 -0.1841 -0.1624
 4633TIP3    H135314   0.819   4.592   1.855  0.4246  0.2699 -0.7013
 4633TIP3    H235315   0.869   4.459   1.804 -0.5906 -0.3430 -0.1243
 4634TIP3   OH235316   2.220   2.484  16.836  0.0881 -0.6035 -0.5704
 4634TIP3    H135317   2.154   2.473  16.767 -0.7108  1.3195 -0.1727
 4634TIP3    H235318   2.226   2.579  16.848  2.7546 -0.7208 -0.4033
 4635TIP3   OH235319   0.823   4.064   2.320 -0.1167 -0.4774 -0.1777
 4635TIP3    H135320   0.781   4.034   2.239 -1.3426  0.4900  0.0709
 4635TIP3    H235321   0.859   3.984   2.359  1.2951 -0.8538 -2.0843
 4636TIP3   OH235322   2.793   2.434   3.112  0.2487 -0.5223 -0.1009
 4636TIP3    H135323   2.801   2.419   3.206  0.6857  0.4820  0.0359
 4636TIP3    H235324   2.740   2.513   3.104 -0.4772 -1.0475 -0.7368
 4637TIP3   OH235325   4.842   6.687   3.742  0.2231  0.5932 -0.0365
 4637TIP3    H135326   4.899   6.652   3.673 -0.7293  1.8790 -1.5386
 4637TIP3    H235327   4.780   6.616   3.761 -0.0201  0.4988 -1.1287
 4638TIP3   OH235328   5.392   0.612  15.951 -0.2488 -0.1963  0.3315
 4638TIP3    H135329   5.410   0.528  15.993 -0.2434 -1.0740 -1.3377
 4638TIP3    H235330   5.473   0.663  15.964 -0.8056  0.2286  2.7370
 4639TIP3   OH235331   4.241   4.674   0.872 -0.6765  0.7091 -0.2263
 4639TIP3    H135332   4.222   4.713   0.958 -1.1093  1.6700 -0.7429
 4639TIP3    H235333   4.163   4.623   0.851 -1.2597  1.7726 -0.7467
 4640TIP3   OH235334   6.504   4.703  12.011 -0.6098 -0.3210 -0.0210
 4640TIP3    H135335   6.507   4.613  11.978 -0.0304 -0.4528  0.3630
 4640TIP3    H235336   6.483   4.756  11.935 -0.4652 -0.7370 -0.3569
 4641TIP3   OH235337   3.698   1.455  14.548  0.2302 -0.2420  0.0972
 4641TIP3    H135338   3.693   1.411  14.463 -0.9693  0.3463 -0.1664
 4641TIP3    H235339   3.638   1.530  14.539  0.0732 -0.1829  1.4607
 4642TIP3   OH235340   2.282   2.242   5.074  0.6718  0.0970  0.8871
 4642TIP3    H135341   2.332   2.170   5.113 -0.5990 -1.3597 -0.0810
 4642TIP3    H235342   2.310   2.244   4.983 -0.0940  0.0971  0.6449
 4643TIP3   OH235343   5.320   2.534  13.459 -0.2965 -0.1892 -0.3053
 4643TIP3    H135344   5.264   2.456  13.451 -0.5415 -0.1559  0.9376
 4643TIP3    H235345   5.263   2.607  13.433 -0.9386 -0.1253  1.2118
 4644TIP3   OH235346   2.515   0.164   0.721 -0.0666 -0.3662 -0.3371
 4644TIP3    H135347   2.487   0.250   0.690  0.0819  0.1190  0.8409
 4644TIP3    H235348   2.609   0.174   0.736 -0.6737  0.7518  4.1973
 4645TIP3   OH235349   2.671   2.985   2.255  0.3367  0.5165 -0.1182
 4645TIP3    H135350   2.715   2.955   2.335 -0.8780  0.5097  0.5678
 4645TIP3    H235351   2.681   2.911   2.194 -2.9678 -1.6510  1.6774
 4646TIP3   OH235352   2.835   0.411   4.827 -0.0120  0.2503  0.3652
 4646TIP3    H135353   2.885   0.415   4.745  0.4390 -0.2498  0.6064
 4646TIP3    H235354   2.757   0.360   4.806  0.0059  0.2905  0.1997
 4647TIP3   OH235355   0.981   3.616  12.526  0.2337  0.1641  0.7235
 4647TIP3    H135356   1.000   3.523  12.514 -2.8615 -0.6028  0.8681
 4647TIP3    H235357   0.995   3.632  12.619 -0.4643 -0.5406  0.9644
 4648TIP3   OH235358   6.226   2.644   1.396 -0.4327  0.5762  0.4769
 4648TIP3    H135359   6.261   2.638   1.485 -0.9363 -0.2383  0.6358
 4648TIP3    H235360   6.170   2.566   1.388  1.5466 -0.7590 -1.4142
 4649TIP3   OH235361   3.116   3.606  14.773 -0.5179 -0.1443  0.2649
 4649TIP3    H135362   3.143   3.696  14.757 -2.0218  0.3302  0.2678
 4649TIP3    H235363   3.198   3.557  14.777  0.3216  1.2024  0.1938
 4650TIP3   OH235364   6.160   6.691   0.510  0.2582  0.0164  0.5023
 4650TIP3    H135365   6.111   6.659   0.585  1.2038 -1.6376  0.4674
 4650TIP3    H235366   6.098   6.684   0.436 -0.1266 -0.0150  0.8258
 4651TIP3   OH235367   2.341   2.163  12.570 -0.5102 -0.3359  0.3198
 4651TIP3    H135368   2.398   2.087  12.581 -1.1861 -0.8105  0.6120
 4651TIP3    H235369   2.401   2.238  12.566  0.3314 -1.0412 -2.1352
 4652TIP3   OH235370   6.748   3.291  15.177  0.2580  0.2114 -0.4034
 4652TIP3    H135371   6.801   3.261  15.103 -0.5065 -0.1003 -0.8414
 4652TIP3    H235372   6.700   3.213  15.205 -1.7918  0.9573 -1.5881
 4653TIP3   OH235373   2.275   0.063   1.009  0.2825 -0.0922  0.5672
 4653TIP3    H135374   2.281   0.033   0.918  1.0415  0.9951  0.2287
 4653TIP3    H235375   2.304   0.155   1.005  0.3391 -0.0377  1.9119
 4654TIP3   OH235376   6.653   2.321  12.829  0.6165 -0.6638 -0.0643
 4654TIP3    H135377   6.641   2.346  12.921  0.2338  1.1589 -0.5702
 4654TIP3    H235378   6.649   2.404  12.781 -1.8081 -1.8016 -2.0006
 4655TIP3   OH235379   0.978   3.501   4.268 -0.1429  0.6994 -0.1681
 4655TIP3    H135380   0.998   3.428   4.209  0.9006 -0.4399  1.5104
 4655TIP3    H235381   0.892   3.481   4.304 -0.6753  1.2748 -1.0806
 4656TIP3   OH235382   3.034   5.841  13.500 -0.3494 -0.2128 -0.8931
 4656TIP3    H135383   3.006   5.807  13.415 -0.6297  1.1682 -1.3942
 4656TIP3    H235384   3.056   5.933  13.482  4.0365 -0.9419 -0.4945
 4657TIP3   OH235385   4.036   4.972   1.855 -0.0865  0.0345  0.2692
 4657TIP3    H135386   4.126   4.985   1.824 -0.2903 -1.0927 -0.8926
 4657TIP3    H235387   3.981   5.014   1.788 -0.4678 -0.2583  0.3962
 4658TIP3   OH235388   0.530   0.391  12.456  0.3594  0.0220  0.0475
 4658TIP3    H135389   0.471   0.414  12.384  0.6790 -2.4827 -1.1539
 4658TIP3    H235390   0.614   0.372  12.413  0.3259 -2.3660  0.8847
 4659TIP3   OH235391   5.802   1.925   1.041 -0.3419  0.3345  0.0644
 4659TIP3    H135392   5.748   1.920   0.962  0.4560  0.2482 -0.4882
 4659TIP3    H235393   5.858   2.002   1.027  1.3691 -0.9425 -0.4875
 4660TIP3   OH235394   6.018   4.577   4.453 -0.1378  0.0750 -0.4414
 4660TIP3    H135395   6.075   4.566   4.529  1.3300  0.5116 -1.4290
 4660TIP3    H235396   5.986   4.668   4.460  0.5465  0.3420 -0.6943
 4661TIP3   OH235397   4.852   0.394  11.421 -0.0986 -0.0269 -0.6125
 4661TIP3    H135398   4.886   0.351  11.342 -0.6412 -0.5216 -0.5866
 4661TIP3    H235399   4.918   0.375  11.488 -0.2055 -0.6191 -0.6652
 4662TIP3   OH235400   5.732   4.285  12.106 -0.2011  0.2002  0.0332
 4662TIP3    H135401   5.802   4.234  12.147  0.0750 -0.0853 -0.7663
 4662TIP3    H235402   5.774   4.367  12.080 -0.8281  1.2092  2.0284
 4663TIP3   OH235403   1.706   4.357  16.808  0.1988 -0.2039 -0.4432
 4663TIP3    H135404   1.771   4.287  16.799  0.9863  0.0849  2.2713
 4663TIP3    H235405   1.732   4.423  16.743  2.3143 -0.3323  0.2193
 4664TIP3   OH235406   2.100   5.297  16.202 -0.0995 -0.1756  0.1900
 4664TIP3    H135407   2.066   5.238  16.135 -1.6475  1.9724 -1.0450
 4664TIP3    H235408   2.090   5.384  16.164  1.5069  0.9563  2.1765
 4665TIP3   OH235409   1.263   5.576  11.625  0.7431 -0.0019 -0.5126
 4665TIP3    H135410   1.222   5.639  11.684  0.4584 -0.6089 -0.0670
 4665TIP3    H235411   1.255   5.617  11.538 -2.7474 -1.0357 -0.8064
 4666TIP3   OH235412   5.240   1.911  17.223  0.5686 -0.5551  0.0351
 4666TIP3    H135413   5.183   1.840  17.253  0.7200 -0.5097  0.4347
 4666TIP3    H235414   5.181   1.975  17.184  0.3213 -0.4039  0.6475
 4667TIP3   OH235415   3.030   1.148   2.010 -0.1236 -0.4335  0.5725
 4667TIP3    H135416   3.110   1.113   1.971  0.6084  0.3023  1.3658
 4667TIP3    H235417   3.020   1.100   2.092 -1.5758 -1.8707 -0.3769
 4668TIP3   OH235418   0.666   3.200   4.000  0.3106 -0.3648 -0.5977
 4668TIP3    H135419   0.593   3.239   3.951  1.4728  1.4292 -0.9991
 4668TIP3    H235420   0.648   3.222   4.091  1.4569  2.1281 -0.9052
 4669TIP3   OH235421   4.826   0.319   2.229 -0.4478 -0.3447  0.2339
 4669TIP3    H135422   4.896   0.255   2.216  1.0929  1.3126 -0.0788
 4669TIP3    H235423   4.858   0.399   2.187 -2.9269  0.2623 -0.6684
 4670TIP3   OH235424   5.951   6.633  12.705 -0.1206  0.2613  0.3826
 4670TIP3    H135425   6.032   6.672  12.739  0.8133 -0.1656 -1.2467
 4670TIP3    H235426   5.885   6.703  12.714  0.6600  0.9618  0.8063
 4671TIP3   OH235427   5.585   2.437  15.619  0.7481 -0.2500  0.1588
 4671TIP3    H135428   5.670   2.450  15.661  1.3767 -1.0675 -0.8379
 4671TIP3    H235429   5.564   2.345  15.635  0.1795 -0.1282  0.1425
 4672TIP3   OH235430   6.155   5.082   0.291  0.0291 -0.1204  0.5039
 4672TIP3    H135431   6.232   5.136   0.304 -0.6812  1.8193 -2.3403
 4672TIP3    H235432   6.170   5.038   0.207 -0.8480 -1.8166  1.1894
 4673TIP3   OH235433   0.305   3.993  16.054 -0.0127  0.3989  0.5083
 4673TIP3    H135434   0.245   4.068  16.057 -1.0908 -0.4020 -0.3487
 4673TIP3    H235435   0.391   4.031  16.071 -0.7076  1.6302  1.4407
 4674TIP3   OH235436   3.742   2.880  16.744 -0.0915  0.0485 -0.3500
 4674TIP3    H135437   3.797   2.827  16.801  0.4886  1.1491  0.1277
 4674TIP3    H235438   3.795   2.895  16.666  0.2654  1.0059  0.0608
 4675TIP3   OH235439   0.389   5.518  12.238  0.4202 -0.1618  0.0240
 4675TIP3    H135440   0.330   5.538  12.311 -0.7134 -1.7171 -0.4168
 4675TIP3    H235441   0.474   5.503  12.279  0.3484  1.2784  0.7612
 4676TIP3   OH235442   4.315   4.965   3.493  0.2472  0.7261 -0.0323
 4676TIP3    H135443   4.261   4.923   3.559 -1.3736  0.3109 -1.5420
 4676TIP3    H235444   4.375   4.896   3.463  1.2895  1.0395  1.2679
 4677TIP3   OH235445   4.197   3.022   5.147 -0.1531 -0.0942 -0.2162
 4677TIP3    H135446   4.173   3.070   5.226 -0.8887  0.7644 -0.9456
 4677TIP3    H235447   4.288   3.046   5.131 -0.3311  0.5947 -0.2353
 4678TIP3   OH235448   1.479   2.294  15.042 -0.3231 -0.6095  0.1023
 4678TIP3    H135449   1.559   2.317  14.994 -0.6067  0.4679  0.1101
 4678TIP3    H235450   1.440   2.379  15.065 -2.1135 -1.0960 -0.9663
 4679TIP3   OH235451   5.703   3.525  10.657  0.5684  0.4476 -0.7639
 4679TIP3    H135452   5.674   3.450  10.606 -2.0034  1.9847 -1.7262
 4679TIP3    H235453   5.780   3.558  10.609 -0.2895  0.3764 -2.2360
 4680TIP3   OH235454   3.178   3.905   3.041 -0.1516 -0.2346 -0.0943
 4680TIP3    H135455   3.274   3.915   3.045  0.6094 -5.2214  1.6233
 4680TIP3    H235456   3.159   3.899   2.948  0.9245  1.9113 -0.5314
 4681TIP3   OH235457   4.933   3.260   0.002 -0.2368  0.3117  0.5256
 4681TIP3    H135458   4.922   3.355   0.005  1.1511  0.4806  1.5500
 4681TIP3    H235459   4.854   3.225   0.045 -0.1012  1.0833  1.4351
 4682TIP3   OH235460   1.388   4.800  13.703 -0.5526  0.1336  0.9237
 4682TIP3    H135461   1.482   4.806  13.718  0.0412 -3.7936 -0.2060
 4682TIP3    H235462   1.349   4.827  13.787  1.4487  2.1199  1.3162
 4683TIP3   OH235463   2.583   3.931  12.179 -0.0193 -0.2654  0.0102
 4683TIP3    H135464   2.607   3.906  12.090  0.5865 -0.0787  0.1140
 4683TIP3    H235465   2.660   3.978  12.212 -0.8785  1.2005  0.0268
 4684TIP3   OH235466   3.167   2.528  13.036 -0.2993  0.3068 -0.8638
 4684TIP3    H135467   3.089   2.472  13.036 -0.4203  0.4753 -0.4865
 4684TIP3    H235468   3.136   2.612  13.004 -0.5541  0.7542  0.4933
 4685TIP3   OH235469   4.164   1.159  16.742 -0.7694 -1.0045 -0.4576
 4685TIP3    H135470   4.145   1.126  16.830  3.2310 -1.5298  0.3800
 4685TIP3    H235471   4.169   1.254  16.753 -0.3032 -1.0675 -0.1093
 4686TIP3   OH235472   4.653   5.707   2.912  0.1034 -0.4699  0.2119
 4686TIP3    H135473   4.673   5.633   2.855 -0.7353 -1.3067  0.9680
 4686TIP3    H235474   4.580   5.751   2.869 -1.6717 -2.0807  1.3965
 4687TIP3   OH235475   6.144   5.684   5.979  0.0529 -0.1553 -0.2356
 4687TIP3    H135476   6.123   5.760   5.924 -0.9242 -0.6190 -0.5364
 4687TIP3    H235477   6.074   5.622   5.961 -0.6244 -0.1198  1.9309
 4688TIP3   OH235478   4.672   2.798   6.033 -0.5957  0.5332  0.3582
 4688TIP3    H135479   4.634   2.714   6.057 -2.0627  0.9773 -0.3099
 4688TIP3    H235480   4.640   2.859   6.100 -0.0557  0.6894  0.4793
 4689TIP3   OH235481   3.374   6.294  14.363  0.4079 -0.6159 -0.4979
 4689TIP3    H135482   3.362   6.335  14.277  3.2941  1.8187  0.1153
 4689TIP3    H235483   3.459   6.251  14.357  0.4198 -0.8410  1.0091
 4690TIP3   OH235484   3.611   4.361   5.961 -0.1359  0.1919  0.5400
 4690TIP3    H135485   3.597   4.425   5.890 -1.1584  0.3897  0.9042
 4690TIP3    H235486   3.595   4.411   6.041 -1.0829 -0.5361  0.8259
 4691TIP3   OH235487   5.512   5.401  14.438  0.6185 -0.0500  0.1384
 4691TIP3    H135488   5.464   5.387  14.520 -0.0972 -0.6518 -0.3764
 4691TIP3    H235489   5.529   5.495  14.437 -0.3277  0.1413  0.4551
 4692TIP3   OH235490   2.461   0.940   3.340 -0.8163  0.2558  0.1713
 4692TIP3    H135491   2.389   0.877   3.343 -0.6945  0.0678 -0.5581
 4692TIP3    H235492   2.429   1.015   3.389 -1.8052  0.4673 -0.7471
 4693TIP3   OH235493   5.729   0.863  15.661  0.4571 -0.1191 -0.8067
 4693TIP3    H135494   5.820   0.891  15.661  0.3673  0.2069  0.1691
 4693TIP3    H235495   5.695   0.890  15.747 -0.3063 -1.0318 -0.7965
 4694TIP3   OH235496   6.170   2.333   0.592 -0.0741  0.3790  0.2229
 4694TIP3    H135497   6.086   2.289   0.580  0.0195 -0.0565  1.0197
 4694TIP3    H235498   6.151   2.404   0.653  0.5743 -1.3296  2.5629
 4695TIP3   OH235499   3.658   2.974   2.495 -0.4791 -0.0182 -0.7213
 4695TIP3    H135500   3.658   2.878   2.487 -1.4835 -0.1526  0.5486
 4695TIP3    H235501   3.591   2.992   2.560  1.7420  1.3567  1.3300
 4696TIP3   OH235502   1.491   3.962  14.933  0.0280 -0.3419 -0.2661
 4696TIP3    H135503   1.453   4.048  14.917  0.7244  0.3042  1.3908
 4696TIP3    H235504   1.578   3.979  14.968  0.4078 -1.7368 -0.4422
 4697TIP3   OH235505   3.624   5.399  13.843 -0.9037 -0.3909 -0.4338
 4697TIP3    H135506   3.672   5.316  13.841 -1.5674 -0.7931  0.0846
 4697TIP3    H235507   3.627   5.427  13.934 -1.4751 -0.3181 -0.4335
 4698TIP3   OH235508   3.966   6.123   4.348  0.0301 -0.4474 -0.5324
 4698TIP3    H135509   4.012   6.041   4.361 -0.9109 -0.7281  1.3170
 4698TIP3    H235510   3.895   6.122   4.411 -0.9006  1.1541 -1.4628
 4699TIP3   OH235511   6.006   1.861  15.392  0.1119 -0.0789 -0.3170
 4699TIP3    H135512   6.044   1.818  15.469  0.8975  1.3604  0.1457
 4699TIP3    H235513   5.918   1.826  15.385 -0.6436  1.0308  2.3520
 4700TIP3   OH235514   1.505   4.761   3.008 -0.0405  0.3371  0.2531
 4700TIP3    H135515   1.547   4.745   2.923  0.5173 -0.3941  0.6562
 4700TIP3    H235516   1.532   4.688   3.063 -0.8938  0.4755  0.8898
 4701TIP3   OH235517   0.874   0.136   4.641 -0.4525 -0.3130  0.3307
 4701TIP3    H135518   0.945   0.135   4.705  0.3753 -2.2299 -0.5513
 4701TIP3    H235519   0.897   0.207   4.581  1.2905 -1.5443 -0.5171
 4702TIP3   OH235520   1.933   4.004   0.127  0.4179 -0.2408 -0.0690
 4702TIP3    H135521   1.915   3.940   0.196 -1.3408 -0.6102 -0.8296
 4702TIP3    H235522   1.981   3.955   0.060 -0.3911 -0.6226 -0.3762
 4703TIP3   OH235523   4.610   6.307   0.600  0.7531  0.2674  0.3882
 4703TIP3    H135524   4.666   6.368   0.648 -0.1957  2.4129 -1.0652
 4703TIP3    H235525   4.647   6.305   0.512 -0.7962  0.9550 -0.3241
 4704TIP3   OH235526   3.257   4.823   3.150 -0.5512 -0.0286  0.1914
 4704TIP3    H135527   3.194   4.752   3.159 -0.4323 -0.0968  0.5044
 4704TIP3    H235528   3.211   4.889   3.099 -0.4048 -0.6301 -0.7407
 4705TIP3   OH235529   0.247   5.243   5.417  0.0448 -0.3237  0.4974
 4705TIP3    H135530   0.168   5.296   5.428  0.5221  0.8515 -1.3230
 4705TIP3    H235531   0.319   5.301   5.439  0.4853 -0.9159  0.6487
 4706TIP3   OH235532   1.231   4.682  11.390 -0.3308 -0.0392 -0.0525
 4706TIP3    H135533   1.304   4.715  11.442  0.5225  0.8503 -1.7108
 4706TIP3    H235534   1.238   4.587  11.396  0.6573  0.0353  0.2473
 4707TIP3   OH235535   3.160   1.091   3.771  0.2550 -0.3725 -0.4550
 4707TIP3    H135536   3.169   1.132   3.857 -1.3301 -2.1700  0.6533
 4707TIP3    H235537   3.247   1.097   3.732  0.4710  2.5099  0.2792
 4708TIP3   OH235538   6.130   4.742  16.131 -0.3816 -0.0845  0.0948
 4708TIP3    H135539   6.123   4.699  16.216 -0.1165 -0.7513 -0.2130
 4708TIP3    H235540   6.113   4.834  16.150  0.7991 -0.0357  1.0520
 4709TIP3   OH235541   0.396   1.171  12.083  0.4764  0.4206 -0.1556
 4709TIP3    H135542   0.433   1.257  12.102  2.4035 -0.4431  0.2472
 4709TIP3    H235543   0.394   1.127  12.168  1.4539 -0.6281 -0.6445
 4710TIP3   OH235544   6.739   4.939  12.713  0.2189  0.6640  0.4883
 4710TIP3    H135545   6.809   4.889  12.670 -1.3005  0.2522 -1.7239
 4710TIP3    H235546   6.663   4.880  12.711 -0.5398  1.5634  1.6572
 4711TIP3   OH235547   2.214   6.189  14.541  0.0736 -0.5978 -0.1754
 4711TIP3    H135548   2.193   6.282  14.546 -0.5055 -0.7951  1.9072
 4711TIP3    H235549   2.301   6.186  14.501  0.1453  0.8392 -0.1708
 4712TIP3   OH235550   3.771   2.825  14.458 -0.2795  0.4731  0.1689
 4712TIP3    H135551   3.738   2.889  14.521  0.4872  1.0075  0.0432
 4712TIP3    H235552   3.866   2.832  14.464 -0.1814  0.8048 -1.2936
 4713TIP3   OH235553   4.987   1.148  13.769  0.3021 -0.0279  0.1947
 4713TIP3    H135554   4.991   1.053  13.762  0.0078  0.0800 -2.7698
 4713TIP3    H235555   4.962   1.177  13.682 -1.9053  2.6729  1.5628
 4714TIP3   OH235556   6.470   6.194  16.970  0.0394 -0.1821  0.3766
 4714TIP3    H135557   6.393   6.139  16.956  0.7134 -0.9832 -0.2958
 4714TIP3    H235558   6.515   6.155  17.044  0.2328 -0.2122  0.2450
 4715TIP3   OH235559   4.780   3.560  14.651 -0.2264 -0.3608 -0.6559
 4715TIP3    H135560   4.747   3.648  14.636 -0.4520 -0.0233  1.6078
 4715TIP3    H235561   4.703   3.503  14.646 -0.3144 -0.2424 -0.6372
 4716TIP3   OH235562   0.161   6.355  16.201 -0.2066  0.0258  0.3472
 4716TIP3    H135563   0.205   6.416  16.260  0.9977 -0.4058 -0.0726
 4716TIP3    H235564   0.083   6.402  16.172 -0.5568  0.4321  1.8840
 4717TIP3   OH235565   6.272   1.405   1.693 -1.2071  0.5468  0.6487
 4717TIP3    H135566   6.265   1.313   1.671  0.5563  0.7555 -0.9698
 4717TIP3    H235567   6.241   1.451   1.615 -1.2886  1.3459  1.1340
 4718TIP3   OH235568   5.306   2.711  10.700  0.1439 -0.3348  0.2074
 4718TIP3    H135569   5.351   2.725  10.783 -0.5573  0.2167  0.5024
 4718TIP3    H235570   5.284   2.618  10.699  0.8577 -0.5135  0.2696
 4719TIP3   OH235571   1.797   2.560   1.668 -0.4278  0.2701  0.4748
 4719TIP3    H135572   1.881   2.578   1.712 -1.4222  1.4920  1.9877
 4719TIP3    H235573   1.813   2.583   1.577 -0.0812  4.3082  1.3500
 4720TIP3   OH235574   0.035   3.171  12.873 -0.1096  0.3562  0.3379
 4720TIP3    H135575   0.005   3.252  12.833  0.2785  1.5138  2.2654
 4720TIP3    H235576   0.059   3.195  12.962 -0.6626 -2.0181  1.2172
 4721TIP3   OH235577   4.860   3.850  15.587  0.1859  0.1078  0.0234
 4721TIP3    H135578   4.927   3.850  15.518  0.6218  2.3457  0.3895
 4721TIP3    H235579   4.801   3.922  15.563 -0.1695  0.3288  1.4981
 4722TIP3   OH235580   3.078   3.251   2.031  0.3183  0.1594  0.0918
 4722TIP3    H135581   3.121   3.226   2.113 -0.4551  1.5298  0.9687
 4722TIP3    H235582   2.995   3.202   2.032  0.4548 -0.0792 -0.0510
 4723TIP3   OH235583   3.530   4.912  15.334  0.6693 -0.2803 -0.7128
 4723TIP3    H135584   3.446   4.868  15.336  1.0549 -1.0467 -0.8267
 4723TIP3    H235585   3.540   4.941  15.243 -0.3867  1.6909 -0.2602
 4724TIP3   OH235586   0.434   3.003   0.726  0.2775 -0.1001 -0.1406
 4724TIP3    H135587   0.482   2.995   0.644  0.7570 -2.0407  0.2732
 4724TIP3    H235588   0.347   2.967   0.707 -0.0936  0.7956 -0.1622
 4725TIP3   OH235589   3.644   0.301  16.770 -0.7147 -0.0002 -0.5376
 4725TIP3    H135590   3.723   0.248  16.759 -0.4095 -0.0281  1.5064
 4725TIP3    H235591   3.673   0.390  16.751 -0.0324  0.0651  0.7108
 4726TIP3   OH235592   1.743   4.977  12.705  0.5062 -0.0539  0.3528
 4726TIP3    H135593   1.698   4.923  12.770 -0.7452  0.7469  0.1831
 4726TIP3    H235594   1.789   5.042  12.757 -0.7081  0.7502  0.4726
 4727TIP3   OH235595   6.606   2.374  16.375  0.3727 -0.1095  0.3246
 4727TIP3    H135596   6.695   2.361  16.406 -0.3976  1.3092  3.5008
 4727TIP3    H235597   6.553   2.314  16.427 -0.4616 -2.7645 -3.1724
 4728TIP3   OH235598   4.479   1.359   1.256  0.5760  0.1265  0.0442
 4728TIP3    H135599   4.408   1.373   1.194  1.5190  2.1820 -0.6555
 4728TIP3    H235600   4.531   1.288   1.217 -1.0520 -1.4326  0.5966
 4729TIP3   OH235601   5.967   3.839  11.695 -0.0878  0.2613 -0.4974
 4729TIP3    H135602   6.012   3.762  11.729  0.1678  0.1364 -1.1076
 4729TIP3    H235603   5.955   3.896  11.772  0.4230 -0.0394 -0.1912
 4730TIP3   OH235604   5.697   0.991  10.877 -0.1063 -0.6254  0.1162
 4730TIP3    H135605   5.638   0.952  10.942 -0.9205  0.2905 -0.0413
 4730TIP3    H235606   5.785   0.973  10.911 -0.4056 -2.8641 -0.1401
 4731TIP3   OH235607   5.923   6.339   2.164 -0.1068  0.3853  0.5537
 4731TIP3    H135608   5.903   6.422   2.206 -0.9559  0.9540 -0.8763
 4731TIP3    H235609   5.979   6.362   2.090 -0.9171 -0.1965 -0.2713
 4732TIP3   OH235610   0.455   6.015   3.311  0.0911 -0.3286 -0.1494
 4732TIP3    H135611   0.507   5.993   3.234  1.3289  2.4798 -0.2469
 4732TIP3    H235612   0.396   6.084   3.280 -0.1664  0.0627  1.1688
 4733TIP3   OH235613   3.587   1.761  17.101 -0.4543  0.6293 -0.1339
 4733TIP3    H135614   3.527   1.688  17.107 -1.4025  1.4538  0.7438
 4733TIP3    H235615   3.673   1.724  17.122 -0.9260 -0.2198  0.3242
 4734TIP3   OH235616   3.246   0.102   5.588  0.1420  0.2275 -0.0871
 4734TIP3    H135617   3.251   0.198   5.589  0.3191  0.2387 -1.2364
 4734TIP3    H235618   3.211   0.081   5.502  1.1165 -0.7946 -0.2461
 4735TIP3   OH235619   5.991   1.131   5.074  0.1656 -0.3588  0.5847
 4735TIP3    H135620   6.080   1.127   5.040  0.0458  1.3802 -0.0422
 4735TIP3    H235621   5.977   1.045   5.114  0.7820 -2.0617 -2.5417
 4736TIP3   OH235622   0.686   0.564  13.696 -0.0878  0.1317  0.2477
 4736TIP3    H135623   0.737   0.546  13.617  0.3626  1.7979  0.1309
 4736TIP3    H235624   0.680   0.479  13.740  1.7318 -0.3653 -0.3633
 4737TIP3   OH235625   3.248   4.410  16.050 -0.2359  0.0638  0.2983
 4737TIP3    H135626   3.305   4.334  16.061  1.0116  0.9929  0.3694
 4737TIP3    H235627   3.187   4.405  16.124  0.1327 -0.5923  0.5671
 4738TIP3   OH235628   5.781   6.314  13.231 -0.4934 -0.6663  0.5925
 4738TIP3    H135629   5.751   6.360  13.309 -1.7479 -1.3794  0.5534
 4738TIP3    H235630   5.723   6.346  13.161  0.0082 -0.7298  0.1443
 4739TIP3   OH235631   1.677   0.510   4.496  0.0797  0.3915 -0.5159
 4739TIP3    H135632   1.658   0.592   4.540  0.7719 -0.1094  0.7653
 4739TIP3    H235633   1.716   0.536   4.413  0.5189  1.3483 -0.0241
 4740TIP3   OH235634   1.911   5.548   5.036 -0.8355  0.3204  0.3322
 4740TIP3    H135635   1.963   5.474   5.006 -1.1796  0.1475  0.1566
 4740TIP3    H235636   1.820   5.522   5.020 -1.0823 -0.0320  2.0664
 4741TIP3   OH235637   2.659   2.467  16.139 -0.8733  0.1178  0.1362
 4741TIP3    H135638   2.743   2.449  16.182 -0.0002 -1.8430 -2.1418
 4741TIP3    H235639   2.643   2.560  16.156  1.6722  0.5202  0.8071
 4742TIP3   OH235640   5.893   2.046  12.799 -0.1309  0.0726 -0.0243
 4742TIP3    H135641   5.876   2.131  12.759 -1.2716 -0.3109 -0.3777
 4742TIP3    H235642   5.971   2.060  12.853 -1.2799  1.7848  1.2766
 4743TIP3   OH235643   4.768   2.371   5.451 -0.2258  0.7239  0.2131
 4743TIP3    H135644   4.814   2.318   5.386 -1.8944 -0.4778 -0.0375
 4743TIP3    H235645   4.833   2.384   5.521  0.6581 -0.4585 -0.3532
 4744TIP3   OH235646   4.266   1.613   2.503 -0.1618 -0.3596  0.2721
 4744TIP3    H135647   4.194   1.566   2.545  0.8765 -1.1435  1.2505
 4744TIP3    H235648   4.223   1.681   2.451 -1.7345 -2.3746 -1.2318
 4745TIP3   OH235649   4.211   0.266   3.706  0.1716 -0.0691 -0.1105
 4745TIP3    H135650   4.196   0.223   3.622  1.6661 -2.1935  0.6294
 4745TIP3    H235651   4.125   0.270   3.746 -0.3784 -0.0978 -1.2380
 4746TIP3   OH235652   4.155   5.578   3.007  0.4323  0.0435  0.3582
 4746TIP3    H135653   4.197   5.664   2.997  0.9522 -0.2372  0.0888
 4746TIP3    H235654   4.177   5.531   2.927  0.8736 -0.6471  0.8701
 4747TIP3   OH235655   0.668   0.378   0.435  0.1999 -0.1418 -0.4593
 4747TIP3    H135656   0.695   0.320   0.364  1.6818  1.5795 -1.3793
 4747TIP3    H235657   0.573   0.380   0.430  0.3023  0.8043 -3.1702
 4748TIP3   OH235658   2.811   0.158   0.782  0.5426  0.4608 -0.2846
 4748TIP3    H135659   2.831   0.247   0.813  0.6330  0.0155  0.9800
 4748TIP3    H235660   2.883   0.105   0.813 -0.8055 -0.5320  1.3322
 4749TIP3   OH235661   5.193   0.276  14.471  0.0124 -0.3093 -0.0932
 4749TIP3    H135662   5.259   0.207  14.474  0.3227 -0.0129 -0.0983
 4749TIP3    H235663   5.110   0.229  14.461  0.2109 -0.6864  0.0018
 4750TIP3   OH235664   6.156   1.612  13.186  0.4596 -0.3216 -0.0211
 4750TIP3    H135665   6.159   1.656  13.271  0.5391  0.8520 -0.6115
 4750TIP3    H235666   6.174   1.682  13.123  0.2625 -1.1528 -1.0085
 4751TIP3   OH235667   0.150   3.717  14.151 -0.7715 -0.5718  0.2758
 4751TIP3    H135668   0.067   3.728  14.105 -0.4284  0.8391 -0.0413
 4751TIP3    H235669   0.174   3.805  14.180  0.8527 -0.8560 -0.0722
 4752TIP3   OH235670   5.639   5.876  14.269  0.0860 -0.3675  0.4389
 4752TIP3    H135671   5.590   5.863  14.350 -0.8947  0.5784  0.0154
 4752TIP3    H235672   5.589   5.942  14.221  0.7839 -0.7322 -0.8253
 4753TIP3   OH235673   2.969   4.306   4.632 -0.1026 -0.1571 -0.1156
 4753TIP3    H135674   2.945   4.337   4.545 -0.5613 -0.3541 -0.0668
 4753TIP3    H235675   2.934   4.217   4.636 -0.0138 -0.1804  0.2403
 4754TIP3   OH235676   1.688   3.440   3.507 -0.3108  0.3760 -0.5685
 4754TIP3    H135677   1.778   3.467   3.526 -0.8653  1.0260  1.3310
 4754TIP3    H235678   1.657   3.503   3.442  0.6689 -0.0188 -1.4465
 4755TIP3   OH235679   5.251   4.414  11.102 -0.1875 -0.3685 -0.1084
 4755TIP3    H135680   5.271   4.358  11.027  0.0394  0.1691 -0.4539
 4755TIP3    H235681   5.273   4.360  11.178 -0.6476 -1.0015 -0.4173
 4756TIP3   OH235682   5.172   2.643  16.675  0.4765  0.2015  0.3765
 4756TIP3    H135683   5.179   2.548  16.662 -1.6618  0.0300  0.0422
 4756TIP3    H235684   5.113   2.672  16.606  1.1404  1.7966  0.4525
 4757TIP3   OH235685   1.824   3.154   1.850 -0.6016 -0.2879  0.2210
 4757TIP3    H135686   1.879   3.159   1.771 -0.3921 -2.4567  0.1712
 4757TIP3    H235687   1.759   3.087   1.829 -1.1738 -0.1539  1.5300
 4758TIP3   OH235688   4.963   1.254   4.123  0.4353 -0.1279 -0.4104
 4758TIP3    H135689   4.903   1.212   4.062  1.2708 -1.7851 -0.1424
 4758TIP3    H235690   4.959   1.347   4.101 -1.4122 -0.3387 -1.0721
 4759TIP3   OH235691   2.594   6.559   3.474  0.2742  0.1769 -0.0649
 4759TIP3    H135692   2.519   6.557   3.414 -1.4553 -0.7196  1.9812
 4759TIP3    H235693   2.626   6.649   3.470 -0.4063  0.3784 -1.5552
 4760TIP3   OH235694   0.822   4.742   1.586 -0.2333 -0.2575 -0.4471
 4760TIP3    H135695   0.814   4.669   1.647 -0.6830  0.5215  0.4581
 4760TIP3    H235696   0.884   4.711   1.520  1.0400 -0.7934  0.9304
 4761TIP3   OH235697   5.585   5.793  15.764  0.2001  0.7253 -0.1175
 4761TIP3    H135698   5.604   5.799  15.857  1.1530  0.8289 -0.3025
 4761TIP3    H235699   5.542   5.708  15.753  0.0618  0.7285  0.4132
 4762TIP3   OH235700   6.148   2.229   5.252  0.1056 -0.6050 -0.5220
 4762TIP3    H135701   6.059   2.195   5.251 -0.5254  0.9557 -1.1732
 4762TIP3    H235702   6.149   2.294   5.322  0.5478 -0.1775 -0.9108
 4763TIP3   OH235703   4.085   6.000  12.403 -0.1369  0.2316 -0.0768
 4763TIP3    H135704   4.128   6.050  12.333  0.6804  0.8396  0.8264
 4763TIP3    H235705   4.143   6.011  12.478 -2.1580  1.5819  1.3803
 4764TIP3   OH235706   5.316   6.220  11.473  0.1941  0.6661 -0.3106
 4764TIP3    H135707   5.390   6.279  11.485 -0.3853  1.3173  0.0821
 4764TIP3    H235708   5.279   6.209  11.560  0.2050 -0.1760 -0.3986
 4765TIP3   OH235709   0.338   2.186   5.185  0.0877  0.5738 -0.6425
 4765TIP3    H135710   0.417   2.230   5.155  0.6058 -0.0611 -0.2330
 4765TIP3    H235711   0.298   2.248   5.246  1.7842 -0.2071  1.3908
 4766TIP3   OH235712   0.117   0.339   2.379  0.2708  0.4508 -0.2962
 4766TIP3    H135713   0.102   0.254   2.339 -0.1896  0.7318 -0.7244
 4766TIP3    H235714   0.176   0.321   2.452  0.5917 -0.1601 -0.6993
 4767TIP3   OH235715   0.110   2.498  14.296  0.0962  0.6480  0.2280
 4767TIP3    H135716   0.172   2.469  14.229  0.6461  2.3973 -0.0611
 4767TIP3    H235717   0.048   2.426  14.304  1.0658 -0.3467 -0.8507
 4768TIP3   OH235718   2.703   2.370  11.981 -0.0190  0.6652 -0.4617
 4768TIP3    H135719   2.734   2.366  11.890  0.3341 -1.9294 -0.3146
 4768TIP3    H235720   2.611   2.346  11.975 -0.3045  1.6748 -0.2280
 4769TIP3   OH235721   4.787   0.805  10.926 -0.4834  0.5563  0.0807
 4769TIP3    H135722   4.851   0.832  10.861  0.8034  0.6018  1.3315
 4769TIP3    H235723   4.786   0.875  10.991 -0.3214 -0.3331  1.0881
 4770TIP3   OH235724   6.492   1.416   3.329 -0.0271  0.7469  0.1007
 4770TIP3    H135725   6.495   1.344   3.392  0.1121  1.3205  0.7530
 4770TIP3    H235726   6.518   1.375   3.246  2.5791  0.5550  0.9238
 4771TIP3   OH235727   5.802   3.058  16.014 -0.3496 -0.0313 -0.3900
 4771TIP3    H135728   5.722   3.093  16.054 -0.0328 -0.5103  0.6966
 4771TIP3    H235729   5.861   3.133  16.008  0.0402 -0.1831  1.1882
 4772TIP3   OH235730   5.812   6.333  17.102 -0.7353 -0.3678 -0.0596
 4772TIP3    H135731   5.821   6.266  17.033  0.9621 -1.7754  1.4251
 4772TIP3    H235732   5.809   6.416  17.054 -0.1373 -1.3234 -1.8564
 4773TIP3   OH235733   0.337   1.111   2.757  0.2338 -0.4761 -0.5944
 4773TIP3    H135734   0.312   1.189   2.807  1.9810  0.1774 -0.6768
 4773TIP3    H235735   0.280   1.111   2.680 -0.1131  0.4366 -0.3411
 4774TIP3   OH235736   2.613   2.716  12.816 -0.1584 -0.3222 -0.0596
 4774TIP3    H135737   2.552   2.732  12.888 -1.3073  1.4397 -1.3600
 4774TIP3    H235738   2.684   2.780  12.831 -0.6917  0.4523 -0.7931
 4775TIP3   OH235739   5.380   3.853   1.378  0.5607  0.1936 -0.0108
 4775TIP3    H135740   5.343   3.885   1.296  0.3122 -0.4352 -0.1524
 4775TIP3    H235741   5.474   3.844   1.361  0.2360 -2.0022 -0.9465
 4776TIP3   OH235742   0.285   1.812   2.068  0.5760 -0.0958 -0.0462
 4776TIP3    H135743   0.355   1.871   2.094  1.4051  0.3290 -2.9663
 4776TIP3    H235744   0.330   1.731   2.041 -0.3533 -1.1243  1.3243
 4777TIP3   OH235745   2.285   0.892  12.200 -0.1430 -0.4445 -0.2410
 4777TIP3    H135746   2.216   0.947  12.162 -0.4029 -0.5080  0.1320
 4777TIP3    H235747   2.286   0.915  12.293  0.8360  0.0826 -0.3640
 4778TIP3   OH235748   0.783   5.807   2.153  0.2684 -0.1574 -0.6564
 4778TIP3    H135749   0.751   5.720   2.128 -0.3605  0.2494 -1.2803
 4778TIP3    H235750   0.744   5.866   2.089 -1.5092  0.9393  1.3166
 4779TIP3   OH235751   3.291   5.406   3.897 -0.0186  0.3565 -0.1312
 4779TIP3    H135752   3.362   5.376   3.841  0.2959  1.3457 -0.2724
 4779TIP3    H235753   3.211   5.381   3.850  0.1916 -1.4684  0.3985
 4780TIP3   OH235754   5.379   5.589   1.184  0.9957 -0.0619 -0.3005
 4780TIP3    H135755   5.443   5.518   1.176  0.0838 -0.7044 -3.1861
 4780TIP3    H235756   5.294   5.544   1.185  0.4631  0.8964 -0.8822
 4781TIP3   OH235757   4.196   6.375   2.263  0.3327 -0.3433  0.5410
 4781TIP3    H135758   4.249   6.377   2.342  0.7708  0.5809  0.2328
 4781TIP3    H235759   4.243   6.430   2.200 -0.2155 -0.7332 -0.2309
 4782TIP3   OH235760   2.092   6.181   4.692 -0.2943 -0.7995  0.1215
 4782TIP3    H135761   2.151   6.123   4.644 -1.4690 -1.5277 -0.5067
 4782TIP3    H235762   2.007   6.169   4.649 -0.2613  2.7289 -1.1811
 4783TIP3   OH235763   4.698   4.326  12.914 -0.0963 -0.0774 -0.1835
 4783TIP3    H135764   4.655   4.262  12.971 -0.2983  0.1548 -0.0766
 4783TIP3    H235765   4.788   4.294  12.906 -0.7410 -1.6299 -1.9360
 4784TIP3   OH235766   5.670   2.679  13.941 -0.3556 -0.0909 -0.3247
 4784TIP3    H135767   5.662   2.695  13.847  1.2157  3.1373 -0.0283
 4784TIP3    H235768   5.600   2.731  13.981  0.5932  0.6967  0.3794
 4785TIP3   OH235769   2.374   5.350   4.764  0.5258 -0.4928  0.6319
 4785TIP3    H135770   2.443   5.358   4.698  0.8510 -1.5731  0.8178
 4785TIP3    H235771   2.303   5.303   4.720  0.3478 -0.3538  0.7665
 4786TIP3   OH235772   4.512   1.191   3.145  0.0465 -0.4304  0.1778
 4786TIP3    H135773   4.501   1.169   3.238  0.9423  1.4168  0.7708
 4786TIP3    H235774   4.605   1.211   3.136 -0.2134  0.4103 -0.8702
 4787TIP3   OH235775   1.962   5.266  14.862  0.1131 -0.2424  0.1346
 4787TIP3    H135776   1.873   5.236  14.840 -0.3063  0.3201  1.0253
 4787TIP3    H235777   1.951   5.317  14.942  0.8797  1.8450 -1.0076
 4788TIP3   OH235778   1.170   0.013  13.213  0.3212 -0.1813 -0.2088
 4788TIP3    H135779   1.114  -0.065  13.205  0.4890 -0.6975  2.7057
 4788TIP3    H235780   1.147   0.050  13.298  3.6360  0.1784  0.6445
 4789TIP3   OH235781   1.808   1.021   2.497 -0.4236 -0.4200  0.2968
 4789TIP3    H135782   1.845   1.088   2.554  0.4040  0.0678 -0.7600
 4789TIP3    H235783   1.721   1.053   2.475 -0.8939 -0.7886  1.5309
 4790TIP3   OH235784   6.221   6.298  12.577 -0.3095  0.0453  0.0302
 4790TIP3    H135785   6.130   6.290  12.604  0.4058 -1.9654  2.1419
 4790TIP3    H235786   6.271   6.295  12.658  1.7194 -0.3815 -1.1645
 4791TIP3   OH235787   4.179   4.091   3.385  0.1995 -0.3369 -0.3997
 4791TIP3    H135788   4.158   4.084   3.292 -1.8429  1.6388 -0.1657
 4791TIP3    H235789   4.095   4.080   3.430  0.9172  0.0985  1.1256
 4792TIP3   OH235790   5.161   5.128   0.969 -0.7471 -0.4442  0.4756
 4792TIP3    H135791   5.238   5.096   0.922  0.1906 -1.1929  2.4001
 4792TIP3    H235792   5.149   5.218   0.937  0.6003 -0.4942 -0.2575
 4793TIP3   OH235793   5.847   4.737  10.765  0.1309 -0.4149  0.7818
 4793TIP3    H135794   5.886   4.688  10.837  0.6261 -1.8429 -0.4154
 4793TIP3    H235795   5.782   4.678  10.727  0.8893 -0.2794 -0.8256
 4794TIP3   OH235796   2.224   5.749   4.920  0.2659  0.4984  0.3513
 4794TIP3    H135797   2.131   5.771   4.924  0.1504  0.4069 -1.1131
 4794TIP3    H235798   2.236   5.679   4.983 -1.2517 -1.4170 -1.3756
 4795TIP3   OH235799   2.267   1.760   5.189 -0.0036  0.3549 -0.0318
 4795TIP3    H135800   2.201   1.766   5.120 -0.0721 -2.0702 -0.2647
 4795TIP3    H235801   2.337   1.707   5.151  0.5498  0.0830  1.3116
 4796TIP3   OH235802   3.012   5.935  15.605 -0.0968 -0.1311  0.0054
 4796TIP3    H135803   2.961   6.009  15.639 -0.6917 -1.1714  1.4811
 4796TIP3    H235804   2.969   5.858  15.641  0.4257 -1.2335 -1.6110
 4797TIP3   OH235805   6.073   6.752   5.578 -0.0325  0.2520 -0.0649
 4797TIP3    H135806   6.079   6.796   5.493  0.8820  0.8875  0.3149
 4797TIP3    H235807   6.163   6.745   5.608 -0.3613  0.2547  0.9613
 4798TIP3   OH235808   6.623   5.579  12.325  0.0378  0.1387 -0.1806
 4798TIP3    H135809   6.665   5.645  12.271 -0.6434 -0.7963 -1.9289
 4798TIP3    H235810   6.637   5.497  12.279 -2.7174 -0.3674 -0.3103
 4799TIP3   OH235811   1.637   0.251  14.889 -0.1057  0.1295  0.3016
 4799TIP3    H135812   1.548   0.222  14.909 -0.0252 -1.8132 -1.8008
 4799TIP3    H235813   1.691   0.173  14.900  0.8255  0.4580 -1.4912
 4800TIP3   OH235814   0.194   5.464  17.076 -0.0535 -0.3749 -0.3013
 4800TIP3    H135815   0.263   5.468  17.010  1.7509  0.1264  1.4868
 4800TIP3    H235816   0.236   5.424  17.152 -2.4999 -2.5070  0.0841
 4801TIP3   OH235817   0.212   2.967   0.216  0.4360 -0.2709 -0.4893
 4801TIP3    H135818   0.126   2.939   0.249 -0.0404  0.9700 -0.6037
 4801TIP3    H235819   0.192   3.012   0.134  0.9275  1.8509  0.4724
 4802TIP3   OH235820   1.797   0.620  13.441 -0.4301  0.6149 -0.8151
 4802TIP3    H135821   1.848   0.655  13.367  0.0631 -0.2088 -0.8850
 4802TIP3    H235822   1.759   0.697  13.482  0.6036  1.2400 -0.9713
 4803TIP3   OH235823   3.510   5.357   3.169  0.1303  0.1563  0.2043
 4803TIP3    H135824   3.537   5.337   3.259 -0.6498 -0.4539  0.3120
 4803TIP3    H235825   3.427   5.311   3.158  0.2878  0.1112 -0.8857
 4804TIP3   OH235826   1.935   5.168   0.621 -0.1769 -0.0679  0.3519
 4804TIP3    H135827   1.949   5.164   0.716  1.8646 -0.8294  0.0773
 4804TIP3    H235828   1.845   5.198   0.611 -0.2944  0.4804  2.5271
 4805TIP3   OH235829   3.345   0.664  16.563 -0.2363  0.0127  0.0501
 4805TIP3    H135830   3.396   0.735  16.602 -2.1832  1.5033  0.0132
 4805TIP3    H235831   3.339   0.598  16.632 -0.0877  0.7739  0.8127
 4806TIP3   OH235832   0.171   0.613  12.363  0.1672 -0.1850 -0.3386
 4806TIP3    H135833   0.233   0.667  12.413  0.4220  0.7825 -1.6480
 4806TIP3    H235834   0.121   0.676  12.310  0.9115 -1.2339 -2.4040
 4807TIP3   OH235835   1.982   1.182   5.593 -0.2710 -0.2246 -0.3121
 4807TIP3    H135836   1.991   1.274   5.617  1.5074 -0.1984 -0.8839
 4807TIP3    H235837   1.983   1.135   5.677  0.3315  0.1974 -0.0760
 4808TIP3   OH235838   1.609   0.587   0.765 -0.6582  0.3572 -0.1273
 4808TIP3    H135839   1.635   0.679   0.772  1.9765 -0.3580  0.8121
 4808TIP3    H235840   1.649   0.558   0.683 -2.0133  0.1653 -0.7416
 4809TIP3   OH235841   3.714   1.342  17.042  0.2545 -0.4064 -0.2104
 4809TIP3    H135842   3.743   1.347  17.133 -0.1031  0.3736 -0.1325
 4809TIP3    H235843   3.763   1.412  16.997  0.0487 -0.4554 -0.5146
 4810TIP3   OH235844   3.884   6.671   3.304 -0.2744  0.0433  0.0405
 4810TIP3    H135845   3.968   6.678   3.259  0.3974 -2.5090  0.7048
 4810TIP3    H235846   3.907   6.651   3.395 -1.6184  1.8291  0.8242
 4811TIP3   OH235847   3.701   5.223   5.873  0.4358 -0.0326 -0.0782
 4811TIP3    H135848   3.676   5.315   5.860  0.3445 -0.2095 -1.2838
 4811TIP3    H235849   3.714   5.215   5.968 -2.4329  0.4872  0.4434
 4812TIP3   OH235850   1.172   5.440  12.547  0.0332 -0.0138 -0.6443
 4812TIP3    H135851   1.217   5.364  12.509  0.3477  0.2615 -0.8227
 4812TIP3    H235852   1.238   5.481  12.603  0.5312  1.3091 -2.1286
 4813TIP3   OH235853   6.132   5.036  15.057 -0.0422 -0.8381  0.8085
 4813TIP3    H135854   6.103   4.976  14.989  0.9502 -0.8628  0.3997
 4813TIP3    H235855   6.136   5.121  15.014  1.4353 -1.0050  0.5903
 4814TIP3   OH235856   5.713   4.226   5.496 -0.7945 -0.0248 -0.5240
 4814TIP3    H135857   5.756   4.171   5.562 -0.8520  2.4281  1.7389
 4814TIP3    H235858   5.751   4.197   5.413  0.3156 -2.3631  0.6878
 4815TIP3   OH235859   3.413   5.962   2.549 -0.1980  0.6604  0.1629
 4815TIP3    H135860   3.471   5.902   2.595 -0.9170  0.4610  0.8408
 4815TIP3    H235861   3.346   5.985   2.614 -2.3690 -1.1611 -1.2877
 4816TIP3   OH235862   2.592   6.670  12.886 -0.1710  0.0783 -0.1048
 4816TIP3    H135863   2.542   6.599  12.845 -0.0271 -0.7561  1.1267
 4816TIP3    H235864   2.676   6.630  12.908 -0.4448  0.3338  1.4922
 4817TIP3   OH235865   6.031   4.362  16.177  0.2069 -0.3144  0.2758
 4817TIP3    H135866   6.113   4.315  16.190  1.7015  2.1403  0.3542
 4817TIP3    H235867   6.017   4.363  16.082  1.3925  0.9772  0.0920
 4818TIP3   OH235868   6.404   3.651   1.534  0.4119  0.1418 -0.6164
 4818TIP3    H135869   6.316   3.681   1.513 -0.0651  0.5348  1.6484
 4818TIP3    H235870   6.427   3.591   1.463 -2.2544 -1.1066 -0.5607
 4819TIP3   OH235871   4.272   5.730  13.235 -0.3189 -0.5168 -0.6095
 4819TIP3    H135872   4.209   5.666  13.268  1.7084 -1.2690  2.2385
 4819TIP3    H235873   4.219   5.797  13.193 -2.7100 -2.8076 -1.5582
 4820TIP3   OH235874   6.446   1.529  14.143 -0.4083 -0.1740  0.3159
 4820TIP3    H135875   6.463   1.620  14.165 -0.9505 -0.1399  0.6071
 4820TIP3    H235876   6.475   1.480  14.220  0.3888 -0.2970 -0.0535
 4821TIP3   OH235877   3.481   4.471  14.539 -0.3663 -0.5046 -0.3965
 4821TIP3    H135878   3.555   4.413  14.561 -0.3916 -0.4725 -0.2267
 4821TIP3    H235879   3.430   4.421  14.476 -0.5203 -0.7669 -0.0674
 4822TIP3   OH235880   0.496   6.461   4.059  0.1333 -0.3617  0.3265
 4822TIP3    H135881   0.458   6.450   4.147 -0.2214 -0.0425  0.2140
 4822TIP3    H235882   0.587   6.436   4.070  0.1486 -0.1057  0.8393
 4823TIP3   OH235883   4.427   3.226  13.864 -0.1321 -0.1262 -0.1963
 4823TIP3    H135884   4.392   3.164  13.800  1.7020  0.3879 -1.7650
 4823TIP3    H235885   4.494   3.275  13.817  2.6414 -0.9566  2.5729
 4824TIP3   OH235886   3.937   2.634   2.316  0.0232  0.4461  0.3853
 4824TIP3    H135887   3.875   2.674   2.254  0.5438  0.3731 -0.1832
 4824TIP3    H235888   3.891   2.557   2.349 -0.5505  0.8886  0.6551
 4825TIP3   OH235889   3.967   1.786   4.842 -0.0037 -0.1148  0.8818
 4825TIP3    H135890   4.015   1.775   4.924 -0.0532 -1.0785  0.7973
 4825TIP3    H235891   4.001   1.868   4.805  0.4053  0.0474  1.6003
 4826TIP3   OH235892   5.031   4.009   4.932  0.7529 -0.4331  0.2388
 4826TIP3    H135893   4.954   4.065   4.938  0.7673 -0.1693 -1.5403
 4826TIP3    H235894   5.103   4.069   4.911  1.2455 -0.8269  0.7464
 4827TIP3   OH235895   2.324   3.811   4.605  0.1985 -0.2584 -0.0220
 4827TIP3    H135896   2.345   3.894   4.561 -1.0643  0.3576  0.4976
 4827TIP3    H235897   2.230   3.801   4.593  0.3763 -1.8092 -0.3578
 4828TIP3   OH235898   6.242   3.286  15.643 -0.1982 -0.1183  0.8175
 4828TIP3    H135899   6.257   3.235  15.722  1.4953 -1.4746 -0.3038
 4828TIP3    H235900   6.280   3.372  15.661  0.6016 -0.5656  1.3112
 4829TIP3   OH235901   5.719   2.594  11.600 -0.9189  0.4401 -0.1938
 4829TIP3    H135902   5.666   2.614  11.677  1.4212 -0.2181  1.7067
 4829TIP3    H235903   5.718   2.498  11.595  1.0884  0.3156  0.7314
 4830TIP3   OH235904   6.439   6.542   2.697  0.1670  0.3627 -0.0025
 4830TIP3    H135905   6.438   6.505   2.609 -1.2499  0.6883 -0.1595
 4830TIP3    H235906   6.486   6.478   2.750  0.0662 -0.3745 -0.7909
 4831TIP3   OH235907   1.892   2.727  10.603  0.0918  0.5600 -0.2766
 4831TIP3    H135908   1.852   2.665  10.542 -0.8939 -1.3769  2.1958
 4831TIP3    H235909   1.818   2.774  10.642  0.4708 -0.0753  1.2732
 4832TIP3   OH235910   3.480   2.936  11.460 -0.5789 -0.2063 -0.2696
 4832TIP3    H135911   3.498   2.843  11.473 -1.2006 -0.4262 -0.9026
 4832TIP3    H235912   3.519   2.979  11.536 -0.3554 -0.9925  0.0677
 4833TIP3   OH235913   0.920   2.660   1.406 -0.3253 -0.2997 -0.6672
 4833TIP3    H135914   0.868   2.694   1.334  1.9752  0.2082 -2.1909
 4833TIP3    H235915   1.003   2.636   1.366  1.2847  0.5861  1.9046
 4834TIP3   OH235916   5.629   5.826  15.500  0.0243  0.4076 -0.4627
 4834TIP3    H135917   5.600   5.827  15.591  1.3613 -0.0871 -0.0033
 4834TIP3    H235918   5.636   5.734  15.477 -0.2193  0.5265 -1.0496
 4835TIP3   OH235919   0.037   6.100   1.898  0.2959 -0.0530 -0.2018
 4835TIP3    H135920   0.103   6.032   1.887 -0.3642 -1.1635  2.0425
 4835TIP3    H235921   0.051   6.132   1.987 -1.2989  0.6490 -0.1742
 4836TIP3   OH235922   6.586   0.663  10.561 -0.0606  0.2512 -0.1432
 4836TIP3    H135923   6.497   0.698  10.570 -0.0180  0.0867  1.2169
 4836TIP3    H235924   6.638   0.714  10.623  0.4448 -0.7403  0.2804
 4837TIP3   OH235925   2.916   6.386  16.402  0.1104  0.2590  0.0884
 4837TIP3    H135926   2.926   6.365  16.309  0.9039  0.6744  0.0773
 4837TIP3    H235927   2.948   6.307  16.447 -0.4983 -0.0367  0.0163
 4838TIP3   OH235928   6.639   1.969   4.675 -0.5667  1.0515  0.0976
 4838TIP3    H135929   6.564   2.019   4.708 -1.5859  0.0337 -0.6043
 4838TIP3    H235930   6.621   1.879   4.702  0.9924  0.9435  0.9070
 4839TIP3   OH235931   5.444   2.484  16.158 -0.0370 -0.3067  0.9794
 4839TIP3    H135932   5.393   2.565  16.153 -0.7102 -0.6768  1.6444
 4839TIP3    H235933   5.482   2.475  16.070  0.5265  1.0233  1.0578
 4840TIP3   OH235934   6.297   0.274   6.620 -0.9419 -0.2791  0.3297
 4840TIP3    H135935   6.313   0.224   6.700  0.0649 -0.0244  0.3007
 4840TIP3    H235936   6.242   0.347   6.648  0.7102  0.7050  1.1261
 4841TIP3   OH235937   2.689   6.353  15.087 -0.0040 -0.1014  0.0060
 4841TIP3    H135938   2.664   6.413  15.017 -1.6552 -1.4228 -0.6146
 4841TIP3    H235939   2.685   6.406  15.166 -0.0190  0.9559 -0.6762
 4842TIP3   OH235940   1.067   1.257  16.906 -0.1310 -0.2421  0.1955
 4842TIP3    H135941   1.016   1.224  16.832  0.4738  1.3340 -0.9923
 4842TIP3    H235942   1.083   1.180  16.961 -0.1942 -1.5757 -1.5638
 4843TIP3   OH235943   3.989   4.506  15.470  0.5796  0.3239 -0.3187
 4843TIP3    H135944   4.051   4.501  15.397  1.2010 -0.8804  0.2602
 4843TIP3    H235945   4.044   4.513  15.548 -0.0029 -0.7118  0.2021
 4844TIP3   OH235946   4.439   5.718   0.060  0.2871 -0.5228 -0.2170
 4844TIP3    H135947   4.435   5.754  -0.028 -0.0341  2.3334  0.8866
 4844TIP3    H235948   4.508   5.652   0.055  0.8493  0.1427 -2.3987
 4845TIP3   OH235949   3.409   0.435   0.147  0.4697  0.0197  0.0191
 4845TIP3    H135950   3.394   0.419   0.054 -0.7732 -0.3763  0.2663
 4845TIP3    H235951   3.452   0.355   0.178  0.0048 -0.2532 -0.0270
 4846TIP3   OH235952   4.992   3.933   5.708  0.0965  0.7611 -0.1177
 4846TIP3    H135953   4.973   3.997   5.640 -0.9748  2.9389  2.0733
 4846TIP3    H235954   5.072   3.964   5.749  1.3780 -1.1651 -1.0179
 4847TIP3   OH235955   4.079   6.481   2.583 -0.3355 -0.2690 -0.0418
 4847TIP3    H135956   4.126   6.534   2.647 -0.3968 -0.6142  0.2904
 4847TIP3    H235957   3.987   6.495   2.602 -0.3527 -0.5034  0.0584
 4848TIP3   OH235958   0.495   1.764   3.031  0.3048 -0.2436  0.2461
 4848TIP3    H135959   0.416   1.795   3.076  0.8177 -0.0211  1.0045
 4848TIP3    H235960   0.520   1.837   2.974 -1.8179 -1.4396 -2.4629
 4849TIP3   OH235961   3.200   1.004   0.190 -0.3957 -0.3912 -0.8893
 4849TIP3    H135962   3.288   0.968   0.189 -0.1373  0.2176 -0.4134
 4849TIP3    H235963   3.145   0.932   0.223  0.2558 -0.0940  0.9892
 4850TIP3   OH235964   1.844   5.183   6.422 -0.0249  0.5816  0.3020
 4850TIP3    H135965   1.821   5.107   6.475 -1.0658  0.1701 -0.7048
 4850TIP3    H235966   1.898   5.237   6.480 -0.4802 -0.2188  1.5072
 4851TIP3   OH235967   4.657   2.877   4.957  0.1088  0.1402  0.0413
 4851TIP3    H135968   4.565   2.854   4.970  0.0147 -1.1702 -2.2836
 4851TIP3    H235969   4.660   2.912   4.868  2.1557 -2.0464 -0.8585
 4852TIP3   OH235970   2.753   3.621  17.237 -0.1927  0.1065  0.9590
 4852TIP3    H135971   2.677   3.680  17.233 -0.0047  0.5447  2.9001
 4852TIP3    H235972   2.749   3.582  17.325  0.8201 -1.2547  0.4362
 4853TIP3   OH235973   1.894   3.971  12.781  0.1275  0.1937 -0.2843
 4853TIP3    H135974   1.961   4.028  12.746  0.3371 -1.3261 -2.6276
 4853TIP3    H235975   1.873   3.911  12.708 -1.5862 -1.3076  1.3224
 4854TIP3   OH235976   2.958   4.113  13.840 -0.0374  0.0457  0.1811
 4854TIP3    H135977   2.968   4.146  13.751 -0.4819 -1.1486 -0.3429
 4854TIP3    H235978   2.939   4.019  13.829 -1.6524  0.1572  1.4580
 4855TIP3   OH235979   5.942   5.697  15.079 -0.0081 -0.4008 -0.5074
 4855TIP3    H135980   6.007   5.759  15.112 -1.0539  0.1834  0.5179
 4855TIP3    H235981   5.952   5.620  15.136 -0.5843 -0.0900  0.0253
 4856TIP3   OH235982   3.572   3.441   2.114  0.0731  0.1092  0.1837
 4856TIP3    H135983   3.527   3.361   2.142 -1.4804  0.8339 -0.1518
 4856TIP3    H235984   3.548   3.506   2.180 -1.2325  1.0774 -1.1652
 4857TIP3   OH235985   1.496   3.114   1.421 -0.6500  0.1595 -0.0917
 4857TIP3    H135986   1.544   3.186   1.462 -0.0109 -0.1466 -0.2962
 4857TIP3    H235987   1.406   3.146   1.413 -0.3252  1.0090 -0.3659
 4858TIP3   OH235988   1.032   6.656   3.217  0.1123 -0.0691 -0.3089
 4858TIP3    H135989   0.971   6.586   3.242  1.0653 -0.2217  1.8893
 4858TIP3    H235990   1.006   6.730   3.272  0.4995  0.5994 -1.0106
 4859TIP3   OH235991   2.976   1.074  16.889 -0.9666 -1.0690  0.3850
 4859TIP3    H135992   3.036   1.000  16.887  0.6675  0.1209 -3.1454
 4859TIP3    H235993   2.949   1.085  16.797 -2.2998  1.7655  1.0205
 4860TIP3   OH235994   2.974   3.776   6.338  0.9664  0.3443 -0.6336
 4860TIP3    H135995   2.922   3.697   6.325  0.5774  0.4049  0.5032
 4860TIP3    H235996   3.059   3.744   6.370  0.7034  0.3951  0.1296
 4861TIP3   OH235997   5.931   3.569  12.548  0.0956 -0.0852  0.0681
 4861TIP3    H135998   5.919   3.482  12.510  1.8623 -0.3243 -0.0590
 4861TIP3    H235999   5.954   3.552  12.640  1.1764  0.1791 -0.1377
 4862TIP3   OH236000   5.933   3.479   4.723  0.4498 -0.0750  0.6813
 4862TIP3    H136001   5.987   3.463   4.800  1.0262  0.9109  0.5019
 4862TIP3    H236002   5.993   3.520   4.660 -0.7093  2.0350  0.8527
 4863TIP3   OH236003   5.961   1.870   3.675 -0.3106 -0.5161  0.3462
 4863TIP3    H136004   5.871   1.873   3.642  0.2133 -2.0191 -1.3567
 4863TIP3    H236005   6.015   1.897   3.601  0.6560  0.5198  1.3959
 4864TIP3   OH236006   4.515   0.467  17.277  0.8855 -0.1504 -0.0717
 4864TIP3    H136007   4.599   0.444  17.238  1.3027  0.1980  0.5922
 4864TIP3    H236008   4.489   0.390  17.327 -0.3530 -1.1337 -2.1563
 4865TIP3   OH236009   3.095   0.679   6.306  0.2994  0.3876  0.1531
 4865TIP3    H136010   3.063   0.769   6.304  0.9890  0.6223 -1.0292
 4865TIP3    H236011   3.016   0.626   6.299  0.0344  0.9454 -1.5421
 4866TIP3   OH236012   1.700   5.067   2.198  0.4047 -0.0557  0.2447
 4866TIP3    H136013   1.637   4.997   2.214  0.0600  0.0410 -0.6594
 4866TIP3    H236014   1.669   5.140   2.251 -0.6095  0.1999 -0.6780
 4867TIP3   OH236015   6.438   1.167   4.667 -0.3288  0.5189 -0.1039
 4867TIP3    H136016   6.454   1.093   4.725 -1.4116  0.3031 -0.0515
 4867TIP3    H236017   6.393   1.231   4.721 -2.1615 -0.0470 -0.8760
 4868TIP3   OH236018   2.913   3.142  16.356  0.1791 -0.1679  0.3904
 4868TIP3    H136019   2.930   3.187  16.273 -1.8094 -0.4020 -0.1875
 4868TIP3    H236020   2.944   3.203  16.423 -1.0887  1.4355 -0.4280
 4869TIP3   OH236021   4.386   5.570  15.925 -0.4415 -0.7331 -0.3857
 4869TIP3    H136022   4.433   5.609  15.998 -0.6850 -0.9444 -0.1090
 4869TIP3    H236023   4.402   5.476  15.934  0.3334 -0.6828 -1.1811
 4870TIP3   OH236024   2.995   3.796   4.597  0.0025 -0.5661 -0.7916
 4870TIP3    H136025   2.961   3.771   4.683 -0.7892 -0.1362 -0.9699
 4870TIP3    H236026   2.994   3.891   4.597  2.6203 -0.4623 -0.2762
 4871TIP3   OH236027   0.061   3.837   2.629 -0.0173  0.4257 -0.0667
 4871TIP3    H136028   0.018   3.914   2.666  3.5240  2.0263  1.1648
 4871TIP3    H236029   0.049   3.846   2.534  0.7229  2.8634  0.0028
 4872TIP3   OH236030   1.540   4.478  14.686 -0.1776  0.2944  0.3664
 4872TIP3    H136031   1.539   4.545  14.617 -1.1173 -1.1239 -1.0869
 4872TIP3    H236032   1.448   4.462  14.705 -0.0503 -1.5187 -0.3327
 4873TIP3   OH236033   6.164   5.001  16.714  0.5793  0.0414 -1.0447
 4873TIP3    H136034   6.189   4.970  16.626  0.2950  1.8262 -1.8006
 4873TIP3    H236035   6.208   5.086  16.723  0.4184 -0.0095  0.4586
 4874TIP3   OH236036   5.259   2.515   0.664 -0.0084  0.1927 -0.4894
 4874TIP3    H136037   5.239   2.510   0.571  1.2498  2.6368 -0.9734
 4874TIP3    H236038   5.179   2.549   0.704 -0.2675 -0.0390 -0.8087
 4875TIP3   OH236039   6.273   4.551  10.994 -0.6767 -0.2355 -0.2728
 4875TIP3    H136040   6.206   4.544  11.062 -0.1277 -0.0729  0.2918
 4875TIP3    H236041   6.337   4.613  11.029 -0.2633 -0.3292 -0.8374
 4876TIP3   OH236042   2.734   0.301   2.258 -0.1685 -0.5818 -0.2246
 4876TIP3    H136043   2.683   0.362   2.205  0.6581  0.3523  0.0242
 4876TIP3    H236044   2.806   0.274   2.201 -1.9329 -3.4626 -1.3027
 4877TIP3   OH236045   5.445   6.241  13.357 -0.2562 -0.2401  0.4402
 4877TIP3    H136046   5.512   6.176  13.375  0.4947 -0.0388 -1.3802
 4877TIP3    H236047   5.387   6.198  13.294  0.3207  0.8411 -0.8882
 4878TIP3   OH236048   3.209   3.901  13.346 -0.5573  0.0400 -0.2327
 4878TIP3    H136049   3.169   3.817  13.325  2.3962 -1.4501 -0.5022
 4878TIP3    H236050   3.269   3.919  13.273  0.7604  1.0628  1.0331
 4879TIP3   OH236051   4.133   4.083  12.592  0.3257 -0.0607  0.3594
 4879TIP3    H136052   4.154   4.054  12.503 -1.2797 -1.1410  0.2808
 4879TIP3    H236053   4.039   4.103  12.589 -0.1163 -1.5776  2.1536
 4880TIP3   OH236054   1.607   4.927  10.996 -0.3743  0.2949 -0.2970
 4880TIP3    H136055   1.638   4.923  10.906  1.3869  3.2031  0.0615
 4880TIP3    H236056   1.530   4.983  10.993  0.7760  1.9936  0.1511
 4881TIP3   OH236057   4.316   2.955   2.575 -0.2860 -0.3080  0.4582
 4881TIP3    H136058   4.323   2.966   2.480 -0.0220 -0.2773  0.4787
 4881TIP3    H236059   4.226   2.978   2.596 -0.2805 -0.0890  0.2441
 4882TIP3   OH236060   2.044   3.704   4.716 -0.0955  0.2513 -0.0527
 4882TIP3    H136061   1.976   3.676   4.656  0.4389 -0.6771 -0.2425
 4882TIP3    H236062   2.070   3.624   4.763 -0.0990  0.8426  0.9937
 4883TIP3   OH236063   0.070   2.664   3.347  0.7150 -0.1899 -0.5228
 4883TIP3    H136064  -0.006   2.635   3.398  0.5293 -0.1481 -0.7746
 4883TIP3    H236065   0.064   2.760   3.348  1.5724 -0.1300  0.6796
 4884TIP3   OH236066   3.706   5.258  17.238 -0.4444 -0.0755  0.4097
 4884TIP3    H136067   3.694   5.352  17.231 -2.1527 -0.2225  0.9473
 4884TIP3    H236068   3.654   5.232  17.315  1.5713 -1.1971  1.4997
 4885TIP3   OH236069   0.563   5.644   2.639 -0.1234 -0.4547  0.6734
 4885TIP3    H136070   0.620   5.685   2.704 -0.3122  1.6971 -0.4308
 4885TIP3    H236071   0.492   5.706   2.626 -1.8863 -2.3432  0.8046
 4886TIP3   OH236072   5.237   1.546   5.868 -0.1208 -0.5400  0.0842
 4886TIP3    H136073   5.288   1.606   5.813 -0.6106 -0.9325 -0.8232
 4886TIP3    H236074   5.149   1.583   5.870  0.1920  0.2060  1.7602
 4887TIP3   OH236075   0.828   1.070  12.043 -0.2561  0.0113  0.5166
 4887TIP3    H136076   0.851   0.980  12.069  1.3520 -0.0581 -0.9107
 4887TIP3    H236077   0.757   1.059  11.980  0.3374 -0.3507 -0.1146
 4888TIP3   OH236078   1.353   5.920  12.284 -0.5136 -0.0190 -0.1921
 4888TIP3    H136079   1.373   5.845  12.340 -0.3359 -0.5176 -0.9090
 4888TIP3    H236080   1.418   5.986  12.307  0.3336 -0.6694 -0.6649
 4889TIP3   OH236081   5.666   6.270   2.202 -0.4075  0.5808 -0.0218
 4889TIP3    H136082   5.622   6.272   2.286  0.0558  0.3189  0.2344
 4889TIP3    H236083   5.754   6.305   2.220 -0.3025  0.5117 -0.3890
 4890TIP3   OH236084   3.056   5.408   1.068 -0.3621  0.6717 -0.2563
 4890TIP3    H136085   2.995   5.343   1.101 -0.8614  0.7942 -0.9171
 4890TIP3    H236086   3.105   5.363   0.998  0.2215  0.6100  0.1854
 4891TIP3   OH236087   1.972   3.611  13.763 -0.6693  0.0053  0.3625
 4891TIP3    H136088   1.883   3.645  13.762 -1.1815 -1.2393 -1.3096
 4891TIP3    H236089   1.993   3.594  13.671  1.9749  1.8756  0.5033
 4892TIP3   OH236090   2.515   6.561   4.307 -0.3299 -0.3936 -0.0951
 4892TIP3    H136091   2.497   6.635   4.365 -0.3827 -0.2066 -0.3488
 4892TIP3    H236092   2.435   6.551   4.255  0.9415  1.8288 -2.7789
 4893TIP3   OH236093   2.286   1.245  14.786  0.1787  0.3226  0.3710
 4893TIP3    H136094   2.263   1.167  14.737  0.7809  0.3926 -0.0364
 4893TIP3    H236095   2.205   1.294  14.794 -0.1444 -0.2117  0.3915
 4894TIP3   OH236096   3.678   5.607   3.222  0.5335  0.2405 -0.2881
 4894TIP3    H136097   3.652   5.616   3.131 -0.8399 -0.6540 -0.0138
 4894TIP3    H236098   3.611   5.551   3.261  1.4323  0.0868  1.1249
 4895TIP3   OH236099   0.190   3.403   3.763  0.0607 -0.3911 -0.6262
 4895TIP3    H136100   0.169   3.393   3.670 -0.6330  0.9029 -0.6358
 4895TIP3    H236101   0.109   3.435   3.802  1.1003  1.7247 -0.0897
 4896TIP3   OH236102   3.559   6.452   4.550 -0.7018  0.5108  0.0566
 4896TIP3    H136103   3.651   6.464   4.571 -0.3719  0.8647 -1.5136
 4896TIP3    H236104   3.517   6.439   4.635  0.9639 -0.9630  0.7114
 4897TIP3   OH236105   2.892   1.735  11.293  0.3045 -0.0914  0.4704
 4897TIP3    H136106   2.854   1.820  11.315 -0.5196 -0.0727 -0.9079
 4897TIP3    H236107   2.954   1.754  11.222 -0.4627 -0.7339 -0.3844
 4898TIP3   OH236108   4.240   5.048   4.344 -0.0558  0.3724 -0.1959
 4898TIP3    H136109   4.322   5.080   4.382 -0.2247  0.8862 -0.2592
 4898TIP3    H236110   4.248   5.068   4.251 -1.6180  3.4845  0.2290
 4899TIP3   OH236111   2.303   5.957   1.966  0.2520 -0.2359  0.1102
 4899TIP3    H136112   2.269   5.882   2.015  1.0224 -2.0082 -1.8854
 4899TIP3    H236113   2.394   5.935   1.948  0.0500  0.3544 -1.9566
 4900TIP3   OH236114   3.933   2.460   0.178 -0.0776  0.2661  0.2607
 4900TIP3    H136115   3.918   2.522   0.106  0.6993  0.2508  0.0825
 4900TIP3    H236116   3.892   2.379   0.148 -0.0729  0.3627 -0.0120
 4901TIP3   OH236117   2.794   2.107  14.015  0.4749 -0.1207 -0.1358
 4901TIP3    H136118   2.840   2.122  14.098 -0.6578 -0.4258  0.5627
 4901TIP3    H236119   2.776   2.013  14.014  1.6909 -0.3709 -1.3979
 4902TIP3   OH236120   5.791   5.637   3.306  1.1047 -0.4289  0.2436
 4902TIP3    H136121   5.739   5.604   3.379 -1.6412  2.6208 -0.0802
 4902TIP3    H236122   5.791   5.566   3.242 -1.2276 -1.2036  1.0200
 4903TIP3   OH236123   0.233   4.728  13.267  0.6332 -0.5479  0.3112
 4903TIP3    H136124   0.178   4.803  13.288  0.9325 -0.5314  1.0582
 4903TIP3    H236125   0.213   4.663  13.334 -0.4466 -1.5945 -0.9454
 4904TIP3   OH236126   3.129   2.526  14.983  0.7338 -0.0248 -0.3024
 4904TIP3    H136127   3.127   2.518  14.888  0.3401 -0.5305 -0.2589
 4904TIP3    H236128   3.137   2.620  15.000 -2.6657  0.4889 -0.8275
 4905TIP3   OH236129   0.805   3.702   2.078 -0.8337 -0.1976  0.0025
 4905TIP3    H136130   0.809   3.798   2.069  0.3280 -0.3592 -1.4797
 4905TIP3    H236131   0.884   3.680   2.127 -1.1918 -0.4019  0.4968
 4906TIP3   OH236132   6.407   0.571   0.124 -0.3793  0.5304  0.0831
 4906TIP3    H136133   6.420   0.477   0.108 -0.8219  0.5859 -0.6105
 4906TIP3    H236134   6.385   0.576   0.217 -0.1211 -0.0282  0.1825
 4907TIP3   OH236135   6.391   0.314  14.869 -0.0109 -0.4781 -0.0447
 4907TIP3    H136136   6.426   0.360  14.793 -1.4386  1.0703  0.1747
 4907TIP3    H236137   6.327   0.252  14.833  0.5900 -1.0067 -0.2139
 4908TIP3   OH236138   6.249   4.494   2.518  0.2564 -0.1673 -0.1408
 4908TIP3    H136139   6.157   4.506   2.494  0.2461 -1.1357 -0.6486
 4908TIP3    H236140   6.246   4.465   2.609  0.1807  1.6461  0.4579
 4909TIP3   OH236141   5.097   4.736  11.467  0.0818  0.5156  0.2604
 4909TIP3    H136142   5.172   4.776  11.422 -1.4829  2.9212 -0.4165
 4909TIP3    H236143   5.043   4.701  11.396 -0.7985  1.4056  0.4614
 4910TIP3   OH236144   5.699   5.062   5.063  0.0782 -0.0094  0.2940
 4910TIP3    H136145   5.779   5.109   5.088 -0.7128  0.6708  1.6948
 4910TIP3    H236146   5.635   5.132   5.045 -0.7652 -0.5174  1.2042
 4911TIP3   OH236147   2.025   3.405  13.073  0.4731 -0.0561 -0.5637
 4911TIP3    H136148   1.940   3.406  13.117  0.8674 -1.0105  0.2890
 4911TIP3    H236149   2.082   3.356  13.134  1.6725  0.7307 -1.0239
 4912TIP3   OH236150   2.615   0.989   1.623 -0.5692 -0.2607  0.3543
 4912TIP3    H136151   2.638   1.056   1.558 -0.6010 -0.4234  0.1768
 4912TIP3    H236152   2.662   1.016   1.702 -0.6790  0.0391  0.3175
 4913TIP3   OH236153   1.722   2.812  11.801 -0.3955 -0.2799 -0.4017
 4913TIP3    H136154   1.698   2.838  11.712 -0.5522 -0.3158 -0.3710
 4913TIP3    H236155   1.795   2.751  11.789  0.3372  0.5874 -0.4457
 4914TIP3   OH236156   6.473   5.156   4.617 -0.9621 -1.1225  0.1864
 4914TIP3    H136157   6.500   5.236   4.571 -0.2910 -1.1041  0.6149
 4914TIP3    H236158   6.532   5.149   4.691 -1.4190 -1.6885  0.5059
 4915TIP3   OH236159   4.261   1.598  13.414 -0.2086 -0.4289  0.1027
 4915TIP3    H136160   4.182   1.652  13.417 -1.1086 -1.6671 -0.3647
 4915TIP3    H236161   4.327   1.649  13.460 -1.0445  1.0179 -0.2433
 4916TIP3   OH236162   4.164   3.378  13.979  0.3942 -0.3853 -0.3678
 4916TIP3    H136163   4.223   3.303  13.967 -0.3292 -1.2113  1.0034
 4916TIP3    H236164   4.179   3.433  13.902 -0.9245 -3.1897 -2.8288
 4917TIP3   OH236165   0.987   2.823   5.541 -0.0258 -0.0779 -0.3785
 4917TIP3    H136166   0.923   2.846   5.609 -0.1684  0.4729 -0.6887
 4917TIP3    H236167   1.042   2.901   5.534  0.2668 -0.3035 -0.5773
 4918TIP3   OH236168   2.761   1.276   1.680 -0.2762  0.5201  0.4609
 4918TIP3    H136169   2.828   1.305   1.742  0.8735  0.8738 -0.9151
 4918TIP3    H236170   2.715   1.356   1.654  1.2656  0.8716 -1.4307
 4919TIP3   OH236171   4.447   5.105  14.745  0.7069 -0.6239  0.2643
 4919TIP3    H136172   4.540   5.086  14.733  0.8438  0.0971  0.1292
 4919TIP3    H236173   4.402   5.045  14.686  1.2701  1.3669 -2.3720
 4920TIP3   OH236174   4.273   2.722  16.279  0.1327  0.3432 -0.7229
 4920TIP3    H136175   4.220   2.677  16.214  0.6993 -0.3685 -0.7053
 4920TIP3    H236176   4.236   2.696  16.363  0.0053  0.4940 -0.7323
 4921TIP3   OH236177   0.199   5.007   3.565  0.0592  0.2706  0.1069
 4921TIP3    H136178   0.285   5.032   3.533  0.3805 -0.3322  0.4857
 4921TIP3    H236179   0.156   4.966   3.490 -0.0583  0.9344 -0.1991
 4922TIP3   OH236180   4.440   6.643  13.944 -0.2497 -0.0037  0.3498
 4922TIP3    H136181   4.524   6.631  13.899  1.2375  3.0395  2.0082
 4922TIP3    H236182   4.432   6.564  13.999  2.3131  0.2002  1.1976
 4923TIP3   OH236183   5.110   4.260   0.668 -0.2235  0.2964  0.0843
 4923TIP3    H136184   5.139   4.227   0.583 -2.0896 -1.3859  0.0255
 4923TIP3    H236185   5.136   4.192   0.730 -1.7110 -0.0569  0.3608
 4924TIP3   OH236186   6.443   0.711  15.033 -0.2556 -0.5896  0.6130
 4924TIP3    H136187   6.507   0.694  15.101  1.6197 -1.6851 -1.3005
 4924TIP3    H236188   6.458   0.802  15.008 -1.2393 -0.0485  1.8760
 4925TIP3   OH236189   3.477   3.370  12.521  0.1267 -0.1583 -0.3313
 4925TIP3    H136190   3.384   3.351  12.507 -0.5969  2.7998 -0.2682
 4925TIP3    H236191   3.524   3.301  12.474 -2.1138 -0.2717 -2.5699
 4926TIP3   OH236192   5.103   0.050   4.489  0.2111  0.3386  0.5415
 4926TIP3    H136193   5.111  -0.038   4.525  1.2105  0.5576  0.8740
 4926TIP3    H236194   5.182   0.061   4.436  0.7672  1.5141  1.5690
 4927TIP3   OH236195   3.233   2.276  11.635 -0.2535  0.0119  0.2076
 4927TIP3    H136196   3.179   2.355  11.633  2.4599  1.9887 -0.6288
 4927TIP3    H236197   3.291   2.285  11.560  1.9665 -1.4185  1.6517
 4928TIP3   OH236198   0.092   4.901   3.346  0.6350  0.1001  0.1270
 4928TIP3    H136199   0.001   4.915   3.319 -0.8473 -1.8498  3.5075
 4928TIP3    H236200   0.127   4.838   3.282 -0.4968  0.5658 -0.9870
 4929TIP3   OH236201   1.209   3.199   2.531 -0.1427 -0.0451  0.2937
 4929TIP3    H136202   1.141   3.205   2.464  0.3796  0.8316 -0.1688
 4929TIP3    H236203   1.259   3.280   2.522  0.3307 -0.2079  1.3165
 4930TIP3   OH236204   5.959   1.454  13.698 -0.4236  0.3843  0.0043
 4930TIP3    H136205   6.015   1.482  13.626 -2.5805 -1.2881 -2.5065
 4930TIP3    H236206   5.887   1.517  13.699 -0.2378  0.6117  1.0040
 4931TIP3   OH236207   0.563   6.767   0.558 -0.2464 -0.2692 -0.3174
 4931TIP3    H136208   0.630   6.817   0.604  2.1146 -2.4468 -1.1719
 4931TIP3    H236209   0.564   6.801   0.468 -1.7999  1.0520  0.1165
 4932TIP3   OH236210   5.694   0.478   4.933  0.0773 -0.4630 -0.0436
 4932TIP3    H136211   5.632   0.421   4.978 -0.8681 -0.6105 -1.4648
 4932TIP3    H236212   5.659   0.485   4.844  1.6683  0.1210 -0.6481
 4933TIP3   OH236213   0.539   2.634   0.160 -0.4231 -0.8264 -0.0186
 4933TIP3    H136214   0.510   2.700   0.222 -1.7203  2.1141 -3.3683
 4933TIP3    H236215   0.629   2.613   0.186 -0.4081  1.3678  1.9195
 4934TIP3   OH236216   2.389   4.116   6.140  0.1643  0.2316 -0.9347
 4934TIP3    H136217   2.377   4.167   6.220 -1.8859 -0.0844 -0.9852
 4934TIP3    H236218   2.412   4.029   6.171 -1.8897 -0.2351 -0.5643
 4935TIP3   OH236219   1.957   1.240   6.544  0.1988  0.1046  0.6882
 4935TIP3    H136220   1.908   1.280   6.615 -0.0779 -2.8762  2.3481
 4935TIP3    H236221   1.922   1.150   6.538  0.7004 -0.0117 -2.7744
 4936TIP3   OH236222   3.563   6.374  11.441 -0.3214 -0.1659 -0.1114
 4936TIP3    H136223   3.628   6.306  11.423 -0.5525 -0.6141  0.7201
 4936TIP3    H236224   3.613   6.456  11.436  0.6514 -0.5734  1.8915
 4937TIP3   OH236225   6.347   4.589   5.269 -0.3462 -0.0409 -0.1448
 4937TIP3    H136226   6.303   4.633   5.342 -0.8214 -1.0023  0.1684
 4937TIP3    H236227   6.441   4.604   5.286 -0.4495 -0.1950  0.6303
 4938TIP3   OH236228   5.571   6.684   3.377 -0.1476 -0.7116 -0.2123
 4938TIP3    H136229   5.585   6.725   3.463  1.4301  1.7269 -1.5237
 4938TIP3    H236230   5.657   6.685   3.335 -0.7217 -2.5861 -1.5706
 4939TIP3   OH236231   1.847   0.160  15.500 -0.4524 -0.2875  0.3442
 4939TIP3    H136232   1.840   0.101  15.425  3.5250 -0.9749  0.2803
 4939TIP3    H236233   1.778   0.131  15.560 -1.1411 -2.4013 -1.3248
 4940TIP3   OH236234   4.877   0.907   3.925  0.1255 -0.4371  0.0118
 4940TIP3    H136235   4.854   0.815   3.920 -1.2808 -0.0628 -0.9538
 4940TIP3    H236236   4.962   0.908   3.970 -0.5773 -2.0646  1.4899
 4941TIP3   OH236237   0.730   1.074  12.453  0.6629 -0.3916  0.3204
 4941TIP3    H136238   0.794   1.041  12.516  1.3321 -0.6197 -0.4534
 4941TIP3    H236239   0.736   1.013  12.379 -0.0821 -0.1160  0.0232
 4942TIP3   OH236240   4.308   0.762   0.778  0.6268  0.2664 -0.3186
 4942TIP3    H136241   4.400   0.772   0.804  0.9030 -1.5893 -0.4553
 4942TIP3    H236242   4.287   0.845   0.734  1.1258  2.1700  2.7447
 4943TIP3   OH236243   0.258   1.803  15.171 -0.1326 -0.1867  0.4082
 4943TIP3    H136244   0.302   1.727  15.208 -1.6747 -1.1358  0.4015
 4943TIP3    H236245   0.168   1.773  15.157 -0.5972  1.4363 -0.2407
 4944TIP3   OH236246   1.619   5.671   4.784  0.7135  0.8595 -0.8438
 4944TIP3    H136247   1.536   5.719   4.787  0.1751 -0.0945 -0.1001
 4944TIP3    H236248   1.674   5.723   4.726  0.1871  2.4410  0.0187
 4945TIP3   OH236249   1.948   4.226  11.459 -0.2614  0.6364  0.1532
 4945TIP3    H136250   1.964   4.161  11.528 -0.2966  1.2073  0.7045
 4945TIP3    H236251   1.867   4.197  11.417  0.7258 -0.7532 -0.8768
 4946TIP3   OH236252   0.506   1.629   6.245  0.8169 -0.1126  0.7698
 4946TIP3    H136253   0.484   1.617   6.337  2.7291  1.2467  1.4649
 4946TIP3    H236254   0.589   1.678   6.246 -0.2399  1.9577 -1.6816
 4947TIP3   OH236255   5.181   1.849  12.633 -0.3194 -0.2264 -0.3687
 4947TIP3    H136256   5.105   1.801  12.598 -2.5483  1.1699  2.2292
 4947TIP3    H236257   5.148   1.894  12.710  3.3429  0.0731  1.2143
 4948TIP3   OH236258   5.797   1.014  13.423 -0.2627 -0.6586  0.3969
 4948TIP3    H136259   5.818   1.061  13.504 -0.6601  3.0461 -1.4418
 4948TIP3    H236260   5.847   1.059  13.355 -2.2075 -1.6632 -1.8541
 4949TIP3   OH236261   3.486   5.849   0.353  0.3182 -0.7503 -0.6736
 4949TIP3    H136262   3.512   5.863   0.262 -0.9803 -0.6114 -1.0423
 4949TIP3    H236263   3.553   5.790   0.388  0.6788 -1.0358 -1.7948
 4950TIP3   OH236264   5.855   2.320  11.437  0.6231 -0.4012  0.3026
 4950TIP3    H136265   5.852   2.315  11.532  1.9779 -0.2779  0.3771
 4950TIP3    H236266   5.936   2.367  11.418 -0.2034  0.5978 -0.9022
 4951TIP3   OH236267   2.189   0.013   1.566 -0.0149  0.0003 -0.2236
 4951TIP3    H136268   2.242  -0.042   1.509  1.7989  0.3010  1.0905
 4951TIP3    H236269   2.243   0.090   1.582 -1.5638  1.1204 -0.1772
 4952TIP3   OH236270   2.651   2.713   4.932  0.4378 -0.9832  0.2359
 4952TIP3    H136271   2.602   2.724   4.850 -0.8631  0.0127  1.0990
 4952TIP3    H236272   2.713   2.787   4.933  1.0374 -1.4672 -0.2161
 4953TIP3   OH236273   0.956   0.895  15.102 -0.3974  0.1633  0.2481
 4953TIP3    H136274   0.917   0.970  15.147 -0.2191  0.7968 -0.6213
 4953TIP3    H236275   0.972   0.927  15.013 -0.0968 -0.8382 -0.0637
 4954TIP3   OH236276   5.103   1.614  14.581  0.0477 -0.0526  0.2141
 4954TIP3    H136277   5.110   1.519  14.582 -2.8991 -0.3485 -0.4875
 4954TIP3    H236278   5.115   1.638  14.489  1.8556  0.4155  0.5355
 4955TIP3   OH236279   2.908   3.538   5.377  0.0424  0.1552 -0.5691
 4955TIP3    H136280   2.894   3.480   5.451 -1.1928  0.0136 -0.8949
 4955TIP3    H236281   3.002   3.531   5.359  0.0918 -0.9603  0.0306
 4956TIP3   OH236282   5.629   6.550   0.646  0.3618  0.3657  0.3714
 4956TIP3    H136283   5.664   6.479   0.592  1.2662  1.0322  0.0625
 4956TIP3    H236284   5.706   6.598   0.674 -0.1463  0.4090  1.7438
 4957TIP3   OH236285   0.291   2.559  14.910  0.3434 -0.5417 -0.1515
 4957TIP3    H136286   0.303   2.636  14.966  0.3829 -0.6964  0.0551
 4957TIP3    H236287   0.314   2.589  14.822 -0.1695 -0.1732 -0.1584
 4958TIP3   OH236288   5.450   0.817   3.763  0.6922 -0.3964 -0.0237
 4958TIP3    H136289   5.390   0.781   3.697  1.1301 -0.2090 -0.5299
 4958TIP3    H236290   5.393   0.842   3.836  0.4973 -3.6104  1.0658
 4959TIP3   OH236291   6.646   6.721   2.664  0.5920 -0.1017 -0.1327
 4959TIP3    H136292   6.660   6.729   2.570  1.0624 -1.6581 -0.2188
 4959TIP3    H236293   6.587   6.646   2.674 -1.0323  1.2056  0.7314
 4960TIP3   OH236294   3.284   6.089   3.146 -0.6339  0.0184 -0.4168
 4960TIP3    H136295   3.274   6.064   3.055  0.5542  0.3596 -0.6565
 4960TIP3    H236296   3.195   6.094   3.180 -1.0428 -0.9623 -1.3216
 4961TIP3   OH236297   3.257   5.639   0.067  0.0014 -0.6946  0.2424
 4961TIP3    H136298   3.213   5.720   0.040  0.2775 -0.4762  0.4388
 4961TIP3    H236299   3.246   5.636   0.162  0.0811 -0.8346  0.2471
 4962TIP3   OH236300   4.011   0.221   3.209 -0.1564  0.0411 -1.1018
 4962TIP3    H136301   4.024   0.126   3.216  2.9434  0.4972  1.3366
 4962TIP3    H236302   4.067   0.248   3.137  0.6208  0.2158 -0.4492
 4963TIP3   OH236303   1.601   0.705   3.240  0.2731  0.6021  0.2519
 4963TIP3    H136304   1.672   0.716   3.177 -0.0489 -0.3837 -0.3177
 4963TIP3    H236305   1.526   0.678   3.186 -0.2778  0.7411  0.9458
 4964TIP3   OH236306   3.027   0.574  13.750  0.0393 -0.2680 -0.6359
 4964TIP3    H136307   2.963   0.551  13.682 -2.2225  0.4094  1.1041
 4964TIP3    H236308   3.086   0.636  13.707  0.1795 -1.6716 -2.6006
 4965TIP3   OH236309   5.025   6.673  11.784 -0.0351  0.2524 -0.3090
 4965TIP3    H136310   5.070   6.744  11.830  0.6631 -0.8475  0.7760
 4965TIP3    H236311   4.943   6.662  11.834 -0.0219  0.1292 -0.3148
 4966TIP3   OH236312   4.907   0.666  16.188 -0.2639  0.4825  0.4585
 4966TIP3    H136313   4.890   0.748  16.142  0.7796  0.9589  0.8813
 4966TIP3    H236314   4.957   0.613  16.127 -2.6862 -0.7340 -0.6114
 4967TIP3   OH236315   1.501   2.709  14.527  0.3485  0.3659  0.5860
 4967TIP3    H136316   1.570   2.701  14.461  0.6366  2.4250  0.5925
 4967TIP3    H236317   1.469   2.619  14.538  0.5168 -0.1151 -2.0918
 4968TIP3   OH236318   2.233   0.321  14.178 -0.0574 -0.0882  0.2432
 4968TIP3    H136319   2.195   0.246  14.131 -0.7691 -0.0019  0.6604
 4968TIP3    H236320   2.292   0.362  14.115 -1.2938  0.2654 -0.7208
 4969TIP3   OH236321   2.119   1.080   1.151  0.7122  0.3133  0.2884
 4969TIP3    H136322   2.062   1.153   1.175  0.9484  0.3018  0.9152
 4969TIP3    H236323   2.118   1.024   1.229  0.8374 -0.1563 -0.0475
 4970TIP3   OH236324   3.495   3.222  10.894  0.1358 -0.1081 -0.5696
 4970TIP3    H136325   3.413   3.175  10.904  0.2585 -0.2488 -0.1911
 4970TIP3    H236326   3.513   3.220  10.800  0.2961 -1.0916 -0.5270
 4971TIP3   OH236327   2.283   2.214  14.414  0.2125  0.2183  0.4943
 4971TIP3    H136328   2.281   2.253  14.327  0.2474 -0.0394  0.3793
 4971TIP3    H236329   2.354   2.262  14.459  2.2574 -1.6371 -0.5688
 4972TIP3   OH236330   4.485   4.668  11.631  1.1346  0.4897  0.1776
 4972TIP3    H136331   4.546   4.741  11.642  1.8806 -0.1058  0.0956
 4972TIP3    H236332   4.416   4.683  11.696  1.8420  0.7019  0.8895
 4973TIP3   OH236333   2.749   5.308   2.632  0.0095  0.0120  0.1086
 4973TIP3    H136334   2.748   5.265   2.717 -0.3236  1.5513  0.9233
 4973TIP3    H236335   2.839   5.337   2.620 -0.1605  0.6929  0.4274
 4974TIP3   OH236336   4.475   4.287   4.428  0.1403 -0.3556 -0.5195
 4974TIP3    H136337   4.525   4.323   4.502 -2.1298  3.9373 -0.7740
 4974TIP3    H236338   4.533   4.299   4.353  1.0481 -1.3887 -0.0318
 4975TIP3   OH236339   4.894   2.085  11.482  0.1465  0.0061  0.4409
 4975TIP3    H136340   4.908   2.169  11.439  0.7639  2.1372  4.3053
 4975TIP3    H236341   4.948   2.024  11.433  0.8906  2.1531 -1.6320
 4976TIP3   OH236342   3.626   4.266  14.889 -0.1801  0.1607 -0.3565
 4976TIP3    H136343   3.636   4.299  14.800 -0.2296  0.1284 -0.3739
 4976TIP3    H236344   3.659   4.176  14.885 -1.5156 -0.3456 -0.6796
 4977TIP3   OH236345   1.187   4.741  14.855 -0.6478  0.0381 -0.0609
 4977TIP3    H136346   1.167   4.805  14.923  0.0345 -1.0179  1.1879
 4977TIP3    H236347   1.104   4.728  14.809 -1.5711 -0.4448  1.6526
 4978TIP3   OH236348   4.570   5.385   4.859 -0.2678 -0.0375  0.2284
 4978TIP3    H136349   4.593   5.330   4.784  0.8509 -0.5239  0.9012
 4978TIP3    H236350   4.572   5.474   4.825  0.8792 -0.1989 -0.1858
 4979TIP3   OH236351   6.297   2.222  15.950 -0.2925 -0.0577 -0.3228
 4979TIP3    H136352   6.294   2.317  15.944 -0.0462 -0.0183  0.1521
 4979TIP3    H236353   6.367   2.203  16.012 -2.2653 -0.4475  1.9429
 4980TIP3   OH236354   2.521   3.173   3.891 -0.1275 -0.0725  0.7266
 4980TIP3    H136355   2.577   3.100   3.868 -0.0719  1.0077 -3.3316
 4980TIP3    H236356   2.435   3.134   3.908  0.0136 -1.2026 -0.9258
 4981TIP3   OH236357   3.420   4.137   1.497  0.4405  0.0821  0.2890
 4981TIP3    H136358   3.404   4.109   1.407  0.2367  1.5690 -0.1695
 4981TIP3    H236359   3.512   4.114   1.514  0.6477  0.3074 -0.5085
 4982TIP3   OH236360   6.218   0.622   5.934 -0.0726 -0.2946  0.2215
 4982TIP3    H136361   6.144   0.595   5.988  0.7771  0.1114  1.6454
 4982TIP3    H236362   6.192   0.707   5.898  0.1025  0.3754  1.6102
 4983TIP3   OH236363   5.129   4.275  13.068 -0.3130 -0.5180  0.2797
 4983TIP3    H136364   5.150   4.189  13.103 -1.7215 -0.1662  2.1458
 4983TIP3    H236365   5.063   4.257  13.000  0.1504 -0.9725 -0.0591
 4984TIP3   OH236366   1.938   3.643  12.403 -0.2627  0.4969  0.9570
 4984TIP3    H136367   1.870   3.577  12.391 -0.7118  1.0837  0.1759
 4984TIP3    H236368   1.889   3.725  12.415  0.2900  0.7422  1.5801
 4985TIP3   OH236369   3.754   1.919  16.625 -0.6717 -0.0785 -0.7091
 4985TIP3    H136370   3.660   1.905  16.623 -0.6197 -0.3532 -1.1529
 4985TIP3    H236371   3.779   1.900  16.716 -0.9516 -0.5710 -0.7322
 4986TIP3   OH236372   1.531   1.623  15.128 -0.3390  0.0775 -0.2376
 4986TIP3    H136373   1.454   1.566  15.130  0.0209 -0.4047  0.6926
 4986TIP3    H236374   1.532   1.660  15.040 -1.7356  0.2349 -0.2080
 4987TIP3   OH236375   3.418   0.621   1.228 -0.3320 -0.3640  0.0431
 4987TIP3    H136376   3.426   0.551   1.163 -0.2191  0.8882 -1.3621
 4987TIP3    H236377   3.325   0.619   1.254 -0.0563 -1.8619  1.0544
 4988TIP3   OH236378   0.722   4.740  15.214  0.0167  0.4136 -0.1022
 4988TIP3    H136379   0.751   4.650  15.229 -0.6602  0.1445 -0.3713
 4988TIP3    H236380   0.644   4.750  15.269 -1.2122  0.1153 -1.7038
 4989TIP3   OH236381   5.593   6.038  15.112  0.3967  0.2374 -0.5287
 4989TIP3    H136382   5.607   5.947  15.138 -0.4642  0.6404  1.5145
 4989TIP3    H236383   5.662   6.056  15.048  3.1730 -0.6481  2.0316
 4990TIP3   OH236384   4.701   1.955   2.387  0.4030  0.0465  0.1309
 4990TIP3    H136385   4.638   1.967   2.458  0.6466 -0.6471  0.4712
 4990TIP3    H236386   4.747   1.874   2.409  1.7654  0.7877  0.1530
 4991TIP3   OH236387   4.412   3.170  16.796  0.5402 -0.0551  1.0112
 4991TIP3    H136388   4.358   3.238  16.757  1.3159  0.5916  1.0573
 4991TIP3    H236389   4.482   3.155  16.732 -0.8045 -2.4024 -0.0621
 4992TIP3   OH236390   5.481   0.223   4.044 -0.0090 -0.3259 -0.0726
 4992TIP3    H136391   5.529   0.299   4.076  1.6044 -1.8466  1.2766
 4992TIP3    H236392   5.547   0.168   4.003 -1.2238 -0.8354 -1.4615
 4993TIP3   OH236393   1.715   5.053  14.741  0.3147 -0.6522 -0.1096
 4993TIP3    H136394   1.771   4.982  14.772  0.4012  0.0906  1.5314
 4993TIP3    H236395   1.630   5.038  14.782  0.6714  0.8376  1.2736
 4994TIP3   OH236396   3.184   5.596   0.922 -0.1077  0.1916  0.7689
 4994TIP3    H136397   3.120   5.587   0.992 -1.0508  0.5486 -0.0167
 4994TIP3    H236398   3.266   5.565   0.960 -0.3051  1.5895  2.4202
 4995TIP3   OH236399   1.240   6.537   4.034  0.1306  0.7748  0.0180
 4995TIP3    H136400   1.215   6.480   4.107  1.3639  0.0081 -0.1370
 4995TIP3    H236401   1.160   6.544   3.981 -0.0583 -0.7899  0.0585
 4996TIP3   OH236402   0.597   2.206  13.075 -0.7746 -0.0219  0.0906
 4996TIP3    H136403   0.617   2.200  13.168 -1.4610  0.5321  0.2805
 4996TIP3    H236404   0.681   2.189  13.032 -0.3560  0.1399  0.8146
 4997TIP3   OH236405   0.290   1.751  15.991  0.1121  0.5808 -0.3498
 4997TIP3    H136406   0.334   1.752  15.907 -0.1835  2.2296 -0.5227
 4997TIP3    H236407   0.198   1.767  15.971 -0.2615 -0.7104  0.1790
 4998TIP3   OH236408   0.469   3.608  13.255  0.3749 -0.0063 -0.1624
 4998TIP3    H136409   0.506   3.527  13.291  1.7681  0.9185  0.6067
 4998TIP3    H236410   0.513   3.677  13.303 -0.1033  1.2379 -1.4428
 4999TIP3   OH236411   2.347   4.984  15.391 -1.2086 -0.0453 -0.2649
 4999TIP3    H136412   2.314   4.948  15.473  0.1285 -0.3281  0.1642
 4999TIP3    H236413   2.398   5.061  15.417  0.0294 -0.6851 -0.7191
 5000TIP3   OH236414   1.102   3.466   3.149  0.6556 -0.2950 -0.6658
 5000TIP3    H136415   1.084   3.545   3.097  0.6872 -0.6331 -1.1844
 5000TIP3    H236416   1.073   3.490   3.238  0.1743  0.1190 -0.9288
 5001TIP3   OH236417   4.997   1.865   2.256  0.1107  0.0911  0.0696
 5001TIP3    H136418   4.908   1.872   2.221  1.1703 -0.0644 -3.0340
 5001TIP3    H236419   5.028   1.955   2.264  0.7224  0.1636 -2.2047
 5002TIP3   OH236420   1.429   1.245   0.850 -0.4143 -0.2210  0.2431
 5002TIP3    H136421   1.389   1.248   0.937  0.5833  0.8553  0.6899
 5002TIP3    H236422   1.479   1.164   0.849 -0.7052 -0.4091  0.5386
 5003TIP3   OH236423   0.629   2.912  13.548 -0.2411  0.0185 -0.0920
 5003TIP3    H136424   0.620   3.005  13.569  1.8123  0.5955 -1.5116
 5003TIP3    H236425   0.718   2.890  13.573 -1.2943 -2.2007  2.2078
 5004TIP3   OH236426   4.151   6.337   5.684  0.1883 -0.6484  0.4072
 5004TIP3    H136427   4.084   6.403   5.703 -0.3033 -1.6529  2.4923
 5004TIP3    H236428   4.109   6.276   5.624 -0.1095 -0.2357  0.1939
 5005TIP3   OH236429   1.809   3.527  16.201 -0.4208  0.3791 -0.7774
 5005TIP3    H136430   1.729   3.548  16.249 -0.1666  1.9958 -1.0114
 5005TIP3    H236431   1.827   3.436  16.223 -0.9480  0.7199  1.3124
 5006TIP3   OH236432   6.519   2.798  12.026 -0.4018 -0.0077  0.3797
 5006TIP3    H136433   6.447   2.735  12.031 -0.5958  0.2294  0.6791
 5006TIP3    H236434   6.588   2.753  11.978 -0.6980 -0.2925  0.2171
 5007TIP3   OH236435   3.188   1.430  14.104 -0.3338  0.4543 -0.0293
 5007TIP3    H136436   3.266   1.385  14.071 -0.0904 -1.4891  2.8062
 5007TIP3    H236437   3.120   1.362  14.107 -1.1651  1.2864  0.5647
 5008TIP3   OH236438   2.818   3.269  15.544 -0.1336 -0.5786 -0.1431
 5008TIP3    H136439   2.781   3.180  15.540  0.0418 -0.6437 -0.3090
 5008TIP3    H236440   2.809   3.302  15.454  0.7835 -0.8237 -0.3295
 5009TIP3   OH236441   3.940   0.755   3.091  0.2469 -0.5789 -0.0971
 5009TIP3    H136442   3.919   0.671   3.130  1.6473 -1.3798 -0.9623
 5009TIP3    H236443   3.964   0.735   3.000  1.0175  0.6875 -0.2074
 5010TIP3   OH236444   1.973   1.631  15.380  0.3948  0.2377  0.0541
 5010TIP3    H136445   2.039   1.563  15.389  0.4647  0.4562  1.2518
 5010TIP3    H236446   1.890   1.589  15.403  0.3795  0.4505  0.3897
 5011TIP3   OH236447   0.186   6.164  15.888  0.3630  0.3274  0.3251
 5011TIP3    H136448   0.114   6.211  15.931 -0.0083 -0.5664  0.7021
 5011TIP3    H236449   0.177   6.187  15.795 -1.3675 -0.9322  0.1273
 5012TIP3   OH236450   3.891   2.859   5.078 -0.1044 -0.6162  0.1917
 5012TIP3    H136451   3.922   2.947   5.101 -2.2645 -0.2451  2.1982
 5012TIP3    H236452   3.953   2.800   5.120  1.3005 -0.0769 -1.0688
 5013TIP3   OH236453   2.620   0.398   6.173 -0.7540  0.3093  0.5639
 5013TIP3    H136454   2.584   0.391   6.084  0.3763  0.1480  0.1002
 5013TIP3    H236455   2.579   0.327   6.221  0.3830 -1.1018 -0.4770
 5014TIP3   OH236456   4.865   3.579   1.028 -0.3118  0.2313 -0.2739
 5014TIP3    H136457   4.805   3.508   1.003 -1.3261  1.0582 -0.2644
 5014TIP3    H236458   4.919   3.593   0.950 -0.9570  0.2839 -0.7236
 5015TIP3   OH236459   2.415   1.523   1.314  0.1519  0.5541 -0.0326
 5015TIP3    H136460   2.458   1.571   1.385 -1.4448  1.0642  0.6429
 5015TIP3    H236461   2.452   1.435   1.319  0.1555  0.6061  1.3838
 5016TIP3   OH236462   6.323   0.237  13.817 -0.5033  0.5493 -0.1447
 5016TIP3    H136463   6.373   0.289  13.880 -2.0114  2.3651 -0.3636
 5016TIP3    H236464   6.326   0.148  13.852  0.5015  1.1195  1.3129
 5017TIP3   OH236465   2.243   5.025   0.081 -0.1726 -0.3829  0.2753
 5017TIP3    H136466   2.244   5.113   0.118 -1.2184 -0.7281  1.1677
 5017TIP3    H236467   2.250   5.039  -0.014  1.5513  0.5599  0.4866
 5018TIP3   OH236468   3.278   0.480   6.367 -0.2782  0.5336 -0.2292
 5018TIP3    H136469   3.210   0.546   6.358 -0.9089  0.0663  0.8342
 5018TIP3    H236470   3.236   0.398   6.342 -0.1819  0.2153  0.5997
 5019TIP3   OH236471   1.524   5.146  16.849  0.2041 -0.3554 -0.2985
 5019TIP3    H136472   1.514   5.238  16.824  2.1368 -0.2901 -1.0352
 5019TIP3    H236473   1.522   5.146  16.945 -0.7996  0.2999 -0.3098
 5020TIP3   OH236474   3.346   6.409  11.273  0.3537  0.2026  0.0213
 5020TIP3    H136475   3.380   6.498  11.280  1.9897 -0.3742 -0.1236
 5020TIP3    H236476   3.412   6.355  11.317  0.2812 -1.1278 -1.4168
 5021TIP3   OH236477   0.733   5.244  11.539  0.0846  0.2626 -0.0543
 5021TIP3    H136478   0.791   5.176  11.506  0.5022  0.2088  0.7581
 5021TIP3    H236479   0.789   5.322  11.546 -0.0694  0.3539  0.2076
 5022TIP3   OH236480   5.145   5.076   0.482  0.0373 -0.3549  0.8093
 5022TIP3    H136481   5.203   5.127   0.539  1.9199 -1.0784 -0.3651
 5022TIP3    H236482   5.073   5.135   0.463  2.3925  2.2196 -0.9959
 5023TIP3   OH236483   6.735   0.646   3.598 -0.0882 -0.2300 -0.5917
 5023TIP3    H136484   6.749   0.678   3.687 -0.2331  1.8933 -1.2678
 5023TIP3    H236485   6.772   0.714   3.542 -2.3230 -0.2318 -2.2037
 5024TIP3   OH236486   3.612   3.512  14.941  0.2515 -0.3433  1.0911
 5024TIP3    H136487   3.663   3.443  14.899 -1.1240 -2.0549  2.0727
 5024TIP3    H236488   3.598   3.480  15.030 -1.3163  0.7271  1.2682
 5025TIP3   OH236489   5.902   0.034  14.329 -0.2254  0.3553  0.1229
 5025TIP3    H136490   5.842   0.091  14.281 -0.9913 -0.1890  0.4221
 5025TIP3    H236491   5.976   0.022  14.269 -0.3518  1.1204 -0.2049
 5026TIP3   OH236492   1.158   1.799   1.422  0.1920  1.1912  0.2203
 5026TIP3    H136493   1.218   1.861   1.381  1.7050  0.3176  1.0272
 5026TIP3    H236494   1.196   1.782   1.508 -2.0010  1.6873  1.3700
 5027TIP3   OH236495   2.778   4.478  15.566 -0.2250  1.0191 -0.1558
 5027TIP3    H136496   2.748   4.562  15.532 -0.5625  0.3841 -1.5091
 5027TIP3    H236497   2.784   4.491  15.660 -1.9907  2.0411 -0.1362
 5028TIP3   OH236498   1.436   6.629   4.791 -0.4896  0.0588  0.4628
 5028TIP3    H136499   1.509   6.666   4.743 -0.8923  1.4858  0.8993
 5028TIP3    H236500   1.473   6.600   4.874 -0.0912 -0.9538 -0.0540
 5029TIP3   OH236501   6.435   4.804  11.777  0.4826  0.4415 -0.6000
 5029TIP3    H136502   6.489   4.816  11.700  1.3771 -0.2365 -0.0971
 5029TIP3    H236503   6.347   4.786  11.743  0.8511  0.2266 -1.4546
 5030TIP3   OH236504   0.183   5.242   4.648  0.5139  0.2341  0.0343
 5030TIP3    H136505   0.117   5.173   4.652  0.5790  0.1862  0.2800
 5030TIP3    H236506   0.133   5.323   4.661  0.3623  0.2794 -0.7704
 5031TIP3   OH236507   6.761   2.700   5.902  0.0234 -0.6980 -0.3725
 5031TIP3    H136508   6.798   2.741   5.980 -1.1965  1.6514 -0.9468
 5031TIP3    H236509   6.674   2.671   5.930 -0.9610  1.3682 -1.1368
 5032TIP3   OH236510   0.018   3.968  16.589 -0.6667 -0.3506 -0.5892
 5032TIP3    H136511   0.063   4.016  16.519  0.6487 -3.2474 -1.9026
 5032TIP3    H236512   0.074   3.981  16.666 -1.4736  1.8410 -0.2864
 5033TIP3   OH236513   0.814   4.885   0.204 -0.3378  0.1196 -0.0769
 5033TIP3    H136514   0.840   4.793   0.204 -2.7058 -0.6539  1.6549
 5033TIP3    H236515   0.863   4.924   0.276 -1.1116 -0.4088  0.7542
 5034TIP3   OH236516   4.782   3.470  10.558 -0.3275  0.0883 -0.0067
 5034TIP3    H136517   4.719   3.514  10.614 -0.8609 -1.2663  0.4855
 5034TIP3    H236518   4.825   3.407  10.615 -1.8406 -2.2953 -1.3703
 5035TIP3   OH236519   1.519   6.027   4.244 -0.4285  0.4578  0.0689
 5035TIP3    H136520   1.608   6.002   4.221 -0.2562 -1.5120  2.5101
 5035TIP3    H236521   1.464   5.966   4.195 -0.3015 -0.1255  0.6449
 5036TIP3   OH236522   2.905   5.975  11.942 -0.0297 -0.4353  0.2492
 5036TIP3    H136523   2.990   5.937  11.966  0.0507  0.5111  1.6284
 5036TIP3    H236524   2.926   6.040  11.875  0.3029 -0.4261  0.3582
 5037TIP3   OH236525   5.262   1.354   4.777  0.2800  0.4809 -0.3739
 5037TIP3    H136526   5.195   1.409   4.816 -2.6764 -1.7148 -1.9934
 5037TIP3    H236527   5.306   1.313   4.852  0.3346  2.4401  0.7374
 5038TIP3   OH236528   5.576   6.634   5.029 -0.1794  0.1644  0.0353
 5038TIP3    H136529   5.619   6.644   4.944  1.2838  0.7734  0.8112
 5038TIP3    H236530   5.556   6.723   5.057 -1.1029 -0.0578  0.1297
 5039TIP3   OH236531   1.577   6.393   3.925 -0.4887 -0.5203 -0.6566
 5039TIP3    H136532   1.573   6.306   3.885 -1.2966 -1.4190  1.2770
 5039TIP3    H236533   1.508   6.393   3.991 -0.8278  1.7841 -0.9183
 5040TIP3   OH236534   5.445   5.084  11.317  0.0596 -0.1711 -0.6073
 5040TIP3    H136535   5.377   5.085  11.384  0.6773 -0.8540  0.0541
 5040TIP3    H236536   5.398   5.089  11.234 -0.6604  2.6058 -0.1343
 5041TIP3   OH236537   5.537   0.542   0.985  0.2970 -0.2700  0.4621
 5041TIP3    H136538   5.499   0.627   0.960 -0.7094 -0.5727  0.9089
 5041TIP3    H236539   5.590   0.516   0.910 -0.0189  0.3897  0.0028
 5042TIP3   OH236540   6.577   4.439  12.988 -0.1786  0.0357  0.0039
 5042TIP3    H136541   6.572   4.347  13.012 -1.3210  0.1069  0.0853
 5042TIP3    H236542   6.666   4.450  12.954  0.1654 -0.9537  0.5382
 5043TIP3   OH236543   2.546   5.098  12.133 -0.3269 -0.1820 -0.1078
 5043TIP3    H136544   2.598   5.151  12.194  0.2747 -1.2010  0.2846
 5043TIP3    H236545   2.579   5.009  12.144  0.4355 -0.2763 -2.5881
 5044TIP3   OH236546   6.542   0.708   5.260  0.0225 -0.1215 -0.1202
 5044TIP3    H136547   6.625   0.671   5.289  0.1714 -0.1285 -0.5385
 5044TIP3    H236548   6.564   0.756   5.180 -0.3322  0.0827 -0.0990
 5045TIP3   OH236549   2.850   2.999   1.120  0.3050 -0.1803  0.2384
 5045TIP3    H136550   2.913   3.047   1.173 -1.0282  0.8251  0.9670
 5045TIP3    H236551   2.852   3.041   1.034 -0.7196  1.1290  0.8161
 5046TIP3   OH236552   4.058   0.204  11.129 -0.4582 -0.1347 -0.2949
 5046TIP3    H136553   4.024   0.115  11.136 -2.2249  0.5694  0.7505
 5046TIP3    H236554   4.009   0.243  11.057  0.3871 -0.0269 -0.8235
 5047TIP3   OH236555   4.557   3.057  14.390  0.1058 -0.4807 -0.2722
 5047TIP3    H136556   4.519   3.098  14.313  1.5143  0.6339 -0.4321
 5047TIP3    H236557   4.487   3.056  14.455 -0.4759  0.5759 -0.8660
 5048TIP3   OH236558   0.601   3.176  10.676  0.1577 -0.2129 -1.0451
 5048TIP3    H136559   0.654   3.098  10.663 -2.3873 -2.2476 -0.1124
 5048TIP3    H236560   0.612   3.198  10.769  0.7213  0.4562 -1.2613
 5049TIP3   OH236561   4.094   6.317  13.420  0.0235  0.3445  0.2431
 5049TIP3    H136562   4.072   6.409  13.405  1.7936  0.8314  0.3985
 5049TIP3    H236563   4.010   6.271  13.415 -0.9682  2.0209  0.6654
 5050TIP3   OH236564   3.481   4.991   6.089 -0.0531 -0.5354  0.8169
 5050TIP3    H136565   3.536   5.067   6.070  0.3726 -0.8549  0.7388
 5050TIP3    H236566   3.542   4.917   6.088 -0.3468 -0.7940  1.5677
 5051TIP3   OH236567   3.135   4.441   5.014 -0.5064  0.2314 -0.8230
 5051TIP3    H136568   3.146   4.462   4.921 -0.9320  1.4398 -0.6302
 5051TIP3    H236569   3.081   4.362   5.015  0.1490 -0.2359 -1.6071
 5052TIP3   OH236570   0.508   3.588  15.071 -0.3594 -0.5629  0.0861
 5052TIP3    H136571   0.430   3.634  15.102  0.0283  0.6347 -0.6554
 5052TIP3    H236572   0.475   3.504  15.040 -0.8746 -1.5086  2.8774
 5053TIP3   OH236573   3.674   1.875   2.516  0.4208 -0.3927  0.5888
 5053TIP3    H136574   3.711   1.825   2.444 -0.1485 -2.2550  1.5310
 5053TIP3    H236575   3.664   1.812   2.587 -1.1454  0.8685  1.5601
 5054TIP3   OH236576   6.093   5.810   5.754  0.3948  0.4040  0.3327
 5054TIP3    H136577   6.113   5.898   5.722  1.6328  0.1184  0.2870
 5054TIP3    H236578   6.158   5.754   5.712  0.7441 -0.2802  1.7342
 5055TIP3   OH236579   3.702   2.351  13.250  0.0308 -0.5174  0.1310
 5055TIP3    H136580   3.656   2.416  13.303 -0.4166  0.0671 -0.9505
 5055TIP3    H236581   3.781   2.330  13.302 -0.2078  0.3044  0.8504
 5056TIP3   OH236582   5.091   0.961   3.346  0.2375 -0.3890  0.4689
 5056TIP3    H136583   5.078   0.958   3.441 -1.6729  1.3891  0.3298
 5056TIP3    H236584   5.165   1.021   3.335  0.9496 -1.1680  0.8187
 5057TIP3   OH236585   6.477   6.237  14.063  0.0457 -0.4841  0.1718
 5057TIP3    H136586   6.527   6.222  13.982 -0.0736 -0.1822  0.0413
 5057TIP3    H236587   6.502   6.164  14.120  0.4830 -0.4464  0.0352
 5058TIP3   OH236588   1.919   3.995   4.361  0.1505 -0.1856  0.5744
 5058TIP3    H136589   1.944   4.007   4.269  0.3588  1.6626  0.8346
 5058TIP3    H236590   1.924   3.900   4.375  1.4986 -0.3817 -0.9309
 5059TIP3   OH236591   4.509   4.227   1.489 -0.5599  0.3231 -0.1858
 5059TIP3    H136592   4.482   4.149   1.538 -2.1494  2.0079  1.8182
 5059TIP3    H236593   4.541   4.288   1.556  1.8510  1.0245 -1.8061
 5060TIP3   OH236594   3.020   4.478   1.217 -0.2013  0.1996 -0.3219
 5060TIP3    H136595   3.033   4.571   1.235  0.2743 -0.1365  1.2233
 5060TIP3    H236596   2.933   4.459   1.251  0.0718 -0.1066  0.2217
 5061TIP3   OH236597   0.869   3.809  13.143 -0.3081 -0.1155  0.3220
 5061TIP3    H136598   0.876   3.824  13.238  1.4764  1.4201 -0.0014
 5061TIP3    H236599   0.959   3.797  13.114 -0.8170 -0.2909 -1.2299
 5062TIP3   OH236600   3.140   6.665   1.404  0.8702  0.0019 -0.2304
 5062TIP3    H136601   3.182   6.601   1.462  1.1077 -1.2137 -1.7034
 5062TIP3    H236602   3.075   6.615   1.356  0.7972  0.9550 -1.1497
 5063TIP3   OH236603   3.083   2.031  13.483  0.4862 -0.5457 -0.0403
 5063TIP3    H136604   2.995   2.035  13.445  0.1917 -0.6661  0.6185
 5063TIP3    H236605   3.084   2.100  13.549  0.9166 -0.4875 -0.1059
 5064TIP3   OH236606   3.265   1.756   4.889 -0.1897 -0.6972  0.3703
 5064TIP3    H136607   3.304   1.833   4.847  1.3434 -2.0854 -0.8868
 5064TIP3    H236608   3.318   1.743   4.969  1.2872 -1.8934 -0.7378
 5065TIP3   OH236609   5.417   6.708  14.834 -0.1919  0.2785 -0.5390
 5065TIP3    H136610   5.427   6.741  14.745  0.9286 -2.4396 -1.5240
 5065TIP3    H236611   5.485   6.753  14.884  0.5460  0.3181 -1.5400
 5066TIP3   OH236612   2.638   5.622   4.097  0.1091 -0.1070 -1.0199
 5066TIP3    H136613   2.683   5.634   4.181 -2.4556 -0.5100  0.5246
 5066TIP3    H236614   2.675   5.542   4.061  0.9333 -0.1847 -0.0396
 5067TIP3   OH236615   1.760   0.335  17.127 -0.1735  0.2913  0.1875
 5067TIP3    H136616   1.798   0.412  17.169  0.4991  0.1154 -0.0878
 5067TIP3    H236617   1.789   0.262  17.182  1.7273 -0.0729 -1.2049
 5068TIP3   OH236618   4.231   4.588  12.321 -0.4196  0.4071  0.1553
 5068TIP3    H136619   4.141   4.602  12.289  0.4383 -0.0745 -2.7261
 5068TIP3    H236620   4.233   4.496  12.347 -0.1859 -0.3104 -2.1564
 5069TIP3   OH236621   5.616   0.712   5.164 -0.3782  0.2566  0.9176
 5069TIP3    H136622   5.584   0.624   5.145  1.9037 -0.5393  0.4011
 5069TIP3    H236623   5.567   0.768   5.104  0.1010 -1.0527 -0.7914
 5070TIP3   OH236624   0.112   6.045   2.364 -0.0869 -0.2819 -0.0980
 5070TIP3    H136625   0.194   6.090   2.343 -0.7541  0.2992 -1.5617
 5070TIP3    H236626   0.129   5.953   2.346  0.3316 -0.2026 -0.1020
 5071TIP3   OH236627   2.512   0.738   4.252 -0.1040 -0.3175 -0.1346
 5071TIP3    H136628   2.555   0.683   4.317 -0.5749 -1.0408 -0.4300
 5071TIP3    H236629   2.423   0.704   4.245  0.1506 -0.7670 -1.7186
 5072TIP3   OH236630   1.482   1.809  12.920 -0.7022  0.0869 -0.0606
 5072TIP3    H136631   1.429   1.815  12.840 -0.4404 -0.4494 -0.2783
 5072TIP3    H236632   1.570   1.789  12.889 -0.5893 -0.0847  0.3642
 5073TIP3   OH236633   3.874   1.417   3.127 -0.3718  0.1456  0.3005
 5073TIP3    H136634   3.801   1.356   3.133  0.4146 -1.2483 -2.5489
 5073TIP3    H236635   3.937   1.374   3.070  1.5997  2.3614  0.6339
 5074TIP3   OH236636   5.044   5.265   0.203 -0.3184  0.1571 -0.5184
 5074TIP3    H136637   5.036   5.170   0.195 -0.4813  0.1978 -0.8741
 5074TIP3    H236638   5.097   5.291   0.127 -1.4161  0.4973 -1.1971
 5075TIP3   OH236639   4.671   3.606  12.018  0.1656  0.0013  0.3455
 5075TIP3    H136640   4.694   3.618  11.926 -0.5196  0.7422  0.2547
 5075TIP3    H236641   4.730   3.666  12.065 -0.1318  0.3403  0.2958
 5076TIP3   OH236642   6.435   2.254  11.389  0.3106  0.0669  0.3576
 5076TIP3    H136643   6.352   2.209  11.374  0.7163 -0.3250 -0.8000
 5076TIP3    H236644   6.449   2.306  11.310  1.5856 -0.5555  0.1484
 5077TIP3   OH236645   6.009   5.267   3.109  0.3969 -0.4089  0.3525
 5077TIP3    H136646   5.972   5.272   3.197 -0.3049  0.1978  0.0297
 5077TIP3    H236647   5.936   5.237   3.054 -0.0771  2.1627 -0.5380
 5078TIP3   OH236648   0.505   5.908   1.738 -0.5207 -0.4238  0.1326
 5078TIP3    H136649   0.569   5.925   1.669  0.4275  0.0624  1.1072
 5078TIP3    H236650   0.512   5.814   1.755 -0.9335 -0.5953 -0.5739
 5079TIP3   OH236651   6.588   0.531  11.123 -0.0461  0.1235 -0.0783
 5079TIP3    H136652   6.501   0.569  11.112  0.6124  1.6001 -0.3143
 5079TIP3    H236653   6.571   0.446  11.164 -1.5922  0.3764 -0.1240
 5080TIP3   OH236654   2.583   1.924  13.147  0.1831 -0.1187 -0.1223
 5080TIP3    H136655   2.601   1.961  13.233  2.3497 -1.9769  0.3089
 5080TIP3    H236656   2.668   1.898  13.113 -0.7759 -0.7967 -2.2107
 5081TIP3   OH236657   2.180   0.991  16.142 -0.5935 -0.5923 -0.3482
 5081TIP3    H136658   2.185   1.028  16.231 -2.7383 -1.6276  0.2911
 5081TIP3    H236659   2.207   1.063  16.085  1.2749 -0.0330  1.1281
 5082TIP3   OH236660   5.734   1.596   0.276 -0.1363 -0.6864 -0.0537
 5082TIP3    H136661   5.784   1.518   0.300 -0.6924 -1.1175 -0.2799
 5082TIP3    H236662   5.726   1.645   0.358  1.4636 -0.1255 -0.1840
 5083TIP3   OH236663   3.584   2.333   3.181 -1.0309 -0.3427 -0.0879
 5083TIP3    H136664   3.537   2.264   3.135 -0.5184 -0.7683  0.0096
 5083TIP3    H236665   3.664   2.290   3.212  0.3776  0.8125 -1.9182
 5084TIP3   OH236666   5.411   1.801   2.026  0.1373  0.1304  0.2145
 5084TIP3    H136667   5.443   1.777   1.938 -1.2948 -3.2378  0.4457
 5084TIP3    H236668   5.316   1.799   2.018 -0.0162  0.7963  1.6292
 5085TIP3   OH236669   5.798   4.033  11.240  0.3370  0.3216  0.1486
 5085TIP3    H136670   5.726   3.973  11.259  0.4757 -0.3128 -1.1767
 5085TIP3    H236671   5.762   4.096  11.178 -0.0677  2.2332  2.1964
 5086TIP3   OH236672   0.062   0.591   1.026  0.1790 -0.7924 -0.2291
 5086TIP3    H136673  -0.013   0.531   1.025  0.5550 -1.2736 -0.3929
 5086TIP3    H236674   0.024   0.677   1.008 -0.2601 -1.1275 -0.9687
 5087TIP3   OH236675   6.771   6.538   3.762 -0.2397 -0.4919  0.0357
 5087TIP3    H136676   6.707   6.474   3.732 -0.3443 -0.3650 -0.0162
 5087TIP3    H236677   6.835   6.487   3.811 -1.9152 -0.2817  2.6771
 5088TIP3   OH236678   5.552   3.801  16.223 -0.7129  0.5573 -0.4148
 5088TIP3    H136679   5.541   3.736  16.293  1.1091 -0.1630 -0.7342
 5088TIP3    H236680   5.463   3.828  16.202 -1.3103  1.4472  2.7368
 5089TIP3   OH236681   6.268   2.360   4.716 -0.1088  0.0362  0.1303
 5089TIP3    H136682   6.301   2.426   4.777  1.7209 -0.8615  0.1713
 5089TIP3    H236683   6.173   2.370   4.719  0.0081  0.9464  2.0567
 5090TIP3   OH236684   1.647   5.600  10.785  0.0365  0.6339 -0.2527
 5090TIP3    H136685   1.711   5.671  10.796  0.5164  0.4018 -1.3926
 5090TIP3    H236686   1.602   5.622  10.703  0.0328 -0.2610 -0.4934
 5091TIP3   OH236687   6.654   3.577   0.751  0.1971  0.0194 -0.1354
 5091TIP3    H136688   6.631   3.666   0.777  0.0919 -0.1813  0.4906
 5091TIP3    H236689   6.742   3.585   0.714 -0.1573  0.5104 -0.8999
 5092TIP3   OH236690   1.316   3.545  13.341  0.3578  0.2043  0.1420
 5092TIP3    H136691   1.330   3.620  13.399  0.9577  1.6273 -1.7498
 5092TIP3    H236692   1.256   3.488  13.389 -0.6997  2.2343  1.3622
 5093TIP3   OH236693   0.378   6.616   0.800  0.4733  0.4699  0.1683
 5093TIP3    H136694   0.439   6.682   0.768  1.1247  0.1965  0.8157
 5093TIP3    H236695   0.305   6.666   0.837 -0.0778  0.7930 -1.2815
 5094TIP3   OH236696   4.623   3.875   4.717  0.0787  0.0983 -0.4014
 5094TIP3    H136697   4.597   3.941   4.653  0.9763  0.4863 -0.3648
 5094TIP3    H236698   4.590   3.908   4.801  1.3212  0.9621 -0.2387
 5095TIP3   OH236699   2.378   2.015   2.671  0.6711  0.1207  0.1191
 5095TIP3    H136700   2.295   2.053   2.642  0.9792  0.3979 -0.4313
 5095TIP3    H236701   2.425   1.996   2.590 -0.8465 -4.8012  0.1054
 5096TIP3   OH236702   2.271   2.711   3.059 -0.1274  0.0753  0.5584
 5096TIP3    H136703   2.237   2.646   2.998 -0.4769  0.0089  0.8241
 5096TIP3    H236704   2.319   2.772   3.003 -2.3598  1.3212 -0.1412
 5097TIP3   OH236705   2.056   2.591   1.068  0.3546 -0.1739 -0.3346
 5097TIP3    H136706   2.142   2.553   1.089  0.8252 -0.2259 -2.1862
 5097TIP3    H236707   2.043   2.571   0.976 -2.4272 -1.5844  0.2791
 5098TIP3   OH236708   5.995   2.151  13.295  0.0117 -0.0874  0.2432
 5098TIP3    H136709   5.909   2.125  13.326 -0.4161  0.3221 -0.5745
 5098TIP3    H236710   5.989   2.146  13.200  0.0629  2.4454  0.0402
 5099TIP3   OH236711   1.019   4.447  15.103 -0.1336  0.2761  0.0445
 5099TIP3    H136712   1.109   4.457  15.072 -0.3372  2.0157 -0.1346
 5099TIP3    H236713   1.027   4.404  15.188  0.7424 -0.8333 -0.5729
 5100TIP3   OH236714   2.025   6.645  15.726 -0.1063  0.0470 -0.7484
 5100TIP3    H136715   1.998   6.680  15.811 -1.5350  1.1738 -1.6305
 5100TIP3    H236716   2.095   6.584  15.747 -0.5769  0.1291  1.2664
 5101TIP3   OH236717   3.618   0.785   1.540  0.2433 -0.2690  0.2461
 5101TIP3    H136718   3.613   0.689   1.539  1.4004 -0.3374  0.1492
 5101TIP3    H236719   3.665   0.807   1.460 -2.0197  0.5362 -0.9569
 5102TIP3   OH236720   4.327   2.195  14.995 -0.4716  0.0555 -0.0648
 5102TIP3    H136721   4.394   2.243  15.044 -0.2431  0.3597 -0.6724
 5102TIP3    H236722   4.256   2.257  14.982 -0.3282  0.1204 -0.5387
 5103TIP3   OH236723   1.818   3.396  13.874  0.1077 -0.8575 -0.5343
 5103TIP3    H136724   1.901   3.443  13.871  0.4223 -1.4461 -1.7848
 5103TIP3    H236725   1.782   3.416  13.960  1.7093 -0.8842  0.1650
 5104TIP3   OH236726   2.637   0.933   0.403 -0.1000  0.4805  0.2999
 5104TIP3    H136727   2.634   1.027   0.382 -1.9900  0.4439  0.2249
 5104TIP3    H236728   2.730   0.914   0.416  0.8459  1.4611 -3.7209
 5105TIP3   OH236729   1.081   4.858  14.171  0.6561 -0.1032  0.3452
 5105TIP3    H136730   1.078   4.835  14.264 -0.5371  0.5469  0.4848
 5105TIP3    H236731   1.099   4.952  14.171  0.2433 -0.0241 -0.0752
 5106TIP3   OH236732   3.077   2.532  11.120 -0.5439 -0.1649  0.1199
 5106TIP3    H136733   3.034   2.458  11.164  0.5295 -0.8063  0.1288
 5106TIP3    H236734   3.049   2.525  11.029 -2.9162  1.2666  0.6516
 5107TIP3   OH236735   3.555   2.866  12.745 -0.4774  0.1612  0.2512
 5107TIP3    H136736   3.618   2.811  12.698 -1.1506 -1.1262  0.7870
 5107TIP3    H236737   3.473   2.816  12.742 -0.2938 -0.6334  3.7970
 5108TIP3   OH236738   0.373   4.220   2.594  0.0781  0.4170  0.0952
 5108TIP3    H136739   0.323   4.237   2.515  1.9717  0.2813 -1.1840
 5108TIP3    H236740   0.384   4.124   2.596  0.1168  0.4269  0.4660
 5109TIP3   OH236741   6.229   0.582  13.071 -0.0036 -0.0778  0.2588
 5109TIP3    H136742   6.200   0.654  13.127  1.8402 -0.7348  2.2379
 5109TIP3    H236743   6.169   0.510  13.091 -1.7675  0.7940 -1.6256
 5110TIP3   OH236744   4.001   0.774  15.071  0.2245  0.5825  0.1255
 5110TIP3    H136745   3.909   0.794  15.082 -0.1680 -1.2861  0.6512
 5110TIP3    H236746   4.046   0.830  15.135 -0.9085 -0.9593  2.4045
 5111TIP3   OH236747   1.966   1.725  10.885  0.1354 -0.2042  1.3742
 5111TIP3    H136748   2.044   1.712  10.939  0.1392  0.0832  1.4392
 5111TIP3    H236749   1.990   1.689  10.800  0.3705 -0.0386  1.3685
 5112TIP3   OH236750   1.611   3.425  11.833 -0.0321  0.7834  0.5819
 5112TIP3    H136751   1.633   3.440  11.925  1.2958  0.3188  0.3670
 5112TIP3    H236752   1.676   3.475  11.784  1.6985 -1.8672 -0.0914
 5113TIP3   OH236753   1.879   4.709  16.388  0.3592 -0.1541  0.3884
 5113TIP3    H136754   1.860   4.642  16.454 -0.7956 -1.5410 -1.2896
 5113TIP3    H236755   1.906   4.660  16.311  1.8463  1.4493 -0.1712
 5114TIP3   OH236756   2.972   3.535   1.715 -0.7537 -0.4208  0.2628
 5114TIP3    H136757   3.058   3.578   1.715 -0.6744 -0.5807  0.2444
 5114TIP3    H236758   2.990   3.445   1.691 -1.0978 -0.1194 -1.2147
 5115TIP3   OH236759   2.028   5.516  13.789  0.0640  0.0204 -0.0504
 5115TIP3    H136760   2.058   5.590  13.841  0.8712  1.3870 -2.3279
 5115TIP3    H236761   2.103   5.457  13.784 -0.9294 -1.7139  2.7812
 5116TIP3   OH236762   6.479   5.993   2.327  0.3152 -0.0517  0.7006
 5116TIP3    H136763   6.494   5.957   2.240  1.0965  0.1482  0.7453
 5116TIP3    H236764   6.403   6.049   2.317  0.6217  0.2561  0.0618
 5117TIP3   OH236765   0.853   4.257  11.951  0.4927  0.5181 -0.1158
 5117TIP3    H136766   0.806   4.318  11.894  1.1062 -0.2777 -1.5274
 5117TIP3    H236767   0.924   4.223  11.896 -0.7629 -2.7149  0.0601
 5118TIP3   OH236768   6.162   2.932  13.439 -0.2756 -0.4986 -0.5854
 5118TIP3    H136769   6.141   3.025  13.441 -2.3997 -0.9318 -0.2090
 5118TIP3    H236770   6.082   2.890  13.407  0.0521 -2.3193  0.8155
 5119TIP3   OH236771   6.217   5.646   5.275 -0.5289  0.2042 -0.0559
 5119TIP3    H136772   6.229   5.718   5.213  1.7067 -0.2068 -0.1728
 5119TIP3    H236773   6.305   5.629   5.309 -1.1333 -1.9472  0.5611
 5120TIP3   OH236774   4.347   6.473   1.603 -0.5994  0.5594 -0.1940
 5120TIP3    H136775   4.368   6.385   1.632 -2.0198  0.9856  2.4014
 5120TIP3    H236776   4.404   6.530   1.655 -2.3578  1.2953  1.0347
 5121TIP3   OH236777   3.392   6.715  15.631 -0.3254 -0.3100  0.2269
 5121TIP3    H136778   3.410   6.770  15.707  1.4476 -1.9395  1.0620
 5121TIP3    H236779   3.472   6.720  15.578 -0.7174 -0.8870 -0.4427
 5122TIP3   OH236780   0.763   2.092   2.591 -0.2080 -0.0986  0.5875
 5122TIP3    H136781   0.843   2.046   2.613  0.3242 -0.4315 -1.8091
 5122TIP3    H236782   0.781   2.184   2.611 -0.1918 -0.4703  2.4643
 5123TIP3   OH236783   3.322   1.844   0.731 -0.3753  0.6692  0.3158
 5123TIP3    H136784   3.401   1.839   0.677 -0.1975 -0.9821  0.6775
 5123TIP3    H236785   3.251   1.814   0.675 -0.0835 -1.7373  1.1040
 5124TIP3   OH236786   3.227   5.383  13.949  0.6622  0.2566 -0.2441
 5124TIP3    H136787   3.162   5.316  13.972  2.9111 -1.9097  0.2164
 5124TIP3    H236788   3.272   5.402  14.031  0.7664  1.5691 -0.5908
 5125TIP3   OH236789   2.583   2.003   3.052 -0.2672  0.3893 -0.2518
 5125TIP3    H136790   2.503   1.952   3.043  0.2700 -0.6185  0.4577
 5125TIP3    H236791   2.562   2.070   3.116 -0.9056  0.9123 -0.9994
 5126TIP3   OH236792   3.774   3.320   0.198  0.6852 -0.5908 -0.2000
 5126TIP3    H136793   3.850   3.371   0.227 -0.6817  2.1472 -1.0972
 5126TIP3    H236794   3.709   3.333   0.268 -0.4191  0.8183 -1.4042
 5127TIP3   OH236795   6.293   4.509  12.702  0.3877 -0.0997 -0.1961
 5127TIP3    H136796   6.237   4.484  12.776 -0.2209  1.0858 -0.2379
 5127TIP3    H236797   6.381   4.486  12.731 -0.1082 -2.5534 -0.3579
 5128TIP3   OH236798   2.353   1.752  14.207 -0.5548  0.0661 -0.0417
 5128TIP3    H136799   2.397   1.787  14.129 -1.1322 -0.9396 -0.8412
 5128TIP3    H236800   2.269   1.797  14.209  0.0042  1.1105  0.8088
 5129TIP3   OH236801   5.667   3.145  10.643  0.1037  0.1630  0.0898
 5129TIP3    H136802   5.578   3.166  10.614  0.7820 -0.6691 -2.9367
 5129TIP3    H236803   5.677   3.052  10.622  2.4559  0.7948 -2.0561
 5130TIP3   OH236804   0.824   2.727  12.696  0.0367 -0.0523 -0.0356
 5130TIP3    H136805   0.788   2.798  12.643 -0.3886 -0.3208 -0.1111
 5130TIP3    H236806   0.763   2.655  12.685 -0.4672  0.1117  1.3902
 5131TIP3   OH236807   4.317   4.702  13.699  0.1238  0.2003 -0.0223
 5131TIP3    H136808   4.250   4.709  13.767  0.3495 -3.1464  0.7318
 5131TIP3    H236809   4.305   4.613  13.664  1.2005  1.1585 -3.1304
 5132TIP3   OH236810   1.287   4.085  12.435 -0.5119  0.6077  0.2769
 5132TIP3    H136811   1.303   4.169  12.391 -1.5242 -0.1490 -1.6610
 5132TIP3    H236812   1.245   4.109  12.517  0.6885  2.0571  0.5210
 5133TIP3   OH236813   0.032   3.334   0.793  0.1430  0.6100 -0.1296
 5133TIP3    H136814   0.067   3.411   0.838 -0.7551  1.4511 -0.8185
 5133TIP3    H236815  -0.062   3.335   0.813  0.4545 -1.7731  1.9417
 5134TIP3   OH236816   1.443   2.119  15.831  0.2710 -0.9711 -0.5773
 5134TIP3    H136817   1.379   2.078  15.890  0.0902  0.2814  0.1333
 5134TIP3    H236818   1.521   2.130  15.885 -0.0104  0.5106 -0.4357
 5135TIP3   OH236819   3.879   1.119  16.975  0.2396 -0.0291  0.0144
 5135TIP3    H136820   3.805   1.179  16.972 -2.1369 -2.6969  0.9971
 5135TIP3    H236821   3.919   1.134  17.061 -0.8680 -0.4161  0.6109
 5136TIP3   OH236822   2.014   0.412   2.861  0.2229 -0.0967 -0.3255
 5136TIP3    H136823   2.036   0.367   2.780 -0.0481  0.0274 -0.4701
 5136TIP3    H236824   1.928   0.451   2.845  0.8309  1.2237 -0.5146
 5137TIP3   OH236825   0.520   0.848  11.394  0.1779  0.0149 -0.2728
 5137TIP3    H136826   0.569   0.870  11.314  1.3403 -1.8818 -0.1388
 5137TIP3    H236827   0.437   0.812  11.361 -0.3367  1.3683 -0.5375
 5138TIP3   OH236828   0.212   6.679  16.330  0.1672 -0.0188  0.1908
 5138TIP3    H136829   0.265   6.745  16.375 -0.7567  1.1565 -0.4045
 5138TIP3    H236830   0.276   6.614  16.299  0.9993  0.0951  1.5656
 5139TIP3   OH236831   1.155   6.771  14.567  0.1479  0.2644 -0.6430
 5139TIP3    H136832   1.223   6.817  14.616 -0.8205  0.4533  0.5765
 5139TIP3    H236833   1.115   6.838  14.512 -0.1171  0.5170 -0.1512
 5140TIP3   OH236834   2.940   6.705  13.323  0.3697  0.5984 -0.8461
 5140TIP3    H136835   2.994   6.720  13.400 -0.7349  0.4485 -0.0222
 5140TIP3    H236836   2.872   6.773  13.328 -1.5430 -1.2739  0.0346
 5141TIP3   OH236837   0.737   5.430   4.033  0.2031  0.6586  0.2199
 5141TIP3    H136838   0.801   5.400   3.968  0.1879  0.2155  0.4086
 5141TIP3    H236839   0.761   5.521   4.050  1.0731  0.3673  0.6238
 5142TIP3   OH236840   6.485   4.201   6.365 -0.0168 -0.2977 -0.3158
 5142TIP3    H136841   6.547   4.237   6.429 -2.1900  0.1034  1.6811
 5142TIP3    H236842   6.462   4.275   6.309 -0.6500  0.1860  0.5790
 5143TIP3   OH236843   3.333   0.576   1.741  0.0992 -0.3110  0.2631
 5143TIP3    H136844   3.409   0.553   1.688  0.7801  0.5182  0.8632
 5143TIP3    H236845   3.360   0.561   1.831  0.2164  1.7154  0.6211
 5144TIP3   OH236846   6.551   1.682  13.445  0.1340  0.4252  0.1012
 5144TIP3    H136847   6.646   1.674  13.437  0.3093  2.0314  0.3782
 5144TIP3    H236848   6.531   1.647  13.532  0.3506 -0.6304 -0.2516
 5145TIP3   OH236849   4.503   4.361   2.225 -0.1469  0.2634  0.4839
 5145TIP3    H136850   4.422   4.336   2.180  0.7301  2.0807 -2.3773
 5145TIP3    H236851   4.557   4.282   2.222 -0.6707 -0.0779 -0.4178
 5146TIP3   OH236852   1.956   1.724  13.769 -0.1323 -0.6622 -0.3275
 5146TIP3    H136853   1.989   1.634  13.766 -2.8421 -1.7527 -0.7839
 5146TIP3    H236854   1.981   1.756  13.855  1.1063 -1.7381 -0.2465
 5147TIP3   OH236855   4.203   0.438   1.107  0.1057  0.3726 -0.1106
 5147TIP3    H136856   4.249   0.362   1.142 -0.1445  0.1356 -0.2876
 5147TIP3    H236857   4.158   0.475   1.184  0.1841  0.3072 -0.0324
 5148TIP3   OH236858   6.013   0.410  13.194 -0.0166 -0.4228 -0.6703
 5148TIP3    H136859   5.938   0.376  13.242 -0.1255 -2.4163 -2.1468
 5148TIP3    H236860   6.086   0.404  13.256 -0.5522 -0.9562 -0.0755
 5149TIP3   OH236861   4.713   3.186   1.216  0.0155  0.1763  0.4762
 5149TIP3    H136862   4.781   3.129   1.180  0.6311  1.0664  0.1969
 5149TIP3    H236863   4.761   3.256   1.259 -0.7290  0.8113  0.2988
 5150TIP3   OH236864   1.452   6.304   3.049  0.0293  0.2462 -0.0679
 5150TIP3    H136865   1.506   6.372   3.090  0.0493 -0.3043  0.8645
 5150TIP3    H236866   1.493   6.288   2.964  0.3702  0.9740 -0.0520
 5151TIP3   OH236867   4.009   0.312  11.971  0.2187  0.1853  0.2612
 5151TIP3    H136868   3.916   0.305  11.950  0.5295 -0.1184 -1.0788
 5151TIP3    H236869   4.044   0.374  11.907  1.0557 -0.1520  0.3790
 5152TIP3   OH236870   4.337   6.593   6.148  0.7637 -0.0177 -0.0763
 5152TIP3    H136871   4.372   6.658   6.209  2.4377  1.2321 -2.2298
 5152TIP3    H236872   4.250   6.626   6.126  0.6193  0.1488  0.7146
 5153TIP3   OH236873   6.515   0.546  13.124 -0.1836  0.4177  0.0974
 5153TIP3    H136874   6.503   0.583  13.211 -0.4992 -1.1765  0.7620
 5153TIP3    H236875   6.433   0.566  13.078 -0.2191  0.8043  0.3212
 5154TIP3   OH236876   3.663   2.316  16.029 -0.2120  0.4347 -0.1318
 5154TIP3    H136877   3.634   2.252  16.094  1.8639 -3.3261 -2.5681
 5154TIP3    H236878   3.581   2.353  15.995 -1.5682 -1.1782  1.1475
 5155TIP3   OH236879   3.395   6.254   4.419 -0.1674 -0.4029  0.8028
 5155TIP3    H136880   3.306   6.223   4.437  0.3354 -1.4160  1.6610
 5155TIP3    H236881   3.417   6.309   4.494 -0.5619  1.0205 -0.0822
 5156TIP3   OH236882   3.233   0.383  11.593  0.0229  0.1624  0.6840
 5156TIP3    H136883   3.286   0.317  11.548  0.2166  0.1580  0.9162
 5156TIP3    H236884   3.225   0.349  11.682  0.1087  0.4458  0.8001
 5157TIP3   OH236885   4.863   4.393   5.204 -0.1114  0.7274  0.0441
 5157TIP3    H136886   4.945   4.343   5.209 -0.9579 -0.5697  2.3793
 5157TIP3    H236887   4.853   4.431   5.291 -1.7135  1.3557 -0.3805
 5158TIP3   OH236888   0.219   1.845  11.401 -0.0322 -0.2904 -0.1302
 5158TIP3    H136889   0.250   1.906  11.468 -2.0913 -0.3600  0.9555
 5158TIP3    H236890   0.284   1.775  11.400 -1.1395 -1.5755  3.6549
 5159TIP3   OH236891   0.402   0.249   1.396 -0.6063  0.1263  0.1225
 5159TIP3    H136892   0.365   0.337   1.406 -1.4038 -0.1171 -0.5945
 5159TIP3    H236893   0.456   0.254   1.317 -0.8997 -0.0964 -0.0980
 5160TIP3   OH236894   2.970   1.457   3.043  0.5658 -0.1481  0.4411
 5160TIP3    H136895   2.968   1.424   3.133  0.0237 -2.6115 -0.4010
 5160TIP3    H236896   2.883   1.436   3.009  1.1128 -0.1796 -0.9685
 5161TIP3   OH236897   4.562   6.399  12.831  0.0307 -0.3973 -0.0328
 5161TIP3    H136898   4.509   6.464  12.877  0.8850  0.2729  0.0348
 5161TIP3    H236899   4.551   6.421  12.738 -0.3406 -0.6755 -0.0534
 5162TIP3   OH236900   4.065   1.043   3.691 -0.1170  0.6835 -0.0767
 5162TIP3    H136901   4.077   1.004   3.604  0.5476  1.1153 -0.1778
 5162TIP3    H236902   4.103   1.131   3.684  0.9176  0.3400  0.9521
 5163TIP3   OH236903   6.642   1.747  14.548  0.6889 -0.5958  0.5806
 5163TIP3    H136904   6.572   1.743  14.613 -0.6346  1.6035 -0.6159
 5163TIP3    H236905   6.680   1.834  14.558  3.6695 -1.8655  1.5018
 5164TIP3   OH236906   5.538   6.734  15.565 -0.6441 -0.4156  0.6933
 5164TIP3    H136907   5.494   6.666  15.514 -0.3937  0.1741 -0.3576
 5164TIP3    H236908   5.629   6.732  15.534 -0.5077  0.0120  1.0506
 5165TIP3   OH236909   1.556   1.156  15.354  0.0217  0.2168  0.1977
 5165TIP3    H136910   1.577   1.165  15.261 -2.4813 -1.4685 -0.6460
 5165TIP3    H236911   1.562   1.245  15.388  0.5714  0.9597 -1.6940
 5166TIP3   OH236912   3.275   3.513   1.495 -0.3472 -0.2172 -0.4034
 5166TIP3    H136913   3.246   3.604   1.499  0.9465  0.3417 -2.4877
 5166TIP3    H236914   3.361   3.514   1.536 -0.8886 -0.8016  0.7944
 5167TIP3   OH236915   2.936   3.936   5.651  0.3450  0.4034 -0.0627
 5167TIP3    H136916   2.842   3.939   5.669  0.6716  0.8661  1.7761
 5167TIP3    H236917   2.965   4.027   5.658  0.8581  0.3388 -1.1547
 5168TIP3   OH236918   1.089   4.861   2.881  0.1443 -0.1826 -0.0154
 5168TIP3    H136919   1.169   4.808   2.884  1.3493  1.5478 -0.0491
 5168TIP3    H236920   1.091   4.912   2.961  2.2140  4.0748 -2.4209
 5169TIP3   OH236921   3.346   1.246  13.114 -0.3632 -0.3817 -0.5885
 5169TIP3    H136922   3.305   1.252  13.028 -1.7718 -1.6063 -0.0425
 5169TIP3    H236923   3.373   1.154  13.122 -0.8716 -0.4539  0.5408
 5170TIP3   OH236924   0.438   5.219   0.690 -0.2363  0.8278 -0.3795
 5170TIP3    H136925   0.460   5.136   0.732 -0.8068  1.0428  0.3657
 5170TIP3    H236926   0.391   5.194   0.611  0.0081  0.4367 -0.4057
 5171TIP3   OH236927   4.186   2.292   3.373  0.0111 -0.3503  0.3008
 5171TIP3    H136928   4.179   2.383   3.402 -1.1654 -0.0205 -0.9213
 5171TIP3    H236929   4.206   2.298   3.280 -1.0778 -1.3171 -0.0208
 5172TIP3   OH236930   2.980   5.942  14.536  0.3736 -0.0084 -0.0562
 5172TIP3    H136931   3.056   5.948  14.594  0.0079 -0.8489  0.5305
 5172TIP3    H236932   2.908   5.916  14.593 -0.6772  1.9973 -0.3651
 5173TIP3   OH236933   1.821   0.659  13.900 -0.6492 -0.1036 -0.0660
 5173TIP3    H136934   1.735   0.689  13.871 -1.6235 -1.6140  1.0602
 5173TIP3    H236935   1.836   0.578  13.850  0.8747  0.9183 -1.3907
 5174TIP3   OH236936   1.767   4.417   5.874  0.1410 -0.2259  0.0503
 5174TIP3    H136937   1.707   4.435   5.946  0.0948 -0.4035  0.0580
 5174TIP3    H236938   1.798   4.328   5.890 -1.5686 -1.1512 -1.3079
 5175TIP3   OH236939   1.723   0.507  15.072  0.3221  0.4427 -0.0998
 5175TIP3    H136940   1.786   0.481  15.005 -0.0700 -0.0723 -0.2712
 5175TIP3    H236941   1.640   0.512  15.027  0.1875  0.8455  0.1894
 5176TIP3   OH236942   4.439   5.373  11.366  0.2435 -0.0130  0.4429
 5176TIP3    H136943   4.494   5.356  11.443  0.0315 -0.1602  0.5594
 5176TIP3    H236944   4.490   5.436  11.315 -0.3658  1.4159  1.5363
 5177TIP3   OH236945   4.461   0.747  12.608 -0.1235  0.3808  0.1631
 5177TIP3    H136946   4.533   0.696  12.570 -0.5542 -0.7290  0.7814
 5177TIP3    H236947   4.383   0.698  12.584 -0.8039  2.1833 -1.4791
 5178TIP3   OH236948   4.953   3.576  12.658 -0.1668 -0.2926  0.3431
 5178TIP3    H136949   5.008   3.642  12.616 -0.1695  0.6922  1.8227
 5178TIP3    H236950   4.874   3.573  12.604  1.4233 -2.1077 -2.1227
 5179TIP3   OH236951   0.685   4.349  13.826 -0.5231  0.6526  0.0823
 5179TIP3    H136952   0.755   4.288  13.848 -1.4941 -0.8159 -0.7667
 5179TIP3    H236953   0.667   4.395  13.908  1.1636  0.8162  0.3956
 5180TIP3   OH236954   3.099   3.364   2.497 -0.2845 -0.7960  0.4839
 5180TIP3    H136955   3.094   3.459   2.509  1.0719 -0.7448  0.8614
 5180TIP3    H236956   3.134   3.331   2.580 -2.4422 -1.8605  1.0278
 5181TIP3   OH236957   3.566   0.854  14.704 -0.4908  0.1324 -0.4317
 5181TIP3    H136958   3.589   0.848  14.611 -1.2708 -1.0814 -0.5721
 5181TIP3    H236959   3.551   0.947  14.719 -1.4659  0.2314 -1.8154
 5182TIP3   OH236960   0.876   5.314   4.268 -0.1652  0.7027 -0.1261
 5182TIP3    H136961   0.841   5.251   4.331  0.6092  1.9885  1.7040
 5182TIP3    H236962   0.808   5.323   4.202 -0.2594 -2.0687 -0.5287
 5183TIP3   OH236963   5.900   3.108  12.285  0.1355 -0.0475  0.4688
 5183TIP3    H136964   5.888   3.138  12.195  3.7122 -0.5554 -0.3152
 5183TIP3    H236965   5.905   3.189  12.337 -3.3392  0.2401  0.6024
 5184TIP3   OH236966   2.275   5.213   1.710  0.3301 -0.4941  0.3139
 5184TIP3    H136967   2.362   5.243   1.682 -0.4864  1.5989 -0.0967
 5184TIP3    H236968   2.277   5.223   1.806  0.2054  0.5725  0.2183
 5185TIP3   OH236969   6.700   4.521   0.659  0.3514  0.6468 -0.1642
 5185TIP3    H136970   6.670   4.587   0.598  0.4741  0.7358 -0.1276
 5185TIP3    H236971   6.794   4.516   0.646  0.2967  0.2111 -0.4347
 5186TIP3   OH236972   1.507   5.102   5.243  0.5546  0.5709  0.6625
 5186TIP3    H136973   1.555   5.114   5.325 -0.9415 -0.2899  1.7024
 5186TIP3    H236974   1.457   5.022   5.255 -0.1896  0.7611 -0.8615
 5187TIP3   OH236975   3.269   3.223   5.741 -0.0634 -0.4163  0.1292
 5187TIP3    H136976   3.360   3.253   5.739  0.0511 -0.7964 -1.5905
 5187TIP3    H236977   3.245   3.210   5.649 -0.8672 -3.2538  0.6482
 5188TIP3   OH236978   5.263   0.908  12.238 -0.2267  0.0473 -0.1509
 5188TIP3    H136979   5.169   0.907  12.221 -0.5385  0.1608  1.4098
 5188TIP3    H236980   5.283   0.819  12.268 -0.0521  0.3139  0.5383
 5189TIP3   OH236981   5.553   3.631   0.940 -0.1927 -0.1685  0.3909
 5189TIP3    H136982   5.575   3.563   0.877  0.7764 -1.6996  2.2880
 5189TIP3    H236983   5.457   3.632   0.941 -0.2534  0.4487 -1.6092
 5190TIP3   OH236984   4.846   5.561   3.892  0.0502  0.1239 -0.1737
 5190TIP3    H136985   4.910   5.503   3.849  0.8571  1.1422 -0.3941
 5190TIP3    H236986   4.889   5.587   3.973  0.0974  1.1224 -0.5053
 5191TIP3   OH236987   5.500   1.254   0.828 -0.5931  0.3380 -0.1718
 5191TIP3    H136988   5.438   1.244   0.900  0.4999 -0.7876  0.6461
 5191TIP3    H236989   5.520   1.348   0.826 -0.8916  0.4265  0.7872
 5192TIP3   OH236990   6.073   6.581  15.048  0.4862 -0.1598  0.0067
 5192TIP3    H136991   6.055   6.587  14.955  1.5499 -0.7964 -0.2675
 5192TIP3    H236992   6.131   6.655  15.066  0.1067  0.0890  0.2107
 5193TIP3   OH236993   3.713   4.419   2.109  0.4227  0.3515 -0.0678
 5193TIP3    H136994   3.695   4.333   2.072  1.5634 -0.3840  0.9879
 5193TIP3    H236995   3.727   4.476   2.034 -0.9804 -0.2139 -0.7971
 5194TIP3   OH236996   0.607   5.466   4.462  0.4040  0.2203 -0.0615
 5194TIP3    H136997   0.698   5.493   4.452 -0.3512  3.3598  0.4654
 5194TIP3    H236998   0.575   5.517   4.536 -1.8125 -0.7186 -0.2988
 5195TIP3   OH236999   5.585   2.221   1.881  0.3496  0.0721  0.1072
 5195TIP3    H137000   5.583   2.171   1.799  0.5692 -0.1004  0.2080
 5195TIP3    H237001   5.578   2.156   1.950 -3.4813  0.3919  0.2299
 5196TIP3   OH237002   4.487   4.224  14.058 -0.3054  0.0679  0.3301
 5196TIP3    H137003   4.547   4.230  14.133  1.5838  1.4581 -1.1997
 5196TIP3    H237004   4.479   4.130  14.041  1.1907 -0.1702  0.7975
 5197TIP3   OH237005   2.485   1.140  13.276  0.1336 -0.4913 -0.0726
 5197TIP3    H137006   2.561   1.170  13.226  0.6354 -0.0763  0.9214
 5197TIP3    H237007   2.413   1.141  13.213  0.9432 -0.9084 -1.0372
 5198TIP3   OH237008   1.278   3.102  12.947  0.3727  0.7951  0.4037
 5198TIP3    H137009   1.332   3.158  12.891 -0.5764  0.6434 -0.7124
 5198TIP3    H237010   1.189   3.134  12.933 -0.0180 -0.0753  0.8581
 5199TIP3   OH237011   4.764   2.365   5.029 -0.1250 -0.4335 -0.1042
 5199TIP3    H137012   4.725   2.307   5.094 -0.1981 -0.7596 -0.4358
 5199TIP3    H237013   4.723   2.450   5.045 -1.2374 -0.8452 -0.6712
 5200TIP3   OH237014   3.933   6.531  17.228  0.4511 -0.0118  0.6477
 5200TIP3    H137015   3.856   6.476  17.211 -0.5964  1.9565 -1.4132
 5200TIP3    H237016   3.897   6.615  17.256  1.8108  1.0121 -0.5129
 5201TIP3   OH237017   2.392   1.136   2.242 -0.0292  0.2178 -0.3800
 5201TIP3    H137018   2.343   1.135   2.324  1.0696 -2.9828  0.3768
 5201TIP3    H237019   2.325   1.149   2.175 -1.6133 -1.4397  0.7865
 5202TIP3   OH237020   0.664   5.470  16.756  0.1822  0.1164 -0.1245
 5202TIP3    H137021   0.660   5.386  16.711  0.0006  0.1798 -0.2259
 5202TIP3    H237022   0.739   5.461  16.816  1.1858  0.4535 -1.2787
 5203TIP3   OH237023   6.610   5.810   4.572 -0.8921 -0.3199  0.0293
 5203TIP3    H137024   6.522   5.820   4.534 -0.8031 -1.9871 -0.7119
 5203TIP3    H237025   6.663   5.877   4.528 -1.2699 -0.8582 -1.2963
 5204TIP3   OH237026   4.072   3.965   4.658 -0.0229 -0.2466 -0.0539
 5204TIP3    H137027   4.074   3.918   4.741 -1.6266  0.9917  0.7492
 5204TIP3    H237028   4.132   4.039   4.671  1.5170 -1.2959 -0.8675
 5205TIP3   OH237029   2.574   0.568  13.827  0.4453  0.6112 -0.3995
 5205TIP3    H137030   2.666   0.592  13.817  0.3742  0.7920 -0.6264
 5205TIP3    H237031   2.539   0.632  13.889  0.8092 -0.3171  0.8012
 5206TIP3   OH237032   1.356   6.511   2.381 -0.0954 -0.4672  0.5420
 5206TIP3    H137033   1.389   6.502   2.291 -0.8803  0.2617  0.1656
 5206TIP3    H237034   1.263   6.486   2.374 -0.5182  0.9537  0.8586
 5207TIP3   OH237035   0.492   2.534   0.966 -0.0912 -0.2782 -0.1697
 5207TIP3    H137036   0.499   2.461   1.027 -0.7263 -1.0941 -1.0382
 5207TIP3    H237037   0.582   2.559   0.946  0.1236 -0.6672  0.3220
 5208TIP3   OH237038   2.960   1.065   1.604  0.3516  0.2486 -0.1203
 5208TIP3    H137039   2.877   1.105   1.630  0.6527  0.0943  1.1402
 5208TIP3    H237040   2.946   0.971   1.614  0.2176  0.1200 -1.3533
 5209TIP3   OH237041   0.855   5.444  16.947 -0.5034 -0.4329  0.1639
 5209TIP3    H137042   0.873   5.361  16.991 -2.9631 -0.2424  1.7602
 5209TIP3    H237043   0.861   5.510  17.017 -0.9790  0.3848 -0.5502
 5210TIP3   OH237044   6.738   3.436   1.212  0.2914 -0.8250 -0.1168
 5210TIP3    H137045   6.746   3.531   1.215 -0.7516 -0.7151 -0.3834
 5210TIP3    H237046   6.822   3.403   1.243 -0.2286  0.1849  2.5988
 5211TIP3   OH237047   6.510   5.357   6.282  0.1224 -0.8251  0.4271
 5211TIP3    H137048   6.549   5.357   6.369  0.2435 -1.7345  0.3889
 5211TIP3    H237049   6.561   5.420   6.231 -0.4540  0.3171  1.2173
 5212TIP3   OH237050   6.252   4.735   5.026 -0.1674 -0.1795  0.2181
 5212TIP3    H137051   6.340   4.755   5.058  0.0453  0.3019 -0.6346
 5212TIP3    H237052   6.194   4.769   5.094  0.2500  1.4913 -0.2077
 5213TIP3   OH237053   4.586   0.570   0.934  0.0860 -0.2806 -0.4619
 5213TIP3    H137054   4.642   0.589   1.008  0.7596  0.9798 -1.2550
 5213TIP3    H237055   4.549   0.484   0.953  1.2595 -0.5587  0.6945
 5214TIP3   OH237056   2.682   1.340   2.102 -0.0610  0.1891  0.0660
 5214TIP3    H137057   2.680   1.306   2.191 -0.3593 -0.1682 -0.0794
 5214TIP3    H237058   2.748   1.410   2.105  0.1574 -0.0327  0.4886
 5215TIP3   OH237059   6.003   4.786   4.653 -0.0606  0.0186 -0.0282
 5215TIP3    H137060   5.944   4.861   4.647  0.2082  0.3151  0.8453
 5215TIP3    H237061   5.978   4.742   4.734 -0.7852 -1.3485 -0.9575
 5216TIP3   OH237062   3.091   6.249   0.635 -0.2806 -0.0743  0.5086
 5216TIP3    H137063   3.077   6.173   0.577 -0.2778  0.1885  0.1572
 5216TIP3    H237064   3.030   6.315   0.602 -0.4027  0.0191  0.9202
 5217TIP3   OH237065   5.283   2.446   2.499 -0.1881  0.1345  0.1787
 5217TIP3    H137066   5.372   2.459   2.533  0.4097  0.3801 -1.4064
 5217TIP3    H237067   5.287   2.477   2.408 -1.6899 -0.6089 -0.1690
 5218TIP3   OH237068   3.044   2.346   1.262 -0.0484 -0.1146  0.2133
 5218TIP3    H137069   3.107   2.396   1.210  0.3509  1.2923  1.9363
 5218TIP3    H237070   2.989   2.303   1.197  1.0777  0.6955 -1.3597
 5219TIP3   OH237071   1.799   3.675  16.637 -0.0500 -0.2944  0.5235
 5219TIP3    H137072   1.845   3.754  16.605  1.3650 -1.1777  0.2866
 5219TIP3    H237073   1.843   3.603  16.592 -1.6492 -1.2078  0.3674
 5220TIP3   OH237074   0.393   1.597   6.481  0.0421 -0.3310 -0.7614
 5220TIP3    H137075   0.302   1.623   6.469 -0.3812 -1.2682  0.2699
 5220TIP3    H237076   0.436   1.674   6.519 -0.2669  0.1753 -1.4292
 5221TIP3   OH237077   2.358   6.482   0.441 -0.0114  0.0499  0.3975
 5221TIP3    H137078   2.286   6.515   0.387  0.0089  0.7363  0.7849
 5221TIP3    H237079   2.320   6.473   0.528  0.8245  2.1300  1.0212
 5222TIP3   OH237080   5.782   6.142   5.328  0.3269 -0.0843  0.3147
 5222TIP3    H137081   5.857   6.129   5.386 -0.9090 -0.8156  1.8428
 5222TIP3    H237082   5.736   6.218   5.365  1.0478  1.2839 -1.4721
 5223TIP3   OH237083   4.054   5.563   6.621  0.3020 -0.0518  0.0889
 5223TIP3    H137084   4.142   5.531   6.639  0.5477  0.9359  0.7198
 5223TIP3    H237085   4.061   5.609   6.538  0.6035  0.8083  0.5763
 5224TIP3   OH237086   1.900   4.088  15.910 -0.2267 -0.2268  0.2794
 5224TIP3    H137087   1.980   4.101  15.858  0.3434  0.6790  1.3247
 5224TIP3    H237088   1.932   4.067  15.998 -1.1640 -1.2507  0.3885
 5225TIP3   OH237089   4.016   0.947  11.472  0.2658 -0.1937 -0.5732
 5225TIP3    H137090   3.930   0.910  11.455  0.2731  0.4549 -2.2209
 5225TIP3    H237091   4.069   0.921  11.396  1.4156 -0.2677  0.2300
 5226TIP3   OH237092   3.656   0.020  14.032  0.2819  0.0319  0.0482
 5226TIP3    H137093   3.749   0.023  14.056  0.2918 -0.0732  0.0274
 5226TIP3    H237094   3.610   0.008  14.115  0.1802  1.5462  0.2284
 5227TIP3   OH237095   5.601   4.149  13.475 -0.2880  0.2870 -0.2776
 5227TIP3    H137096   5.527   4.166  13.416  0.1172 -1.2291 -1.2938
 5227TIP3    H237097   5.561   4.113  13.554 -0.6997  0.4752 -0.3958
 5228TIP3   OH237098   0.081   4.556  15.685 -0.2531 -0.9409  0.5772
 5228TIP3    H137099   0.076   4.598  15.771  0.1181  1.3936 -0.4809
 5228TIP3    H237100  -0.010   4.552  15.655 -0.2418 -0.4695  0.4825
 5229TIP3   OH237101   0.179   5.207   6.152  0.2785  0.4129  0.4607
 5229TIP3    H137102   0.135   5.203   6.067  0.1278  0.9201  0.5151
 5229TIP3    H237103   0.202   5.299   6.164 -0.4505  0.4909  1.3482
 5230TIP3   OH237104   3.977   2.271  14.590  0.4011 -0.2498  0.0834
 5230TIP3    H137105   4.070   2.250  14.578  0.6864  1.5009 -1.1608
 5230TIP3    H237106   3.966   2.276  14.685  1.7809  0.2706  0.2451
 5231TIP3   OH237107   0.816   4.518  12.094  0.4868 -0.2012 -0.3722
 5231TIP3    H137108   0.732   4.559  12.118  1.0582  0.9705 -0.2935
 5231TIP3    H237109   0.793   4.455  12.026 -0.8310 -1.8328  1.4920
 5232TIP3   OH237110   2.151   3.986   5.976 -0.4638  0.3828 -0.0375
 5232TIP3    H137111   2.155   3.982   6.072  0.0093  0.1210 -0.0675
 5232TIP3    H237112   2.061   3.960   5.955  0.2171 -2.5297  0.1964
 5233TIP3   OH237113   0.149   2.877  13.847  0.3147  0.2188 -0.2465
 5233TIP3    H137114   0.107   2.946  13.899  0.4866  0.3938 -0.3350
 5233TIP3    H237115   0.237   2.911  13.831 -0.7195  1.7523 -3.5124
 5234TIP3   OH237116   4.994   3.726  11.659 -0.2924 -0.2774 -0.0941
 5234TIP3    H137117   4.990   3.808  11.707  0.3952 -0.7261  0.7717
 5234TIP3    H237118   5.004   3.659  11.727  0.4730 -0.9529 -0.8458
 5235TIP3   OH237119   0.296   0.158   1.083 -0.1470  0.2275  0.2357
 5235TIP3    H137120   0.260   0.127   1.000  0.7419  1.6622 -0.7259
 5235TIP3    H237121   0.289   0.253   1.079 -1.1093  0.2982  2.3112
 5236TIP3   OH237122   5.961   5.226  14.562 -0.1131 -0.2481 -0.1752
 5236TIP3    H137123   6.044   5.268  14.582 -0.0993  1.4015 -3.0868
 5236TIP3    H237124   5.986   5.150  14.508 -0.4305 -0.4824  0.0072
 5237TIP3   OH237125   6.257   0.254  11.840  0.4269 -0.4570 -0.3541
 5237TIP3    H137126   6.189   0.268  11.775  0.4146 -1.3684 -0.5461
 5237TIP3    H237127   6.209   0.244  11.923  0.4563  0.9671 -0.1328
 5238TIP3   OH237128   2.802   2.917   2.513 -0.0094  0.1755  0.1585
 5238TIP3    H137129   2.774   2.853   2.578 -0.1595 -1.4279 -1.4204
 5238TIP3    H237130   2.881   2.956   2.550  0.7417 -1.7409  0.6840
 5239TIP3   OH237131   1.051   4.545   2.653  0.2906  0.6094 -0.1860
 5239TIP3    H137132   1.133   4.563   2.699 -0.9648  2.4358  1.4712
 5239TIP3    H237133   0.982   4.560   2.718 -1.4567  0.8773 -1.9926
 5240TIP3   OH237134   0.405   2.075  16.239  0.1262  0.6414 -0.3483
 5240TIP3    H137135   0.365   2.148  16.287  0.7908 -0.0129  1.2608
 5240TIP3    H237136   0.339   2.050  16.174 -1.3175  0.7610  1.0269
 5241TIP3   OH237137   3.457   4.538  13.635 -0.5276 -0.2047  0.3114
 5241TIP3    H137138   3.526   4.600  13.658 -0.6543 -0.0081  0.1641
 5241TIP3    H237139   3.467   4.524  13.540 -0.9860  0.1958  0.1966
 5242TIP3   OH237140   0.033   4.148   2.375  0.3921 -0.5261  0.0556
 5242TIP3    H137141  -0.025   4.173   2.448  0.4327 -0.9914  0.2532
 5242TIP3    H237142   0.062   4.231   2.338  1.1791 -0.2515  1.2109
 5243TIP3   OH237143   3.110   0.996  11.800 -0.0978 -0.5893 -0.3482
 5243TIP3    H137144   3.128   1.062  11.733 -0.4228 -1.3065 -1.1403
 5243TIP3    H237145   3.132   1.041  11.883  0.8981  0.0932 -0.9543
 5244TIP3   OH237146   5.865   5.109  14.834  0.3843  0.3331  0.3260
 5244TIP3    H137147   5.830   5.194  14.859  3.8724  1.6298  1.3319
 5244TIP3    H237148   5.902   5.122  14.747 -2.9056 -1.5070 -1.5481
 5245TIP3   OH237149   1.676   0.085   2.806  0.2898  0.3862  0.4500
 5245TIP3    H137150   1.611   0.028   2.847  0.9098  0.8673  2.1880
 5245TIP3    H237151   1.688   0.049   2.718 -2.4766  0.4363 -0.0138
 5246TIP3   OH237152   0.371   4.831   4.680  0.8412 -0.5343 -0.1728
 5246TIP3    H137153   0.294   4.824   4.624  0.5954  0.1859  0.0603
 5246TIP3    H237154   0.399   4.922   4.671  1.1419 -0.5603  0.4187
 5247TIP3   OH237155   0.816   5.362   1.723 -0.4672 -0.4739  0.0414
 5247TIP3    H137156   0.883   5.320   1.777 -0.7904  1.9089  2.5370
 5247TIP3    H237157   0.751   5.293   1.707 -0.0056 -1.4975  2.1851
 5248TIP3   OH237158   4.287   0.553  15.779  0.1996  0.4233 -0.9922
 5248TIP3    H137159   4.361   0.504  15.813  0.2116  1.9547  1.4769
 5248TIP3    H237160   4.302   0.559  15.685  2.5684 -0.3317 -0.7146
 5249TIP3   OH237161   5.858   1.092   1.477  0.1828 -0.1877 -0.0756
 5249TIP3    H137162   5.934   1.149   1.477  0.4156 -0.4837 -0.8450
 5249TIP3    H237163   5.894   1.003   1.479 -0.1684 -0.3232  0.7600
 5250TIP3   OH237164   4.332   1.908   6.539  0.4085 -0.2368  0.1251
 5250TIP3    H137165   4.273   1.983   6.544  0.9203  0.0987  3.0212
 5250TIP3    H237166   4.275   1.833   6.522 -0.4008  0.4925 -0.4526
 5251TIP3   OH237167   0.563   1.088   3.144 -0.3652 -0.4892  0.3879
 5251TIP3    H137168   0.508   1.144   3.088 -0.2612 -2.0752 -1.3868
 5251TIP3    H237169   0.500   1.040   3.198 -0.8741 -2.4504 -1.7782
 5252TIP3   OH237170   0.766   1.074   5.303  0.1884  0.5222 -0.3219
 5252TIP3    H137171   0.768   0.985   5.268  0.9907  0.0140  0.9564
 5252TIP3    H237172   0.688   1.077   5.358 -0.0146  0.7154 -0.6176
 5253TIP3   OH237173   0.978   5.627  12.718  0.1375  0.2868 -0.2209
 5253TIP3    H137174   0.955   5.719  12.733  0.6674  0.3249  0.3737
 5253TIP3    H237175   1.072   5.628  12.702  0.5354 -0.3655  1.8208
 5254TIP3   OH237176   1.177   5.124   0.632 -0.2286 -0.0753 -0.3063
 5254TIP3    H137177   1.131   5.112   0.715 -0.0460 -1.9949 -0.4384
 5254TIP3    H237178   1.112   5.162   0.573 -0.5231  0.7648  0.5307
 5255TIP3   OH237179   1.197   6.036   0.667 -0.0334 -0.7900 -0.5708
 5255TIP3    H137180   1.109   6.066   0.687  0.4182 -0.2987  0.7293
 5255TIP3    H237181   1.245   6.043   0.749  1.2106 -1.1065 -1.2390
 5256TIP3   OH237182   4.563   3.584   0.912 -0.0918 -0.0098 -0.1062
 5256TIP3    H137183   4.575   3.619   1.000 -0.1095  0.7359 -0.3944
 5256TIP3    H237184   4.494   3.519   0.922  1.3437 -1.4661  0.8238
 5257TIP3   OH237185   1.346   1.941   5.292  0.1703  0.0395  0.3374
 5257TIP3    H137186   1.388   1.904   5.214 -1.3519 -0.0267 -0.4789
 5257TIP3    H237187   1.360   1.875   5.360 -0.3332 -0.8878 -0.4406
 5258TIP3   OH237188   4.451   2.467   5.062  0.3329 -0.6377 -0.8075
 5258TIP3    H137189   4.382   2.531   5.078  0.5623 -0.5370 -0.1625
 5258TIP3    H237190   4.409   2.398   5.012 -0.2983 -0.6817 -0.2252
 5259TIP3   OH237191   3.780   2.495   3.633 -0.3453 -0.4659 -0.4357
 5259TIP3    H137192   3.708   2.478   3.574 -1.6827 -1.1632  1.3186
 5259TIP3    H237193   3.796   2.590   3.625 -2.8349  0.1176  0.5731
 5260TIP3   OH237194   2.432   2.647  16.319  0.6489 -0.0890 -0.3605
 5260TIP3    H137195   2.466   2.732  16.347  0.9719 -0.7028  1.2082
 5260TIP3    H237196   2.360   2.629  16.379  0.1401 -0.6353 -1.1117
 5261TIP3   OH237197   6.570   5.435  14.142 -0.2878 -0.4930 -0.2054
 5261TIP3    H137198   6.479   5.424  14.112 -0.6739  1.9723 -0.1646
 5261TIP3    H237199   6.622   5.431  14.061 -0.4173 -1.7540 -0.2471
 5262TIP3   OH237200   0.490   5.429  17.015  0.3429  0.5792  0.4287
 5262TIP3    H137201   0.578   5.397  16.995  0.7364  2.0104 -0.2295
 5262TIP3    H237202   0.502   5.494  17.083 -0.4210 -0.3720  1.5243
 5263TIP3   OH237203   5.311   3.198   3.081  0.3259  0.0664  0.7652
 5263TIP3    H137204   5.403   3.173   3.073  0.7005  1.6329 -0.1917
 5263TIP3    H237205   5.265   3.139   3.023  0.8701 -0.0195  0.4169
 5264TIP3   OH237206   1.185   3.421   6.232 -0.7378 -0.1500 -0.4083
 5264TIP3    H137207   1.099   3.462   6.231 -1.7050 -1.9369  1.5886
 5264TIP3    H237208   1.168   3.329   6.210  0.5601 -0.6568  0.5983
 5265TIP3   OH237209   3.213   5.959  16.595  0.1194 -0.0274 -0.6279
 5265TIP3    H137210   3.278   5.928  16.532  0.2209 -0.4387 -0.3177
 5265TIP3    H237211   3.246   5.932  16.680  0.8159  1.9368 -0.2168
 5266TIP3   OH237212   6.725   6.731   5.224  0.0329  0.1185 -0.1281
 5266TIP3    H137213   6.664   6.802   5.201  0.2935  0.0247 -1.1596
 5266TIP3    H237214   6.671   6.666   5.268 -0.0803  1.2726  1.5330
 5267TIP3   OH237215   1.518   3.086   4.628 -0.0422  0.1800  0.2361
 5267TIP3    H137216   1.505   3.091   4.722  0.6781  0.7011  0.3093
 5267TIP3    H237217   1.456   3.149   4.592 -0.3112 -0.0134  0.3553
 5268TIP3   OH237218   0.177   2.077  16.037  0.2065 -0.1335  0.0323
 5268TIP3    H137219   0.094   2.036  16.011  1.3598 -3.4284  1.0237
 5268TIP3    H237220   0.238   2.053  15.967  0.8619  0.2314  0.4730
 5269TIP3   OH237221   3.333   1.214  12.613  0.0642 -0.0396  0.0308
 5269TIP3    H137222   3.349   1.140  12.671  1.5661 -0.4292 -0.8294
 5269TIP3    H237223   3.416   1.263  12.613 -1.0018  1.9048  0.8982
 5270TIP3   OH237224   2.865   5.775  13.721  0.0232  0.2221  0.5070
 5270TIP3    H137225   2.927   5.705  13.702 -0.6802 -0.1495 -0.5095
 5270TIP3    H237226   2.911   5.855  13.696  0.4868  0.0407  0.7760
 5271TIP3   OH237227   3.825   5.831  16.256 -0.0406  0.3648  0.4518
 5271TIP3    H137228   3.900   5.824  16.315  0.4669 -2.2645 -0.3557
 5271TIP3    H237229   3.863   5.826  16.168 -1.0841 -0.2673  0.0139
 5272TIP3   OH237230   1.268   0.959   5.662 -0.0819  0.3165 -0.3374
 5272TIP3    H137231   1.207   0.930   5.593 -0.5255 -0.9293  0.5319
 5272TIP3    H237232   1.342   0.995   5.614  0.0275 -1.3426 -1.5412
 5273TIP3   OH237233   3.061   6.591  11.488 -0.4455  0.2807  0.1237
 5273TIP3    H137234   3.053   6.678  11.450  0.0817  0.4535  0.3880
 5273TIP3    H237235   3.155   6.572  11.485 -0.3381  0.4294  1.6081
 5274TIP3   OH237236   1.477   2.895  14.909  0.0391 -0.7014  0.0413
 5274TIP3    H137237   1.567   2.865  14.913 -0.1444 -1.1179  1.8151
 5274TIP3    H237238   1.479   2.983  14.945 -0.2512 -0.6739 -0.0067
 5275TIP3   OH237239   6.761   6.368   4.849 -0.6975 -0.4790 -0.0574
 5275TIP3    H137240   6.820   6.360   4.924 -0.3856  0.9696 -0.1192
 5275TIP3    H237241   6.772   6.286   4.802  1.4181 -0.2130 -0.1525
 5276TIP3   OH237242   4.866   0.998  11.905  0.1451  0.3870 -0.5589
 5276TIP3    H137243   4.856   1.086  11.870  0.5303  1.2325  1.3409
 5276TIP3    H237244   4.780   0.957  11.894  0.1539  0.7258 -2.0778
 5277TIP3   OH237245   1.164   6.622  16.125 -0.7092  0.2635  0.4975
 5277TIP3    H137246   1.251   6.662  16.120 -0.6827  0.1909  0.3690
 5277TIP3    H237247   1.182   6.529  16.143 -0.6935 -0.0861 -1.1602
 5278TIP3   OH237248   4.408   0.222  17.277  0.0086 -0.1838 -0.1946
 5278TIP3    H137249   4.398   0.267  17.193 -0.0987  2.0978  0.9472
 5278TIP3    H237250   4.444   0.136  17.255 -1.2657 -0.1541 -2.6420
 5279TIP3   OH237251   6.263   2.169  15.661  0.0948  0.2233  0.1616
 5279TIP3    H137252   6.271   2.077  15.636 -0.7699  0.1662  0.0418
 5279TIP3    H237253   6.274   2.168  15.756 -1.0999 -0.1861  0.3196
 5280TIP3   OH237254   1.357   3.646   3.383 -0.1442  0.2881  0.5505
 5280TIP3    H137255   1.375   3.706   3.455 -0.0216  1.2926 -0.2931
 5280TIP3    H237256   1.261   3.646   3.376 -0.2807 -1.2920  1.9127
 5281TIP3   OH237257   6.123   4.809   3.153  0.5826  0.1934  0.6007
 5281TIP3    H137258   6.144   4.883   3.096 -1.4440  0.4558  0.1116
 5281TIP3    H237259   6.029   4.793   3.139 -0.2115  0.6793  4.3158
 5282TIP3   OH237260   6.255   5.949   3.913  0.5240 -0.1655  0.3537
 5282TIP3    H137261   6.265   5.943   3.818  4.7703 -0.8677  0.6458
 5282TIP3    H237262   6.168   5.985   3.926  0.4341  1.6489 -3.8361
 5283TIP3   OH237263   1.311   1.547  15.392  0.3152  0.0299  0.6784
 5283TIP3    H137264   1.277   1.543  15.303  0.5626  1.7338  0.4810
 5283TIP3    H237265   1.237   1.575  15.445  0.3376 -0.3381  0.9072
 5284TIP3   OH237266   5.963   3.590  11.043 -0.2577  0.2380  0.4072
 5284TIP3    H137267   6.057   3.598  11.029 -0.0736 -0.2029  1.3336
 5284TIP3    H237268   5.931   3.540  10.968  0.6342 -1.7214  1.2667
 5285TIP3   OH237269   6.462   4.604   1.252 -0.0571  0.0802 -0.4528
 5285TIP3    H137270   6.473   4.646   1.338  0.0806  0.7753 -0.7969
 5285TIP3    H237271   6.540   4.551   1.241  0.7288  1.2612 -0.8326
 5286TIP3   OH237272   0.928   5.004   4.891  0.4580 -0.3231 -0.2445
 5286TIP3    H137273   0.932   4.909   4.899  1.6629 -0.1935  1.3618
 5286TIP3    H237274   0.984   5.025   4.816  1.6625 -0.8142  0.4763
 5287TIP3   OH237275   6.373   0.350  12.673 -0.0194  0.1461 -0.3210
 5287TIP3    H137276   6.308   0.364  12.742 -0.1142 -0.9817 -0.1512
 5287TIP3    H237277   6.451   0.320  12.720 -0.0638 -0.5644 -0.6815
 5288TIP3   OH237278   5.530   4.022   3.707 -0.1903  0.2121  0.5302
 5288TIP3    H137279   5.523   3.927   3.700  0.9533  0.1819 -0.7140
 5288TIP3    H237280   5.495   4.042   3.794 -1.3957 -1.2192  0.4182
 5289TIP3   OH237281   1.810   0.773  14.891 -0.0744  0.6242  0.1844
 5289TIP3    H137282   1.868   0.702  14.918 -1.0059  0.9691  3.5104
 5289TIP3    H237283   1.787   0.752  14.801  3.3609 -0.6968 -0.5370
 5290TIP3   OH237284   3.039   6.537   5.221  0.3080 -0.0729 -0.3333
 5290TIP3    H137285   3.056   6.443   5.226 -0.7045 -0.2078  1.3627
 5290TIP3    H237286   3.124   6.575   5.202  0.4342 -1.4216 -2.8698
 5291TIP3   OH237287   3.264   0.419   1.067 -0.2560 -0.1059 -0.7632
 5291TIP3    H137288   3.179   0.382   1.046  0.6476 -2.2254 -0.9862
 5291TIP3    H237289   3.295   0.457   0.985  0.2223 -2.0140 -1.5391
 5292TIP3   OH237290   0.060   5.635   0.384  0.4050  0.4942 -0.1194
 5292TIP3    H137291   0.136   5.679   0.420  1.0660 -0.2904 -0.5072
 5292TIP3    H237292   0.018   5.700   0.327  0.6015  1.0247  0.3349
 5293TIP3   OH237293   3.414   0.870  10.612  0.2942 -0.0679 -0.0716
 5293TIP3    H137294   3.338   0.879  10.554  0.3984 -0.8971 -0.3609
 5293TIP3    H237295   3.433   0.776  10.611 -0.2396 -0.2405  2.0310
 5294TIP3   OH237296   6.271   6.544   0.200 -0.4784 -0.0338 -0.1709
 5294TIP3    H137297   6.237   6.462   0.234  0.3135  0.0601  0.8821
 5294TIP3    H237298   6.196   6.584   0.155 -1.2544 -0.6581  0.5367
 5295TIP3   OH237299   0.770   0.103   3.731  0.4040  0.0046  0.4120
 5295TIP3    H137300   0.754   0.038   3.662  0.6466 -1.5283  1.7541
 5295TIP3    H237301   0.818   0.173   3.687  0.9876 -1.1602 -0.8767
 5296TIP3   OH237302   1.521   0.394  16.690 -0.3521 -0.2368  0.0332
 5296TIP3    H137303   1.540   0.449  16.766  1.1088  0.8399 -1.0512
 5296TIP3    H237304   1.581   0.426  16.622  0.0471 -2.7146 -0.8655
 5297TIP3   OH237305   3.701   5.370  16.114 -0.1204  0.2299 -0.6232
 5297TIP3    H137306   3.676   5.304  16.178 -1.9241 -0.7727 -2.2664
 5297TIP3    H237307   3.661   5.341  16.032 -0.2472  2.9048 -1.6137
 5298TIP3   OH237308   1.782   0.194   3.062  0.1054  0.2101  0.7712
 5298TIP3    H137309   1.765   0.286   3.040  0.6769  0.1044 -0.1934
 5298TIP3    H237310   1.744   0.145   2.989  2.2648 -0.1517 -0.2068
 5299TIP3   OH237311   5.058   2.057   2.613 -0.0228  0.0468 -0.1133
 5299TIP3    H137312   5.090   1.971   2.585  2.5496 -0.3002  3.2662
 5299TIP3    H237313   5.101   2.119   2.554  1.6995 -0.8319  0.1378
 5300TIP3   OH237314   2.481   5.869  14.196  0.0864  0.0320 -0.4026
 5300TIP3    H137315   2.499   5.776  14.188 -2.7744 -0.6985  0.5432
 5300TIP3    H237316   2.564   5.907  14.225  1.5631 -2.0259 -1.6425
 5301TIP3   OH237317   6.704   3.568   5.196 -0.2043 -0.3103  0.1010
 5301TIP3    H137318   6.745   3.589   5.112 -0.2054 -0.0901  0.1544
 5301TIP3    H237319   6.717   3.474   5.206  0.4537 -0.2155  0.2040
 5302TIP3   OH237320   5.101   5.803  10.771 -0.1437 -1.0056 -0.0794
 5302TIP3    H137321   5.073   5.725  10.724 -2.7982 -0.1124 -0.2021
 5302TIP3    H237322   5.050   5.801  10.852 -1.1151  1.0381 -0.5548
 5303TIP3   OH237323   2.465   5.577   2.369 -0.0163  0.4380  0.4303
 5303TIP3    H137324   2.533   5.545   2.309 -1.0159  1.0542 -1.0869
 5303TIP3    H237325   2.476   5.525   2.448  2.0788  0.3701  0.1504
 5304TIP3   OH237326   3.887   0.477   4.733 -1.0491 -0.0840 -0.3896
 5304TIP3    H137327   3.884   0.502   4.640  1.1038  0.8968 -0.2507
 5304TIP3    H237328   3.941   0.398   4.734  0.0487  0.6460  0.1187
 5305TIP3   OH237329   1.330   3.546   4.603 -0.2942 -0.4509 -0.3005
 5305TIP3    H137330   1.239   3.554   4.633 -0.4919 -0.0938 -0.9937
 5305TIP3    H237331   1.382   3.567   4.680 -0.7912  1.8596 -0.5368
 5306TIP3   OH237332   4.458   5.209   3.147  0.3157  0.2799 -0.0215
 5306TIP3    H137333   4.467   5.294   3.190  1.5476  0.0412  0.2386
 5306TIP3    H237334   4.543   5.194   3.105 -1.0735  0.8930 -3.3871
 5307TIP3   OH237335   5.160   0.389   2.658 -0.1314  0.2627 -0.1479
 5307TIP3    H137336   5.150   0.391   2.563 -0.5675 -0.9832 -0.1474
 5307TIP3    H237337   5.070   0.377   2.691  0.2119 -1.2763  0.3160
 5308TIP3   OH237338   1.672   5.329   5.598 -0.0431  0.1470  0.6611
 5308TIP3    H137339   1.754   5.376   5.611  0.4671 -0.9532  1.7362
 5308TIP3    H237340   1.604   5.392   5.621  0.5371  0.8026  0.6185
 5309TIP3   OH237341   2.227   1.800  16.145 -0.0224  0.7008  0.2748
 5309TIP3    H137342   2.153   1.744  16.122  0.7543 -0.1057 -0.3169
 5309TIP3    H237343   2.190   1.887  16.154 -1.0124  0.3309 -0.1596
 5310TIP3   OH237344   5.356   1.309   1.055  0.2396 -0.3074  0.5232
 5310TIP3    H137345   5.352   1.262   1.138 -1.7473 -1.6835 -0.2564
 5310TIP3    H237346   5.318   1.395   1.074  2.1259  0.3471  1.5437
 5311TIP3   OH237347   4.799   4.553  15.426 -0.1916 -0.0640 -0.1729
 5311TIP3    H137348   4.757   4.617  15.368 -0.2359 -0.0643 -0.1408
 5311TIP3    H237349   4.815   4.600  15.507  0.0456 -0.0077 -0.2493
 5312TIP3   OH237350   3.133   4.595   0.266  0.4184 -0.7025  0.0190
 5312TIP3    H137351   3.213   4.647   0.256 -0.0657  0.0929  0.1749
 5312TIP3    H237352   3.130   4.540   0.188  0.7594 -0.2393 -0.3231
 5313TIP3   OH237353   0.583   1.031  15.752 -0.0687 -0.0295  0.1680
 5313TIP3    H137354   0.509   1.063  15.804 -1.8687 -0.7178 -1.7914
 5313TIP3    H237355   0.597   0.941  15.781  1.6890  0.8281  2.2176
 5314TIP3   OH237356   0.263   5.085   0.877 -0.2216  0.2460  0.2285
 5314TIP3    H137357   0.269   5.176   0.904 -0.3888 -0.3108  2.2969
 5314TIP3    H237358   0.169   5.070   0.861 -0.3033  0.2309  0.7084
 5315TIP3   OH237359   5.852   6.408  12.096 -0.3432 -0.1813  0.4311
 5315TIP3    H137360   5.895   6.373  12.018 -2.6880 -3.8004  0.5502
 5315TIP3    H237361   5.898   6.490  12.114  0.4857  0.7519 -4.5522
 5316TIP3   OH237362   4.660   1.386   4.234 -0.3999 -0.4829 -0.1146
 5316TIP3    H137363   4.702   1.413   4.152 -0.7087 -2.3277 -0.9294
 5316TIP3    H237364   4.729   1.345   4.285  0.0179  1.5259  1.0232
 5317TIP3   OH237365   2.525   3.553  11.870  0.6393 -0.4976 -0.2826
 5317TIP3    H137366   2.482   3.578  11.952 -0.2969  1.1236 -1.2074
 5317TIP3    H237367   2.552   3.462  11.883 -2.3171 -1.3364  0.7119
 5318TIP3   OH237368   1.979   4.154   0.820  0.5037 -0.4565  0.4089
 5318TIP3    H137369   1.971   4.249   0.820 -0.0584 -0.4820 -0.9826
 5318TIP3    H237370   2.060   4.136   0.868 -0.0992  0.6328  1.8979
 5319TIP3   OH237371   1.515   3.585  11.098 -0.1043  0.0135 -0.6488
 5319TIP3    H137372   1.459   3.516  11.062 -2.1928  0.7701  0.9344
 5319TIP3    H237373   1.578   3.604  11.028  0.1854 -3.0298 -1.3494
 5320TIP3   OH237374   0.918   5.907  15.551  0.3260  0.1470  0.1429
 5320TIP3    H137375   0.890   5.894  15.642 -0.8898  1.3197 -0.0394
 5320TIP3    H237376   0.928   6.001  15.542  2.3846 -0.0714 -0.4248
 5321TIP3   OH237377   0.222   4.066   3.936  0.4299  0.0031 -0.6763
 5321TIP3    H137378   0.134   4.078   3.899  0.4989  0.6792 -0.6242
 5321TIP3    H237379   0.251   3.982   3.900 -1.1529 -1.4037  1.1129
 5322TIP3   OH237380   1.978   5.011  15.384 -0.3443 -0.4688 -0.3396
 5322TIP3    H137381   2.005   5.096  15.347 -0.7196 -0.1274  0.1573
 5322TIP3    H237382   1.992   5.021  15.478 -1.4404 -0.5612 -0.1584
 5323TIP3   OH237383   5.832   1.207  12.115  0.3321 -0.7955  0.5110
 5323TIP3    H137384   5.744   1.237  12.136  1.5009  1.7800  2.3446
 5323TIP3    H237385   5.879   1.209  12.199  2.4034 -1.0059 -0.5772
 5324TIP3   OH237386   3.995   4.415  16.239  0.3552 -0.4450  0.0404
 5324TIP3    H137387   3.921   4.362  16.270 -0.7018  1.9696  2.0067
 5324TIP3    H237388   4.052   4.424  16.315  0.0412  1.8880  0.0745
 5325TIP3   OH237389   2.099   2.882   3.809  0.0844  0.0072  0.2692
 5325TIP3    H137390   2.018   2.902   3.760  0.6449  0.9208 -0.3283
 5325TIP3    H237391   2.071   2.822   3.878 -1.3402  1.2062  0.8057
 5326TIP3   OH237392   6.069   3.565   4.295  0.1298 -0.3337 -0.1107
 5326TIP3    H137393   6.038   3.605   4.214 -2.6086 -1.1531  0.4225
 5326TIP3    H237394   6.090   3.638   4.352  0.3027  0.2611 -0.9238
 5327TIP3   OH237395   3.606   3.502  13.508  0.4057 -0.0597  0.0370
 5327TIP3    H137396   3.574   3.472  13.594  1.2378 -1.2277 -0.0457
 5327TIP3    H237397   3.555   3.581  13.491  0.8904  0.7710  2.0615
 5328TIP3   OH237398   0.188   4.271   3.533 -1.0003  0.4119 -0.4517
 5328TIP3    H137399   0.188   4.359   3.495 -1.0733  0.7342  0.2776
 5328TIP3    H237400   0.114   4.271   3.594  0.0866  0.4723  0.9353
 5329TIP3   OH237401   5.190   4.778   6.085  0.6506  0.1380  0.2043
 5329TIP3    H137402   5.267   4.826   6.055  1.6352 -1.8809 -0.7188
 5329TIP3    H237403   5.225   4.705   6.136 -0.6875 -0.3814  0.4348
 5330TIP3   OH237404   3.210   3.183  12.200 -0.0082 -0.5196  1.2568
 5330TIP3    H137405   3.140   3.133  12.241  0.1282 -1.5781  0.2488
 5330TIP3    H237406   3.240   3.128  12.127 -0.7734  1.5589 -0.7583
 5331TIP3   OH237407   2.106   4.754  11.728  0.0047 -0.5746  0.6384
 5331TIP3    H137408   2.145   4.668  11.742  2.6455  0.6057  1.1230
 5331TIP3    H237409   2.158   4.794  11.659  0.6074  1.5969  2.2225
 5332TIP3   OH237410   5.798   2.361  14.654 -0.2074 -0.1421 -0.1021
 5332TIP3    H137411   5.872   2.324  14.702  0.6760  0.6219 -0.8323
 5332TIP3    H237412   5.725   2.359  14.716  0.8714  0.7569  1.2439
 5333TIP3   OH237413   0.218   2.885  14.208 -0.0077  0.1871  0.3208
 5333TIP3    H137414   0.270   2.806  14.190  0.2138  0.5955 -0.9389
 5333TIP3    H237415   0.151   2.885  14.140 -2.2724 -0.7904  2.3906
 5334TIP3   OH237416   5.031   0.045  15.124  0.2260 -0.0576  0.1030
 5334TIP3    H137417   5.042   0.069  15.032 -0.7245  2.8174  0.6402
 5334TIP3    H237418   5.117   0.060  15.163  0.7753 -1.7996 -0.3668
 5335TIP3   OH237419   3.621   6.142   2.400 -0.0983  0.6343 -0.4151
 5335TIP3    H137420   3.580   6.072   2.452  2.0858 -0.8229 -0.5501
 5335TIP3    H237421   3.651   6.205   2.465  1.3532 -0.4858  0.0393
 5336TIP3   OH237422   5.131   1.108  15.153 -0.0080  0.1295  0.1630
 5336TIP3    H137423   5.174   1.181  15.197 -0.7851  1.1419 -0.6746
 5336TIP3    H237424   5.202   1.056  15.118  0.5717  0.3957  0.9140
 5337TIP3   OH237425   1.767   2.425   5.788  0.3810  0.6885  0.0607
 5337TIP3    H137426   1.771   2.517   5.762  0.5536  1.5331  2.7733
 5337TIP3    H237427   1.683   2.416   5.832  0.5833 -0.3209  0.2696
 5338TIP3   OH237428   5.094   0.308  11.547 -0.4045 -0.5401  0.0874
 5338TIP3    H137429   5.145   0.240  11.503  1.1971  0.1475  0.8041
 5338TIP3    H237430   5.148   0.335  11.621 -0.6878  1.9509 -0.5205
 5339TIP3   OH237431   4.381   6.089   6.073 -0.2260 -0.1764 -0.0328
 5339TIP3    H137432   4.328   6.168   6.077 -0.3567 -0.2987  0.6558
 5339TIP3    H237433   4.457   6.108   6.129  1.0020  0.3862 -1.7739
 5340TIP3   OH237434   5.852   1.578   4.022  0.1483  0.4259 -0.2635
 5340TIP3    H137435   5.931   1.559   4.072 -1.3425 -1.1777  1.6221
 5340TIP3    H237436   5.873   1.659   3.975  3.6467 -1.0224 -1.6132
 5341TIP3   OH237437   2.046   5.262  15.321  0.3783  0.3707  0.0206
 5341TIP3    H137438   2.128   5.286  15.363 -0.2006  3.4480 -0.3746
 5341TIP3    H237439   2.066   5.264  15.227  0.5794 -2.1300 -0.0559
 5342TIP3   OH237440   6.703   2.091  16.989  0.2672 -0.1226  0.1107
 5342TIP3    H137441   6.634   2.034  16.956 -0.2611  0.7572 -0.3418
 5342TIP3    H237442   6.694   2.088  17.084  0.1360 -0.6523  0.0836
 5343TIP3   OH237443   0.700   3.129   0.139  0.8119  0.0245  0.0783
 5343TIP3    H137444   0.755   3.206   0.154  1.2957 -0.6860  2.4368
 5343TIP3    H237445   0.619   3.147   0.186  0.3719 -0.3355 -0.5304
 5344TIP3   OH237446   5.606   6.194  12.228  0.0061  0.0269 -0.0113
 5344TIP3    H137447   5.669   6.121  12.230 -1.7195 -1.5826 -1.1763
 5344TIP3    H237448   5.539   6.166  12.166 -1.6112  1.9131  0.7854
 5345TIP3   OH237449   6.667   5.827  13.239 -0.0676 -0.3147 -0.2329
 5345TIP3    H137450   6.760   5.846  13.250 -0.5013  2.1763 -0.3543
 5345TIP3    H237451   6.622   5.906  13.268 -2.0595 -0.6837 -2.0259
 5346TIP3   OH237452   3.005   1.206   0.278  0.2808  0.2548 -0.2203
 5346TIP3    H137453   3.081   1.149   0.269 -0.9719 -1.6369  0.4045
 5346TIP3    H237454   2.939   1.167   0.221 -0.8882  0.5804  0.8473
 5347TIP3   OH237455   0.957   4.251   0.931 -0.6248  1.0574 -0.1331
 5347TIP3    H137456   1.003   4.319   0.883 -1.3740  0.8657 -1.1374
 5347TIP3    H237457   0.886   4.297   0.977 -0.5329  1.0948 -0.0290
 5348TIP3   OH237458   5.044   2.942   0.055 -0.3151  0.2668 -0.1793
 5348TIP3    H137459   4.967   2.999   0.056 -1.4766 -1.1880 -1.5306
 5348TIP3    H237460   5.045   2.905  -0.033  1.1329 -0.8220  0.2625
 5349TIP3   OH237461   1.357   0.578   4.715  0.2898  0.0587  0.1504
 5349TIP3    H137462   1.329   0.635   4.644 -0.0805 -1.0247 -0.5883
 5349TIP3    H237463   1.361   0.491   4.676  0.3888 -0.5046  1.3803
 5350TIP3   OH237464   2.637   0.032  16.151 -0.6315  0.1883  0.5461
 5350TIP3    H137465   2.607   0.112  16.108  0.3120 -0.0585 -0.6289
 5350TIP3    H237466   2.694  -0.010  16.087 -0.2555 -0.8965  1.5457
 5351TIP3   OH237467   1.794   6.270  16.185 -0.2762  0.2616 -0.2622
 5351TIP3    H137468   1.765   6.213  16.114 -1.8979 -1.2752  1.5691
 5351TIP3    H237469   1.714   6.311  16.217  0.3591  0.4963  1.0607
 5352TIP3   OH237470   5.175   0.994   4.250 -0.1004 -0.0798  0.3614
 5352TIP3    H137471   5.085   0.981   4.280  0.7951 -2.0306  2.5249
 5352TIP3    H237472   5.167   1.044   4.168 -3.1326 -0.5800  0.2650
 5353TIP3   OH237473   1.728   3.929   3.883 -0.0930  0.3275  0.6557
 5353TIP3    H137474   1.735   4.011   3.934 -1.6032 -0.1511  1.7086
 5353TIP3    H237475   1.644   3.892   3.910 -1.0110  0.0618 -2.2911
 5354TIP3   OH237476   0.225   5.045   4.958  0.9022 -0.2806  0.2235
 5354TIP3    H137477   0.179   4.978   4.908  0.3455  0.7041 -0.6166
 5354TIP3    H237478   0.311   5.050   4.918  0.0183  1.4847 -1.6619
 5355TIP3   OH237479   3.697   1.767  14.185  0.2471  0.0372 -0.0988
 5355TIP3    H137480   3.650   1.820  14.121  0.7110 -1.0111 -1.3777
 5355TIP3    H237481   3.723   1.689  14.136 -1.1747 -1.8220  1.8941
 5356TIP3   OH237482   3.127   6.708  15.688  0.1965 -0.1357 -0.0325
 5356TIP3    H137483   3.121   6.766  15.764 -1.3741  0.7403 -0.7868
 5356TIP3    H237484   3.219   6.712  15.662  0.5358  0.3645  1.1946
 5357TIP3   OH237485   1.823   6.539   2.985 -0.2433 -0.5648 -0.7625
 5357TIP3    H137486   1.857   6.510   3.069  1.5314 -0.0575 -1.2660
 5357TIP3    H237487   1.800   6.631   2.999  0.4300 -0.3683 -0.9310
 5358TIP3   OH237488   3.994   4.596   1.977 -0.0346 -0.5413  0.0084
 5358TIP3    H137489   4.008   4.537   2.051 -1.1412 -0.0598  0.6367
 5358TIP3    H237490   3.971   4.538   1.904  0.3867 -0.9767  0.2143
 5359TIP3   OH237491   0.634   0.543  13.018 -0.2354  0.4069  0.2508
 5359TIP3    H137492   0.701   0.474  13.021 -0.7588 -0.1103  0.2271
 5359TIP3    H237493   0.596   0.537  12.930 -1.5277 -0.4936  0.8393
 5360TIP3   OH237494   3.935   4.373  14.910 -0.0672 -0.0075  0.1713
 5360TIP3    H137495   3.879   4.323  14.969  1.4204 -0.5642  1.1746
 5360TIP3    H237496   3.905   4.463  14.917  0.3690  0.0192  2.1896
 5361TIP3   OH237497   5.894   2.666  13.622 -0.4257 -0.1193 -0.1600
 5361TIP3    H137498   5.926   2.735  13.564  0.9462 -0.7310 -0.1610
 5361TIP3    H237499   5.905   2.586  13.572 -2.2966 -0.3533 -0.2769
 5362TIP3   OH237500   4.030   0.030  16.966 -0.3919  0.4411 -0.0946
 5362TIP3    H137501   4.103   0.087  16.942 -0.0538  0.4189  0.8420
 5362TIP3    H237502   3.971   0.087  17.016 -0.4314  0.1613  0.1771
 5363TIP3   OH237503   1.195   2.029   4.488  0.4222  0.0937  0.3894
 5363TIP3    H137504   1.205   1.937   4.465  0.6323  0.1907  0.0903
 5363TIP3    H237505   1.259   2.044   4.558  0.4030  0.0161  0.4229
 5364TIP3   OH237506   4.983   3.339   3.818 -0.7699  0.1528  0.5336
 5364TIP3    H137507   5.039   3.266   3.842  0.6424  1.6346  2.0293
 5364TIP3    H237508   5.035   3.391   3.757 -0.3207  1.6727  2.1169
 5365TIP3   OH237509   0.177   4.796  12.597 -0.3538  1.1862 -0.6058
 5365TIP3    H137510   0.264   4.814  12.564  0.2946 -0.7817 -0.0695
 5365TIP3    H237511   0.149   4.716  12.553  0.2197 -1.1070  2.7483
 5366TIP3   OH237512   6.558   3.829   2.131 -0.0361 -0.1658 -0.0675
 5366TIP3    H137513   6.519   3.854   2.047 -2.3620  0.6640  1.1735
 5366TIP3    H237514   6.524   3.893   2.193 -0.1092 -2.0009  1.8948
 5367TIP3   OH237515   0.762   1.735  13.876  0.2933  0.3070  0.0938
 5367TIP3    H137516   0.709   1.718  13.954  1.1694 -1.7733  0.3042
 5367TIP3    H237517   0.706   1.791  13.821 -2.1076 -1.6945  0.3231
 5368TIP3   OH237518   0.542   6.260   1.265  0.3671  0.4274 -0.3770
 5368TIP3    H137519   0.512   6.330   1.208 -1.4251 -1.0105 -1.3232
 5368TIP3    H237520   0.632   6.244   1.238  0.2475  1.2309 -1.2947
 5369TIP3   OH237521   5.907   5.526  14.674 -0.1040 -0.0589  0.0516
 5369TIP3    H137522   5.838   5.579  14.713  0.2874  2.0224 -1.8229
 5369TIP3    H237523   5.974   5.519  14.743 -1.0834  0.0720  1.0338
 5370TIP3   OH237524   2.217   6.208   2.631 -0.2796 -0.2902  0.5492
 5370TIP3    H137525   2.312   6.216   2.637 -0.4552  2.0180  1.1662
 5370TIP3    H237526   2.201   6.191   2.538  0.6883  0.2205  0.2685
 5371TIP3   OH237527   0.646   4.766   2.214 -0.0648  0.1808 -0.1577
 5371TIP3    H137528   0.569   4.732   2.168  0.6163 -0.5476 -0.7687
 5371TIP3    H237529   0.613   4.786   2.302 -1.1520  0.6945 -0.6506
 5372TIP3   OH237530   5.004   2.118  12.047 -0.3507 -0.0981 -0.2839
 5372TIP3    H137531   4.925   2.105  12.099 -1.1121  0.4523 -1.2742
 5372TIP3    H237532   5.051   2.189  12.092 -0.7975  0.0914 -0.1153
 5373TIP3   OH237533   6.156   2.809  17.231 -0.0091 -0.5218  0.0944
 5373TIP3    H137534   6.180   2.848  17.315  0.0872 -0.5749  0.0922
 5373TIP3    H237535   6.167   2.880  17.168 -1.8570  0.0589  0.3745
 5374TIP3   OH237536   4.197   3.452  15.522 -0.6968  0.2065  0.4184
 5374TIP3    H137537   4.168   3.419  15.438 -0.2968  0.1194  0.3091
 5374TIP3    H237538   4.220   3.544  15.505  0.3993 -0.0907  0.1686
 5375TIP3   OH237539   1.067   0.053  15.839 -0.8484 -0.0060 -0.0204
 5375TIP3    H137540   1.037   0.006  15.762  0.4147 -1.0501  0.0861
 5375TIP3    H237541   1.089   0.140  15.806 -1.1467 -0.1688 -0.6694
 5376TIP3   OH237542   5.200   3.932   2.048 -0.3995  0.5353 -0.3437
 5376TIP3    H137543   5.172   3.992   2.117  0.3715 -0.3016  0.7206
 5376TIP3    H237544   5.203   3.846   2.089  1.4326  0.2293 -1.0156
 5377TIP3   OH237545   2.970   1.004   4.524  0.3255  0.0378  0.4110
 5377TIP3    H137546   3.011   1.029   4.608  0.0640 -0.3073  0.6446
 5377TIP3    H237547   3.042   0.966   4.473  0.3259 -0.4729  0.7815
 5378TIP3   OH237548   0.978   5.711   4.869  0.2490 -0.1249 -0.5846
 5378TIP3    H137549   0.973   5.628   4.917  0.7548 -0.3587 -0.9371
 5378TIP3    H237550   0.904   5.763   4.903  0.1644 -0.5697 -0.0879
 5379TIP3   OH237551   4.588   1.527   3.282  0.0377  0.0645  0.2336
 5379TIP3    H137552   4.580   1.540   3.187  0.3566  0.5061  0.2628
 5379TIP3    H237553   4.549   1.606   3.320 -1.9368 -1.0159  0.5245
 5380TIP3   OH237554   4.399   2.284  15.615 -0.0824  0.5276  0.4273
 5380TIP3    H137555   4.388   2.276  15.710  1.5452  0.2878  0.6312
 5380TIP3    H237556   4.490   2.312  15.604  0.1873 -0.8011 -1.1126
 5381TIP3   OH237557   0.248   0.441  14.279  0.0609  0.2017  0.0893
 5381TIP3    H137558   0.171   0.387  14.263  0.7150  0.1220 -3.6286
 5381TIP3    H237559   0.214   0.529  14.292 -0.7199 -0.0553 -0.1718
 5382TIP3   OH237560   4.186   0.094   4.737  0.3170 -0.2161 -0.2951
 5382TIP3    H137561   4.219   0.094   4.646  2.0486  0.1865  0.2912
 5382TIP3    H237562   4.150   0.006   4.748 -1.0952  0.1325 -1.7518
 5383TIP3   OH237563   1.126   0.406   5.858  0.2247  0.1367  0.4824
 5383TIP3    H137564   1.142   0.422   5.765 -0.0321  0.3367  0.4713
 5383TIP3    H237565   1.154   0.315   5.872  1.2990  0.4447  0.4538
 5384TIP3   OH237566   5.370   4.859  15.336 -0.0843 -0.6735  0.1282
 5384TIP3    H137567   5.418   4.875  15.255 -0.1979 -3.7735 -0.6759
 5384TIP3    H237568   5.397   4.771  15.363 -0.8069 -0.1109  2.9457
 5385TIP3   OH237569   4.168   5.911   5.916  0.4884  0.5610 -0.2938
 5385TIP3    H137570   4.077   5.927   5.939  1.0693 -0.0979  2.9077
 5385TIP3    H237571   4.218   5.973   5.969  1.9679 -0.2538 -0.6769
 5386TIP3   OH237572   4.023   1.181  15.273  0.2909 -0.1499 -0.5304
 5386TIP3    H137573   3.936   1.153  15.301  1.3298 -0.0589  3.3871
 5386TIP3    H237574   4.075   1.101  15.269  0.8897  0.1358  0.9328
 5387TIP3   OH237575   4.791   5.160  16.313  0.0795 -0.0080 -0.1097
 5387TIP3    H137576   4.748   5.246  16.309 -0.5524 -0.2977  0.2347
 5387TIP3    H237577   4.860   5.171  16.379 -1.2227 -0.2713  1.3548
 5388TIP3   OH237578   5.463   2.897   2.636  0.1440 -0.2683  0.2912
 5388TIP3    H137579   5.485   2.888   2.543  0.4811  1.5424  0.1643
 5388TIP3    H237580   5.428   2.985   2.644  0.3919 -0.2877  1.9402
 5389TIP3   OH237581   4.060   4.340   3.227  0.1857 -0.9182  0.1873
 5389TIP3    H137582   4.120   4.412   3.243 -0.6279  0.0907 -1.0907
 5389TIP3    H237583   4.103   4.286   3.161  0.1184 -0.7516  0.0085
 5390TIP3   OH237584   2.873   0.909  15.012  0.0667  0.5131  0.8336
 5390TIP3    H137585   2.927   0.960  14.951  0.9271 -1.0802  0.1921
 5390TIP3    H237586   2.818   0.973  15.055  0.0621  1.8079 -0.9891
 5391TIP3   OH237587   2.151   4.891  13.403  0.4965  0.8094 -0.1273
 5391TIP3    H137588   2.212   4.955  13.439  1.1528 -0.3815  0.9143
 5391TIP3    H237589   2.095   4.866  13.477  1.9283 -1.7390  0.1705
 5392TIP3   OH237590   3.783   0.733   3.859  0.0944  0.6524  0.6125
 5392TIP3    H137591   3.775   0.827   3.877 -2.2291  0.4125  1.2932
 5392TIP3    H237592   3.692   0.701   3.863  0.8114 -1.5877  0.2218
 5393TIP3   OH237593   5.679   4.818   6.352  0.0254  0.8789  0.1457
 5393TIP3    H137594   5.693   4.804   6.258  1.0936  1.6415  0.1789
 5393TIP3    H237595   5.601   4.874   6.355 -0.9185 -0.3652 -0.2011
 5394TIP3   OH237596   0.327   5.676  13.173 -0.3658  0.5660  0.0888
 5394TIP3    H137597   0.397   5.732  13.138  0.6585 -0.8875 -0.3075
 5394TIP3    H237598   0.273   5.656  13.097  0.5518 -0.7448 -0.2530
 5395TIP3   OH237599   6.641   0.379  11.727 -0.7990 -0.0778  0.3287
 5395TIP3    H137600   6.724   0.427  11.730 -1.1098  0.4226  1.0276
 5395TIP3    H237601   6.590   0.413  11.801 -1.2624 -1.0432  0.4795
 5396TIP3   OH237602   6.592   5.220   3.147 -0.8383  0.4076 -0.3718
 5396TIP3    H137603   6.539   5.277   3.203  2.2890  1.4873  1.7199
 5396TIP3    H237604   6.591   5.262   3.062 -2.1884  1.1312 -0.0230
 5397TIP3   OH237605   1.380   3.516  12.493  0.1616 -0.4180 -0.3312
 5397TIP3    H137606   1.460   3.471  12.463  1.1250  0.7867  0.3114
 5397TIP3    H237607   1.313   3.448  12.495  1.4691 -1.7370  0.2657
 5398TIP3   OH237608   3.777   2.821  14.087 -0.1039 -0.4619  0.1098
 5398TIP3    H137609   3.763   2.904  14.133  1.1951 -1.2856  2.1504
 5398TIP3    H237610   3.702   2.767  14.111 -0.8799  0.0362 -1.1090
 5399TIP3   OH237611   2.021   2.710   4.018  0.5451  0.1867  0.1449
 5399TIP3    H137612   2.041   2.631   3.967  0.4002  0.7713 -0.8386
 5399TIP3    H237613   1.928   2.701   4.039  0.8429 -0.5616  1.2302
 5400TIP3   OH237614   3.709   3.837   0.782 -0.1104  0.4519 -0.2113
 5400TIP3    H137615   3.772   3.848   0.853 -0.7304  2.6782  0.0984
 5400TIP3    H237616   3.625   3.825   0.826 -0.2865  0.2674 -0.5912
 5401TIP3   OH237617   3.978   1.653  14.471  0.2413  0.0060 -0.3838
 5401TIP3    H137618   3.977   1.601  14.551  0.6054  2.4201  1.3045
 5401TIP3    H237619   3.888   1.682  14.460  0.1635 -0.4299 -0.9667
 5402TIP3   OH237620   1.002   1.309  15.130 -0.4067  0.0884 -0.3683
 5402TIP3    H137621   1.084   1.260  15.137  0.1284  0.8781 -0.9085
 5402TIP3    H237622   1.015   1.387  15.183 -1.2953 -0.3853  0.5825
 5403TIP3   OH237623   6.604   3.242  16.540 -0.0323  0.0693 -0.4834
 5403TIP3    H137624   6.517   3.281  16.549 -0.2484 -0.0598 -1.8243
 5403TIP3    H237625   6.588   3.148  16.528  0.4704 -0.4979  2.3685
 5404TIP3   OH237626   5.943   6.347   0.951  0.7187 -0.2269 -0.1882
 5404TIP3    H137627   5.916   6.322   0.863  2.5534 -0.5566 -0.6924
 5404TIP3    H237628   5.978   6.267   0.989  0.7070  0.1102  0.5554
 5405TIP3   OH237629   4.611   2.951  13.080  0.2817  0.5456  0.5561
 5405TIP3    H137630   4.677   3.014  13.054 -1.4325  0.9880 -3.3710
 5405TIP3    H237631   4.602   2.893  13.004 -1.5295 -1.5244  2.2185
 5406TIP3   OH237632   4.360   6.357   1.229 -0.2596  0.6228  0.3119
 5406TIP3    H137633   4.449   6.330   1.248  0.1063  1.7963  0.3254
 5406TIP3    H237634   4.352   6.352   1.134 -0.5176 -0.4770  0.3821
 5407TIP3   OH237635   6.139   3.671  15.488  0.1327 -0.2159 -0.5677
 5407TIP3    H137636   6.174   3.631  15.409 -0.2326  1.7560 -1.7949
 5407TIP3    H237637   6.060   3.717  15.459  0.0046  0.5724  0.9206
 5408TIP3   OH237638   1.188   3.640   0.224 -0.0088  0.0159 -0.0944
 5408TIP3    H137639   1.262   3.607   0.275  0.1746 -0.2290 -0.5131
 5408TIP3    H237640   1.185   3.584   0.147 -0.1233  0.5432 -0.4810
 5409TIP3   OH237641   5.325   3.451   4.103  0.0678  0.0376  0.7211
 5409TIP3    H137642   5.266   3.501   4.046  0.5980 -0.2476 -0.0980
 5409TIP3    H237643   5.324   3.499   4.186 -1.9468 -0.4316  1.0146
 5410TIP3   OH237644   1.834   4.760   0.941  0.1614 -0.7190  0.1885
 5410TIP3    H137645   1.874   4.817   1.007  0.0131 -0.2459 -0.1241
 5410TIP3    H237646   1.861   4.798   0.857 -2.8679  1.0766 -0.1088
 5411TIP3   OH237647   0.784   0.121   0.650  0.7499 -0.1410  0.0092
 5411TIP3    H137648   0.845   0.058   0.688  3.3702 -0.2135 -3.7059
 5411TIP3    H237649   0.828   0.206   0.661  1.7134 -0.1923 -2.7005
 5412TIP3   OH237650   2.255   1.314   4.341  0.3641  0.3866  0.0771
 5412TIP3    H137651   2.173   1.276   4.374  0.9271  0.1973  1.3137
 5412TIP3    H237652   2.302   1.239   4.304  0.8814  0.1076  1.2766
 5413TIP3   OH237653   3.916   5.435   2.972 -0.0286  0.7935 -0.4145
 5413TIP3    H137654   3.894   5.445   2.880  0.8309 -0.5112 -0.7768
 5413TIP3    H237655   4.004   5.471   2.980  1.1733 -1.8375 -0.7845
 5414TIP3   OH237656   2.392   5.960  17.161  0.2069  0.1445 -0.4688
 5414TIP3    H137657   2.344   6.028  17.114 -1.3524 -0.8531 -0.4218
 5414TIP3    H237658   2.353   5.878  17.130  0.1243 -0.6076  1.4675
 5415TIP3   OH237659   2.596   4.863   6.143  0.2323 -0.6712  0.1541
 5415TIP3    H137660   2.680   4.864   6.099  0.0909  1.1076 -0.1570
 5415TIP3    H237661   2.610   4.913   6.224 -0.6643  0.2698 -0.2435
 5416TIP3   OH237662   0.587   2.642  14.231 -0.5864  0.4279  0.1880
 5416TIP3    H137663   0.612   2.552  14.255 -1.0538 -0.3102 -1.8840
 5416TIP3    H237664   0.663   2.675  14.183 -0.2802  1.3047  1.2315
 5417TIP3   OH237665   2.493   3.806   0.422 -0.2432 -0.0624 -0.4836
 5417TIP3    H137666   2.528   3.732   0.373  0.2364  0.5966 -1.1588
 5417TIP3    H237667   2.548   3.880   0.396  1.6792 -0.1034  2.8802
 5418TIP3   OH237668   5.730   2.128  14.478 -0.4555  0.6251  1.2025
 5418TIP3    H137669   5.646   2.084  14.490  0.0759 -0.9777 -0.3960
 5418TIP3    H237670   5.709   2.222  14.481 -2.7330  0.3219 -1.3263
 5419TIP3   OH237671   6.547   2.398   4.512  0.0816 -0.2463 -0.0559
 5419TIP3    H137672   6.515   2.382   4.424 -0.0561 -1.6487  0.2277
 5419TIP3    H237673   6.483   2.356   4.569  0.1577  0.6650  0.7246
 5420TIP3   OH237674   1.304   4.739   0.820 -0.2566 -0.1409 -0.6673
 5420TIP3    H137675   1.316   4.783   0.736  2.0236  1.4777  0.4134
 5420TIP3    H237676   1.391   4.734   0.857 -1.2067 -0.8139  1.6405
 5421TIP3   OH237677   6.703   5.876   3.798 -0.4294  0.4924  0.1215
 5421TIP3    H137678   6.696   5.781   3.797 -1.7401  0.5097  2.5400
 5421TIP3    H237679   6.618   5.907   3.828  0.8806  2.2682  2.3136
 5422TIP3   OH237680   1.553   4.071   2.868  0.3479 -0.7078  0.7535
 5422TIP3    H137681   1.465   4.066   2.903  0.2299 -0.0029  0.5689
 5422TIP3    H237682   1.543   4.052   2.774  0.7006 -2.9019  1.0962
 5423TIP3   OH237683   5.496   4.632   4.939  0.1094 -0.0741 -0.2102
 5423TIP3    H137684   5.541   4.551   4.919 -0.6170 -0.6941  0.5992
 5423TIP3    H237685   5.540   4.666   5.018 -0.7235 -0.6132  0.5030
 5424TIP3   OH237686   1.235   3.840  12.370  0.2092  0.0396  0.4348
 5424TIP3    H137687   1.242   3.936  12.367  1.5525 -0.0545 -0.3954
 5424TIP3    H237688   1.236   3.819  12.463 -2.8608  0.9577  0.7710
 5425TIP3   OH237689   6.735   6.033  16.900 -0.0538 -0.7139 -0.3508
 5425TIP3    H137690   6.787   5.997  16.828 -1.3557  0.2711 -1.8549
 5425TIP3    H237691   6.659   5.974  16.906  0.9033 -1.8562  1.4948
 5426TIP3   OH237692   3.589   2.899   4.815 -0.0705 -0.9598  0.1085
 5426TIP3    H137693   3.575   2.851   4.733  0.6878 -0.8266 -0.1071
 5426TIP3    H237694   3.638   2.976   4.789 -0.6011 -0.4606  0.5695
 5427TIP3   OH237695   2.423   0.315   3.017 -0.0788  0.6023  0.1051
 5427TIP3    H137696   2.506   0.294   3.060  0.8199  1.6730 -1.0521
 5427TIP3    H237697   2.421   0.410   3.013 -1.3475  0.5871  0.0681
 5428TIP3   OH237698   0.377   0.885  15.599 -0.0446  0.1646  0.2603
 5428TIP3    H137699   0.361   0.826  15.525 -0.3033 -0.1437  0.5617
 5428TIP3    H237700   0.442   0.947  15.566  2.2845 -1.8601  0.7493
 5429TIP3   OH237701   4.317   0.785   1.877 -0.1615  0.1052 -0.1874
 5429TIP3    H137702   4.271   0.868   1.882 -0.6805 -0.1238 -1.0152
 5429TIP3    H237703   4.255   0.720   1.910 -0.2127 -0.1214 -0.7186
 5430TIP3   OH237704   4.979   5.041  16.780 -0.1875  0.4095  0.1708
 5430TIP3    H137705   4.913   5.023  16.713 -0.3407 -1.1378  0.6872
 5430TIP3    H237706   5.007   4.955  16.810  1.6357  1.0448  0.4115
 5431TIP3   OH237707   4.638   4.959   1.131  0.3109  0.2598  0.1015
 5431TIP3    H137708   4.675   4.882   1.175 -1.0997 -1.0610 -0.9002
 5431TIP3    H237709   4.708   5.024   1.133  0.4669  0.2491  4.0005
 5432TIP3   OH237710   5.009   2.566  17.255  0.6846 -0.2159  0.1556
 5432TIP3    H137711   4.928   2.617  17.265  0.7389  0.2094 -1.3550
 5432TIP3    H237712   4.987   2.480  17.292  0.0983  0.4063  1.3143
 5433TIP3   OH237713   4.802   4.739  16.301  0.1607  0.2059 -0.7300
 5433TIP3    H137714   4.721   4.713  16.257 -0.4465  0.0974  0.4089
 5433TIP3    H237715   4.833   4.816  16.252  0.7330 -1.2129 -2.7024
 5434TIP3   OH237716   0.179   1.111   0.988  0.1940 -0.1073  0.3720
 5434TIP3    H137717   0.169   1.206   0.989 -2.3303 -0.3104  0.1672
 5434TIP3    H237718   0.147   1.082   1.073  2.3029 -0.7432  1.0262
 5435TIP3   OH237719   6.654   3.250  16.856 -0.4813  0.1335  0.4296
 5435TIP3    H137720   6.636   3.261  16.763  1.9068 -1.9591 -0.4050
 5435TIP3    H237721   6.585   3.192  16.888 -0.7299  0.0386 -0.2808
 5436TIP3   OH237722   4.251   5.463   3.276 -0.0904 -0.0964  0.7241
 5436TIP3    H137723   4.325   5.523   3.275 -0.3637  0.2977 -1.5370
 5436TIP3    H237724   4.213   5.470   3.188 -1.3498 -2.0988  1.0393
 5437TIP3   OH237725   2.811   3.041  11.879 -0.3606  0.2119  0.3392
 5437TIP3    H137726   2.733   3.045  11.824  0.1639 -1.8481 -0.6289
 5437TIP3    H237727   2.785   2.988  11.954 -1.1384  3.1673  2.3645
 5438TIP3   OH237728   2.856   0.262  11.567  0.4860 -0.3340  0.0321
 5438TIP3    H137729   2.912   0.201  11.615 -0.0592  0.4728  1.7494
 5438TIP3    H237730   2.869   0.346  11.609 -0.1048  0.4031 -1.1891
 5439TIP3   OH237731   4.144   4.193  17.243  0.3265 -0.0022  0.0698
 5439TIP3    H137732   4.151   4.269  17.301  4.3382  0.2878 -0.5342
 5439TIP3    H237733   4.183   4.221  17.161 -0.8528 -1.8744 -1.2145
 5440TIP3   OH237734   1.798   1.759  12.587 -0.1626  0.0597 -0.0877
 5440TIP3    H137735   1.844   1.805  12.516  1.6621 -0.3299  0.7801
 5440TIP3    H237736   1.765   1.829  12.643 -1.3011  0.3633 -1.0766
 5441TIP3   OH237737   4.080   4.307   0.713  0.0226 -0.5873 -0.7212
 5441TIP3    H137738   4.130   4.338   0.638  0.9902  0.0961  0.1786
 5441TIP3    H237739   4.056   4.386   0.760  0.6580 -1.0665  0.4469
 5442TIP3   OH237740   1.930   3.890  16.489 -0.3464 -0.0480  0.5406
 5442TIP3    H137741   2.018   3.909  16.522 -0.0269 -2.3533  1.1819
 5442TIP3    H237742   1.943   3.871  16.396 -0.1744 -0.2540  0.6052
 5443TIP3   OH237743   6.021   1.598  16.443 -0.4373 -0.4558  0.0552
 5443TIP3    H137744   6.055   1.543  16.373 -2.1184 -0.9834 -0.3766
 5443TIP3    H237745   5.927   1.580  16.446 -1.1716  2.6873 -0.3843
 5444TIP3   OH237746   3.159   3.597   0.818 -0.2821  0.0069 -0.5783
 5444TIP3    H137747   3.114   3.635   0.742 -1.1394 -0.2771 -0.2250
 5444TIP3    H237748   3.165   3.668   0.881 -0.4914 -0.0253 -0.5202
 5445TIP3   OH237749   4.336   4.326  12.941 -0.1332 -0.6733  0.0749
 5445TIP3    H137750   4.303   4.320  12.851 -0.3367  0.8403  0.0233
 5445TIP3    H237751   4.362   4.236  12.963  0.5065 -0.9741 -1.7167
 5446TIP3   OH237752   1.749   6.483   6.491  0.3278  0.3586 -0.3645
 5446TIP3    H137753   1.758   6.564   6.441  0.7966  0.4688 -0.1076
 5446TIP3    H237754   1.720   6.419   6.426  2.1113  0.2060 -1.0842
 5447TIP3   OH237755   0.580   5.473  12.457  0.4702 -0.4991  0.2660
 5447TIP3    H137756   0.640   5.400  12.472  1.1851  0.3102  1.4426
 5447TIP3    H237757   0.617   5.546  12.506 -0.7756  0.3928 -0.0644
 5448TIP3   OH237758   3.381   1.923   3.594 -0.2720  0.1757  0.5115
 5448TIP3    H137759   3.457   1.947   3.648  0.0675 -1.0914  0.6264
 5448TIP3    H237760   3.415   1.858   3.532 -0.8488  0.9832 -0.6839
 5449TIP3   OH237761   0.444   4.470   1.353 -0.0975 -0.0199  0.0615
 5449TIP3    H137762   0.367   4.482   1.410  0.7245  0.3783  1.1221
 5449TIP3    H237763   0.516   4.454   1.414  0.7375 -0.0063 -0.9061
 5450TIP3   OH237764   3.832   2.338   2.676  0.3489 -0.0759  0.0012
 5450TIP3    H137765   3.741   2.352   2.703 -0.4610  0.1306 -2.5897
 5450TIP3    H237766   3.840   2.244   2.664  0.8916 -0.2343  1.4829
 5451TIP3   OH237767   6.485   5.844   6.355  0.3665 -0.0676  0.5023
 5451TIP3    H137768   6.422   5.789   6.307  1.0776  0.7075 -1.4130
 5451TIP3    H237769   6.555   5.783   6.381  1.0632 -0.1679 -1.4454
 5452TIP3   OH237770   2.924   4.426   4.378 -0.0450 -0.4246  0.3587
 5452TIP3    H137771   2.848   4.409   4.322  1.3625  0.1415 -1.8278
 5452TIP3    H237772   2.997   4.437   4.317  1.5681  0.3204  2.3249
 5453TIP3   OH237773   5.312   5.706  14.124  0.4697  0.0343  0.4518
 5453TIP3    H137774   5.226   5.731  14.090  0.8555  1.2035  0.2689
 5453TIP3    H237775   5.309   5.729  14.217  0.2442 -0.8959  0.6858
 5454TIP3   OH237776   4.662   4.773   3.705 -0.3633  0.0178 -0.4017
 5454TIP3    H137777   4.638   4.847   3.649  0.5219  1.1270  0.6415
 5454TIP3    H237778   4.755   4.786   3.724 -0.5069 -0.6384  0.8779
 5455TIP3   OH237779   6.417   2.805  16.488 -0.0610 -0.3772 -0.6419
 5455TIP3    H137780   6.330   2.841  16.505  0.4136  0.2903  0.5304
 5455TIP3    H237781   6.414   2.776  16.397 -1.5711 -0.5800 -0.5517
 5456TIP3   OH237782   3.418   1.741   5.601 -0.4294  0.3864  0.2822
 5456TIP3    H137783   3.349   1.785   5.652  0.5608  1.3196  0.8678
 5456TIP3    H237784   3.472   1.697   5.667  0.6627  1.3107  0.0397
 5457TIP3   OH237785   3.681   3.716  16.587  0.6801 -0.1473 -0.4805
 5457TIP3    H137786   3.635   3.707  16.503 -1.6265 -1.7922  0.8502
 5457TIP3    H237787   3.611   3.713  16.653  2.5454 -0.4254  1.5946
 5458TIP3   OH237788   6.526   4.759   1.493  0.4953 -0.1955 -0.5669
 5458TIP3    H137789   6.540   4.824   1.562  1.7012  0.7964 -1.6953
 5458TIP3    H237790   6.580   4.684   1.519 -1.3535 -1.0577  1.0439
 5459TIP3   OH237791   5.786   4.350  13.437  0.5219 -0.2400 -0.0173
 5459TIP3    H137792   5.720   4.281  13.442 -0.2639  0.3061 -1.9238
 5459TIP3    H237793   5.754   4.409  13.369  2.1249  0.9921  0.2299
 5460TIP3   OH237794   6.684   4.756   0.191 -0.7573  0.2107  0.2132
 5460TIP3    H137795   6.689   4.750   0.095  1.6526  1.7654  0.1355
 5460TIP3    H237796   6.591   4.759   0.210 -1.3315 -1.0452 -2.0025
 5461TIP3   OH237797   6.083   2.005   0.676  0.2091 -0.0679 -0.2904
 5461TIP3    H137798   6.162   2.051   0.647  0.2629 -0.2119 -0.3701
 5461TIP3    H237799   6.097   1.991   0.770  0.8499 -1.2298 -0.5425
 5462TIP3   OH237800   2.112   2.895   5.132  0.0747 -0.5186 -0.4193
 5462TIP3    H137801   2.111   2.817   5.076  1.8433  0.3319 -1.7569
 5462TIP3    H237802   2.196   2.937   5.113 -0.2858  1.0679  1.1879
 5463TIP3   OH237803   6.686   2.847   1.715  0.5417  0.3710  0.0141
 5463TIP3    H137804   6.701   2.754   1.696 -1.9465 -0.2499  0.6538
 5463TIP3    H237805   6.630   2.877   1.643  0.4500  1.0692  0.3701
 5464TIP3   OH237806   5.146   3.232  11.952 -0.2631 -0.0527  0.5847
 5464TIP3    H137807   5.171   3.187  11.871  3.5708  0.3256  1.3548
 5464TIP3    H237808   5.133   3.162  12.015 -1.2061 -0.2752  0.1570
 5465TIP3   OH237809   1.722   4.772   3.495 -0.2635  0.3636  0.2657
 5465TIP3    H137810   1.651   4.714   3.465  1.3807 -2.0509  0.7098
 5465TIP3    H237811   1.727   4.840   3.428 -2.7807  0.4526  0.0822
 5466TIP3   OH237812   6.469   3.998  12.445  0.2961  0.2009  0.0393
 5466TIP3    H137813   6.451   3.908  12.474 -0.0385  0.8941  2.1180
 5466TIP3    H237814   6.534   3.988  12.375 -0.4830 -1.7071 -0.4749
 5467TIP3   OH237815   1.482   3.196   0.610  0.3766 -0.0389  0.3497
 5467TIP3    H137816   1.483   3.214   0.704  1.0610  1.1021  0.1466
 5467TIP3    H237817   1.495   3.101   0.604  1.9608  0.0654  1.3735
 5468TIP3   OH237818   6.770   4.219   4.347  0.7239 -0.5511 -0.5975
 5468TIP3    H137819   6.825   4.189   4.274  1.5929 -0.5487  0.0370
 5468TIP3    H237820   6.749   4.310   4.326  1.3505 -0.4114 -0.6287
 5469TIP3   OH237821   3.206   4.865  15.957 -0.2500 -0.1842  0.2336
 5469TIP3    H137822   3.197   4.920  16.035  0.0979 -0.0197  0.1650
 5469TIP3    H237823   3.273   4.801  15.982  0.8220  0.6667 -0.3518
 5470TIP3   OH237824   1.162   2.297   1.440 -0.3018  0.2450  0.1870
 5470TIP3    H137825   1.200   2.366   1.494  1.9109  0.1596 -1.1719
 5470TIP3    H237826   1.173   2.217   1.491  2.4365  0.0482 -0.6062
 5471TIP3   OH237827   1.260   3.448   5.535  0.3958 -0.3329 -0.2294
 5471TIP3    H137828   1.276   3.360   5.501 -1.1387 -0.7995  0.1870
 5471TIP3    H237829   1.194   3.484   5.476  0.2240  0.1266  0.2408
 5472TIP3   OH237830   3.676   0.709   5.392  0.2927  0.0152  0.2691
 5472TIP3    H137831   3.606   0.763   5.427 -0.3677  0.2468 -1.3141
 5472TIP3    H237832   3.717   0.763   5.325  3.5816  0.7973  2.6483
 5473TIP3   OH237833   3.815   4.528  13.426 -0.3234 -0.4180  0.0382
 5473TIP3    H137834   3.817   4.576  13.343 -1.0844 -2.1709 -1.0559
 5473TIP3    H237835   3.722   4.519  13.446 -0.1945 -1.2227  0.3211
 5474TIP3   OH237836   3.222   3.974   5.301 -0.4002  0.2370  0.0253
 5474TIP3    H137837   3.140   3.925   5.299 -0.0944 -0.2526 -0.8376
 5474TIP3    H237838   3.277   3.933   5.234  1.2149 -0.5898  1.7405
 5475TIP3   OH237839   0.094   3.229  16.158 -0.6504 -0.0454 -0.3191
 5475TIP3    H137840   0.182   3.226  16.121 -0.4488  1.7806 -0.0498
 5475TIP3    H237841   0.066   3.137  16.160  1.3114 -0.6785 -0.2043
 5476TIP3   OH237842   5.031   2.941   3.710  0.2356 -0.4128  0.5780
 5476TIP3    H137843   5.012   2.914   3.800 -1.2401 -1.4989 -0.0147
 5476TIP3    H237844   5.106   2.888   3.684 -0.0847 -0.9730  0.7846
 5477TIP3   OH237845   4.305   2.270  13.331 -0.2424  0.4350  0.4456
 5477TIP3    H137846   4.293   2.205  13.262 -0.1469  2.2867 -1.4245
 5477TIP3    H237847   4.398   2.291  13.329 -0.4073  1.2021  0.4737
 5478TIP3   OH237848   6.652   3.731  16.439  0.4549 -0.2859 -0.7880
 5478TIP3    H137849   6.720   3.780  16.486  1.9356 -1.4488 -1.6267
 5478TIP3    H237850   6.571   3.752  16.485  1.6754 -0.6002  1.6610
 5479TIP3   OH237851   2.789   5.328   2.043  0.5048 -0.3338 -0.1220
 5479TIP3    H137852   2.885   5.328   2.040  0.5375  1.1216 -0.0607
 5479TIP3    H237853   2.767   5.256   2.102  1.6576  0.4859  1.4102
 5480TIP3   OH237854   1.341   3.616  11.777  0.1682 -0.2642 -0.6763
 5480TIP3    H137855   1.336   3.659  11.692 -0.1976 -2.4232 -1.8428
 5480TIP3    H237856   1.427   3.574  11.777 -0.0576 -0.7414 -0.2465
 5481TIP3   OH237857   1.305   3.090  15.480  0.2032 -0.1895 -0.3739
 5481TIP3    H137858   1.288   2.997  15.491  1.4688 -0.6752 -2.1182
 5481TIP3    H237859   1.386   3.106  15.528 -0.1641  0.0998  0.1674
 5482TIP3   OH237860   0.336   3.404  15.607 -0.1007  0.1594  0.4381
 5482TIP3    H137861   0.407   3.344  15.584  0.9996  1.2345  0.8966
 5482TIP3    H237862   0.370   3.454  15.681 -2.1953 -0.7971  2.1648
 5483TIP3   OH237863   4.501   1.083   5.110  0.0999  0.4570 -0.3377
 5483TIP3    H137864   4.567   1.100   5.178 -0.8825 -1.8206  1.2843
 5483TIP3    H237865   4.533   1.005   5.065 -0.4912  0.5286 -0.8871
 5484TIP3   OH237866   0.312   1.249   5.948 -0.2192  0.6641 -0.4512
 5484TIP3    H137867   0.405   1.272   5.957 -0.3081  0.9860 -0.3695
 5484TIP3    H237868   0.272   1.279   6.029 -0.1513 -0.7054  0.1319
 5485TIP3   OH237869   6.009   1.563  12.734 -0.1444  0.1039  0.6432
 5485TIP3    H137870   6.061   1.623  12.681 -1.6064 -0.2806 -1.3230
 5485TIP3    H237871   5.934   1.614  12.763  1.2906  0.7364  3.7110
 5486TIP3   OH237872   3.635   2.098   2.114  0.4306  0.2819  0.4184
 5486TIP3    H137873   3.592   2.022   2.074 -1.3817  1.5988 -0.2680
 5486TIP3    H237874   3.685   2.137   2.043  0.4744  0.3408  0.4827
 5487TIP3   OH237875   6.444   2.168   3.349 -0.0526 -0.7429 -0.0253
 5487TIP3    H137876   6.402   2.122   3.276  0.4319  0.8651 -1.3655
 5487TIP3    H237877   6.383   2.158   3.422 -1.3165 -1.0123 -1.0919
 5488TIP3   OH237878   4.078   5.740   1.147 -0.7453  0.0414 -0.0468
 5488TIP3    H137879   3.994   5.785   1.150 -0.2343  1.0378 -0.0319
 5488TIP3    H237880   4.141   5.807   1.174  0.1279 -0.4760 -0.7451
 5489TIP3   OH237881   0.114   0.757   4.743 -0.1790 -0.0053  0.0383
 5489TIP3    H137882   0.096   0.663   4.744 -0.5285  0.0029 -1.9790
 5489TIP3    H237883   0.149   0.774   4.655 -3.2143  2.2886 -0.8746
 5490TIP3   OH237884   4.955   3.790  15.136 -0.2573  0.2271 -0.2270
 5490TIP3    H137885   4.999   3.857  15.083 -0.2190  1.4466  1.2625
 5490TIP3    H237886   4.953   3.827  15.224  0.9910 -2.3211  0.9775
 5491TIP3   OH237887   4.312   6.144  17.297  0.0137 -0.3615  0.8369
 5491TIP3    H137888   4.234   6.105  17.257  0.0808  0.5950 -0.3066
 5491TIP3    H237889   4.281   6.226  17.334  0.5924  0.4472 -0.3785
 5492TIP3   OH237890   1.694   5.599   1.342 -0.1301  0.2402  0.1926
 5492TIP3    H137891   1.775   5.592   1.291  0.4306 -0.8195  1.1687
 5492TIP3    H237892   1.711   5.547   1.421 -2.0915 -0.8380 -0.0144
 5493TIP3   OH237893   3.095   6.442  17.230 -0.3461  0.1780  0.0900
 5493TIP3    H137894   3.074   6.482  17.314  0.2153 -0.4518  0.5350
 5493TIP3    H237895   3.190   6.445  17.224 -0.3802  0.2815 -0.5581
 5494TIP3   OH237896   6.762   2.020   2.963  0.4934 -0.1242 -0.3637
 5494TIP3    H137897   6.759   1.963   2.887  0.1550  0.5811 -0.8918
 5494TIP3    H237898   6.687   2.079   2.953  0.4959  0.0430  0.4647
 5495TIP3   OH237899   3.524   6.210   6.332  0.1488  0.5143  0.0316
 5495TIP3    H137900   3.442   6.161   6.332  0.0874  0.6073 -0.3947
 5495TIP3    H237901   3.542   6.226   6.239  1.5172 -0.9480  0.0158
 5496TIP3   OH237902   6.641   0.861  12.109  0.1150 -0.0921  0.1031
 5496TIP3    H137903   6.550   0.882  12.130  0.0056  0.3004 -0.7208
 5496TIP3    H237904   6.636   0.796  12.040  0.4731 -0.8256  0.7489
 5497TIP3   OH237905   0.354   4.462  16.969 -0.1843  0.3505  0.1591
 5497TIP3    H137906   0.350   4.522  17.044  0.9668 -0.9752  1.3307
 5497TIP3    H237907   0.447   4.454  16.950 -0.4287  0.1638 -1.0356
 5498TIP3   OH237908   2.548   6.470  15.779 -0.3025 -0.1294  0.5445
 5498TIP3    H137909   2.465   6.516  15.768 -0.3501 -0.1296  0.9096
 5498TIP3    H237910   2.603   6.505  15.709 -0.1788  0.8385  1.1038
 5499TIP3   OH237911   5.862   5.987   5.101 -0.2415  0.2889  0.0060
 5499TIP3    H137912   5.844   6.048   5.173 -0.8066 -0.3896  0.4486
 5499TIP3    H237913   5.860   5.900   5.141 -0.0350 -0.0654 -0.7296
 5500TIP3   OH237914   5.900   0.607   4.737 -0.5795 -0.2537  0.4284
 5500TIP3    H137915   5.875   0.697   4.755  1.6115  0.7052 -0.9586
 5500TIP3    H237916   5.897   0.564   4.823  0.6011  1.7427  1.5448
 5501TIP3   OH237917   3.589   2.966   5.869 -0.2770 -0.3420 -0.2174
 5501TIP3    H137918   3.619   3.057   5.868 -2.5109  0.4503 -0.9972
 5501TIP3    H237919   3.554   2.951   5.780 -1.4736 -1.3841  0.3924
 5502TIP3   OH237920   5.378   1.687  12.722  0.3324 -0.4336  0.4496
 5502TIP3    H137921   5.297   1.729  12.692  1.2917 -0.1667 -1.9354
 5502TIP3    H237922   5.412   1.745  12.789 -0.1788  0.7542 -0.2970
 5503TIP3   OH237923   3.071   0.666  11.299 -0.3955 -0.2467 -0.3066
 5503TIP3    H137924   3.040   0.741  11.349 -0.2788  0.5330 -1.3685
 5503TIP3    H237925   3.120   0.614  11.362 -0.1603  0.7573  0.3658
 5504TIP3   OH237926   5.446   4.313  15.174  0.1921  0.0421 -0.3168
 5504TIP3    H137927   5.524   4.352  15.136  0.7381  1.0369  1.6624
 5504TIP3    H237928   5.474   4.284  15.261 -0.7856 -2.8005 -0.8645
 5505TIP3   OH237929   2.094   0.404  12.306 -0.5374  0.2035  0.5689
 5505TIP3    H137930   2.143   0.321  12.309 -0.2843  0.3789  2.3924
 5505TIP3    H237931   2.071   0.421  12.398 -2.1507  1.2440  0.0027
 5506TIP3   OH237932   0.156   4.023  10.753 -0.1149 -0.4273  0.1007
 5506TIP3    H137933   0.215   3.981  10.691 -1.2219  0.0684 -1.3375
 5506TIP3    H237934   0.214   4.072  10.812  1.0007 -1.4614 -0.1044
 5507TIP3   OH237935   6.283   2.751  13.635 -0.8192  0.4748 -0.0229
 5507TIP3    H137936   6.215   2.739  13.570 -0.4812  0.8433 -0.4502
 5507TIP3    H237937   6.275   2.843  13.661 -0.3890  0.5603 -0.1873
 5508TIP3   OH237938   0.758   2.897   5.159  0.7390  0.2230 -0.1073
 5508TIP3    H137939   0.820   2.826   5.177  1.4337  0.9489  0.4538
 5508TIP3    H237940   0.792   2.971   5.209 -1.4095  0.2524  1.3977
 5509TIP3   OH237941   0.464   0.060   5.177  0.2431 -0.1585 -0.2566
 5509TIP3    H137942   0.398   0.128   5.159  0.8476  0.7789  0.8933
 5509TIP3    H237943   0.517   0.056   5.098  0.6272  1.2532 -0.1122
 5510TIP3   OH237944   2.956   2.614   3.846 -0.1148 -0.5831  0.1023
 5510TIP3    H137945   2.935   2.705   3.823 -0.1755 -0.0924  1.8994
 5510TIP3    H237946   3.046   2.618   3.878 -0.4300 -0.9487  1.0896
 5511TIP3   OH237947   4.860   3.268  10.786 -0.5833 -0.8928 -0.2484
 5511TIP3    H137948   4.831   3.178  10.768 -0.1893 -1.0511 -0.1040
 5511TIP3    H237949   4.782   3.312  10.819 -0.7569 -1.2073 -0.2347
 5512TIP3   OH237950   0.751   2.739  14.025 -0.7013 -0.0031 -0.4511
 5512TIP3    H137951   0.837   2.706  14.049 -0.3011  0.9256 -0.5727
 5512TIP3    H237952   0.746   2.826  14.064 -1.7111 -0.1636 -0.1796
 5513TIP3   OH237953   1.253   6.656  14.830 -0.4180 -0.7908 -0.4635
 5513TIP3    H137954   1.276   6.582  14.886  0.0624  0.2222  0.7126
 5513TIP3    H237955   1.336   6.693  14.802 -0.5638  0.8926  1.1350
 5514TIP3   OH237956   1.447   6.694   1.860  0.0652 -0.2754 -0.0757
 5514TIP3    H137957   1.426   6.746   1.782 -0.8792 -1.6078 -0.7548
 5514TIP3    H237958   1.400   6.612   1.847  1.3949 -1.2509  1.0312
 5515TIP3   OH237959   4.809   4.195   2.209  0.5797  0.0445 -0.4902
 5515TIP3    H137960   4.858   4.224   2.132 -0.2478 -0.4320 -1.2129
 5515TIP3    H237961   4.869   4.137   2.255 -0.5130 -3.9406 -3.5255
 5516TIP3   OH237962   5.593   4.461  11.560  0.0920  0.1513  0.2024
 5516TIP3    H137963   5.647   4.528  11.520  0.3657  0.2907  0.7849
 5516TIP3    H237964   5.602   4.385  11.503 -1.2810  0.9816 -1.2100
 5517TIP3   OH237965   4.658   5.742   1.001  0.3922 -0.6814  0.1039
 5517TIP3    H137966   4.645   5.835   1.021  0.7460 -0.7422  0.6266
 5517TIP3    H237967   4.746   5.723   1.035  0.1624 -1.3050  0.3509
 5518TIP3   OH237968   0.027   3.005  15.166 -0.5920 -0.2444  0.0700
 5518TIP3    H137969   0.064   2.917  15.160 -1.1030 -0.4800  0.3369
 5518TIP3    H237970  -0.020   3.016  15.083  1.2374  0.6036 -0.8979
 5519TIP3   OH237971   1.234   3.431  11.972 -0.6261  0.3211  0.1543
 5519TIP3    H137972   1.157   3.462  12.020 -1.3771 -1.1099 -0.0679
 5519TIP3    H237973   1.263   3.507  11.921 -1.8003  0.9329  0.3593
 5520TIP3   OH237974   6.209   2.032  13.432  0.1750 -0.0234 -0.5641
 5520TIP3    H137975   6.163   2.080  13.363 -0.0891 -0.2438 -0.5428
 5520TIP3    H237976   6.267   1.973  13.386  1.0955  0.8761 -0.5888
 5521TIP3   OH237977   2.399   5.680  12.721 -0.3664 -0.4708 -0.3264
 5521TIP3    H137978   2.417   5.756  12.666 -0.6716 -1.8653 -2.4956
 5521TIP3    H237979   2.481   5.663  12.767  0.0326  0.4971 -0.6481
 5522TIP3   OH237980   5.146   5.885  13.616 -0.0029  0.5821  0.5193
 5522TIP3    H137981   5.071   5.833  13.644  0.4050 -1.4525 -1.8642
 5522TIP3    H237982   5.113   5.941  13.547  0.1148  1.7379  1.3715
 5523TIP3   OH237983   1.946   1.612   4.793 -0.4503  0.0854  0.9407
 5523TIP3    H137984   1.865   1.654   4.763 -0.2905  0.1846  0.6418
 5523TIP3    H237985   1.953   1.533   4.740  0.6511  1.0579 -0.4285
 5524TIP3   OH237986   3.539   5.733   6.006  0.1941  0.8994  0.0563
 5524TIP3    H137987   3.478   5.709   6.075 -0.4900  1.5675 -0.3062
 5524TIP3    H237988   3.555   5.826   6.018 -0.4862  1.1855 -1.1022
 5525TIP3   OH237989   5.940   2.125   6.191  0.2189 -0.2886  0.2538
 5525TIP3    H137990   5.998   2.145   6.264  1.5562 -0.9559 -0.5780
 5525TIP3    H237991   5.948   2.030   6.179  0.8375 -0.0694 -1.3832
 5526TIP3   OH237992   0.492   0.031  16.156 -0.1000  0.2065 -0.0165
 5526TIP3    H137993   0.584   0.047  16.139 -0.0682 -0.1208 -0.1686
 5526TIP3    H237994   0.466  -0.034  16.090 -0.8697  1.5420 -1.0696
 5527TIP3   OH237995   4.260   3.336   0.117  0.3358 -0.4549  0.3816
 5527TIP3    H137996   4.203   3.409   0.143  0.0807 -1.1490  1.8264
 5527TIP3    H237997   4.335   3.379   0.074 -0.5053  0.5585 -0.1272
 5528TIP3   OH237998   0.742   5.318  13.048 -0.1691 -0.1452 -0.0327
 5528TIP3    H137999   0.721   5.404  13.010 -1.1040  0.6005  2.0307
 5528TIP3    H238000   0.661   5.268  13.043 -0.3962  0.0681  1.1658
 5529TIP3   OH238001   0.622   2.544   3.157 -0.1248 -0.8249 -0.3631
 5529TIP3    H138002   0.660   2.563   3.072 -0.2555 -0.8843 -0.4346
 5529TIP3    H238003   0.554   2.611   3.169  1.4097  0.6412  0.6965
 5530TIP3   OH238004   0.531   2.812   5.275 -0.6424 -0.2614 -0.2323
 5530TIP3    H138005   0.600   2.843   5.217 -1.5017 -0.5564 -1.4533
 5530TIP3    H238006   0.498   2.733   5.233 -1.9436  0.0585  0.1508
 5531TIP3   OH238007   4.502   2.229   5.511  0.6662 -0.3920  0.1801
 5531TIP3    H138008   4.546   2.147   5.492  1.4993  0.1676 -0.3422
 5531TIP3    H238009   4.558   2.272   5.575  1.2138  0.5945 -0.9363
 5532TIP3   OH238010   3.836   5.106  16.516  0.1809 -0.3605  0.3625
 5532TIP3    H138011   3.923   5.142  16.531 -0.5886  1.7477  0.1202
 5532TIP3    H238012   3.814   5.132  16.426 -0.0865 -2.2828 -0.1824
 5533TIP3   OH238013   1.524   0.972   3.293 -0.4248  0.0206 -0.0412
 5533TIP3    H138014   1.556   0.885   3.270 -1.0536 -0.2036 -0.0936
 5533TIP3    H238015   1.559   1.029   3.225 -1.1691 -0.4226 -0.8132
 5534TIP3   OH238016   6.607   1.162  11.990 -0.8028  0.4186  0.2185
 5534TIP3    H138017   6.552   1.167  12.069  1.2434  0.4432  1.7158
 5534TIP3    H238018   6.595   1.247  11.948 -3.7355 -0.4014 -0.8606
 5535TIP3   OH238019   2.606   3.083  11.492  0.3590  0.5275 -0.5118
 5535TIP3    H138020   2.560   3.141  11.430 -0.6199 -1.2249 -1.5071
 5535TIP3    H238021   2.536   3.034  11.534  1.2186 -1.1532 -0.9643
 5536TIP3   OH238022   4.473   1.517   5.386  0.3119  0.5669 -0.7295
 5536TIP3    H138023   4.477   1.426   5.415 -1.1707  0.7163  0.0558
 5536TIP3    H238024   4.530   1.520   5.310  0.7266 -0.9194 -0.5212
 5537TIP3   OH238025   1.884   5.294   6.108  0.4239 -0.0340  0.5933
 5537TIP3    H138026   1.823   5.356   6.148 -0.7609 -1.2288  0.6958
 5537TIP3    H238027   1.970   5.322   6.140  0.0408  2.0762 -0.0599
 5538TIP3   OH238028   3.583   3.107  14.880 -0.2908  0.0141  0.2553
 5538TIP3    H138029   3.570   3.056  14.960 -0.9785 -1.0682 -0.5223
 5538TIP3    H238030   3.498   3.147  14.863 -1.0553 -2.1365 -1.4910
 5539TIP3   OH238031   0.933   1.618  15.171 -0.0247  0.2813  0.2911
 5539TIP3    H138032   1.010   1.670  15.192 -1.0456  1.5203  1.1889
 5539TIP3    H238033   0.943   1.596  15.079  1.2258  0.6968  0.3084
 5540TIP3   OH238034   1.994   1.114  11.451  0.4165 -0.1090  0.3990
 5540TIP3    H138035   1.922   1.173  11.473 -0.1944  0.6327 -3.0308
 5540TIP3    H238036   1.959   1.027  11.468 -0.6141  0.3149  0.5506
 5541TIP3   OH238037   0.056   1.157   1.402 -0.6381 -0.1206 -0.1702
 5541TIP3    H138038   0.044   1.250   1.418 -1.6678 -0.5041  1.6211
 5541TIP3    H238039   0.115   1.128   1.471  0.0613 -0.7192 -1.0036
 5542TIP3   OH238040   4.921   2.167  15.331 -0.0534 -0.1006 -0.3370
 5542TIP3    H138041   4.993   2.230  15.324 -1.2798  1.5868  1.2271
 5542TIP3    H238042   4.897   2.148  15.240  1.2695  0.5895 -0.8569
 5543TIP3   OH238043   2.977   4.656  16.850  0.5532  0.0215 -0.0638
 5543TIP3    H138044   2.918   4.588  16.818  0.4785  0.9023 -1.9381
 5543TIP3    H238045   2.993   4.712  16.774  1.9735  1.1278  0.9806
 5544TIP3   OH238046   3.533   1.581  16.735  0.8379 -0.1772  0.5062
 5544TIP3    H138047   3.550   1.543  16.649  2.0097  0.4248  0.4469
 5544TIP3    H238048   3.473   1.520  16.777 -1.0743  0.3232 -1.3249
 5545TIP3   OH238049   0.956   1.103  11.607 -0.0691 -0.0758  0.2733
 5545TIP3    H138050   0.863   1.124  11.616 -0.2925 -0.5080 -0.9276
 5545TIP3    H238051   0.993   1.128  11.692 -0.7114  2.9589 -0.2017
 5546TIP3   OH238052   0.349   5.999  16.772  0.0547  0.2632  0.5302
 5546TIP3    H138053   0.390   6.077  16.810  0.2825  0.2019  0.4111
 5546TIP3    H238054   0.413   5.967  16.710 -0.3652  0.4317  0.0002
 5547TIP3   OH238055   5.177   0.301   2.971  0.2749  0.4504 -0.1236
 5547TIP3    H138056   5.149   0.351   3.047 -0.0441 -0.1029  0.1291
 5547TIP3    H238057   5.122   0.334   2.900 -0.4156 -0.0087  0.1866
 5548TIP3   OH238058   6.478   2.977   3.331 -0.7190  0.0014 -0.5326
 5548TIP3    H138059   6.392   2.945   3.357 -0.3323  0.6443  1.7804
 5548TIP3    H238060   6.481   3.067   3.363  1.4818 -0.6149  1.2287
 5549TIP3   OH238061   0.031   3.181  10.549  0.1659  0.6567 -0.0447
 5549TIP3    H138062   0.012   3.267  10.514 -0.4410  0.4264 -0.2854
 5549TIP3    H238063  -0.026   3.172  10.625 -1.1389 -0.2396 -1.0750
 5550TIP3   OH238064   0.569   1.677  14.811  0.0283  0.5224 -0.4370
 5550TIP3    H138065   0.646   1.716  14.853 -0.3862 -0.6449  1.5091
 5550TIP3    H238066   0.501   1.680  14.877 -0.4948 -1.9226 -0.7568
 5551TIP3   OH238067   3.126   6.412  15.200 -0.2182 -0.0302  0.4055
 5551TIP3    H138068   3.158   6.379  15.116  0.8787  0.6020  0.5538
 5551TIP3    H238069   3.185   6.374  15.265  0.9422  1.9393  0.6005
 5552TIP3   OH238070   0.583   1.103   4.351  0.1595 -0.8599 -0.3034
 5552TIP3    H138071   0.536   1.068   4.427  1.1310 -1.0342  0.2287
 5552TIP3    H238072   0.654   1.041   4.335  0.2983 -0.5316 -1.0151
 5553TIP3   OH238073   2.914   5.222   5.832  0.0871 -0.1243  0.1438
 5553TIP3    H138074   2.932   5.283   5.761 -0.5096  0.6759  0.6610
 5553TIP3    H238075   2.847   5.163   5.796 -2.5597  2.1862  0.9805
 5554TIP3   OH238076   5.849   4.056   3.596 -0.1355 -0.2625  0.1356
 5554TIP3    H138077   5.937   4.022   3.613  0.2157  0.4554 -0.2417
 5554TIP3    H238078   5.796   3.978   3.582  0.9063 -0.6632 -1.9425
 5555TIP3   OH238079   3.701   0.971   4.144 -0.1801 -0.1758  0.3523
 5555TIP3    H138080   3.778   1.028   4.136  0.7372 -1.1388  1.8411
 5555TIP3    H238081   3.629   1.023   4.108  0.6750  1.8169  1.3510
 5556TIP3   OH238082   2.334   4.808  16.853  0.3883 -0.0015 -0.1696
 5556TIP3    H138083   2.429   4.821  16.855  0.3240  0.5310 -0.3440
 5556TIP3    H238084   2.298   4.897  16.855 -0.1185 -0.2143  0.4348
 5557TIP3   OH238085   2.308   2.237  11.169  0.1730 -0.5520 -0.4708
 5557TIP3    H138086   2.397   2.205  11.182 -0.0601 -1.0628 -0.0976
 5557TIP3    H238087   2.292   2.224  11.075  1.5333  2.3087 -1.2130
 5558TIP3   OH238088   5.578   1.189  11.381  0.3069  0.6170  0.5091
 5558TIP3    H138089   5.544   1.265  11.429  1.4119 -0.0431  2.4787
 5558TIP3    H238090   5.543   1.114  11.429  1.5914 -0.0767  0.3899
 5559TIP3   OH238091   2.618   2.873   3.039  0.2248 -0.2213  0.7115
 5559TIP3    H138092   2.580   2.939   2.980  0.2315 -0.5328  0.3566
 5559TIP3    H238093   2.640   2.922   3.118 -0.9361 -0.0397  0.9394
 5560TIP3   OH238094   0.395   0.997   0.846 -0.0840  0.4351  0.2040
 5560TIP3    H138095   0.444   0.936   0.901  0.5526  1.0249  0.3063
 5560TIP3    H238096   0.331   1.037   0.905  0.9132  1.4157  0.6425
 5561TIP3   OH238097   5.788   3.277  11.772  0.1179  0.9849  0.3938
 5561TIP3    H138098   5.812   3.348  11.711  0.4682 -0.4789 -1.2672
 5561TIP3    H238099   5.719   3.229  11.726  1.5036 -1.1121  0.4015
 5562TIP3   OH238100   2.755   3.008  15.246 -0.4422 -0.1500 -0.3046
 5562TIP3    H138101   2.814   2.947  15.202 -1.0521  0.7521 -2.5328
 5562TIP3    H238102   2.751   2.977  15.336  0.0653 -2.7807 -1.0977
 5563TIP3   OH238103   6.254   4.258   4.255 -0.1841 -0.7264  0.2464
 5563TIP3    H138104   6.313   4.312   4.307  2.2700 -1.8893 -1.1623
 5563TIP3    H238105   6.258   4.296   4.167 -3.1081  0.3138  0.4451
 5564TIP3   OH238106   6.497   4.792   4.574 -1.0123  0.3488 -0.2602
 5564TIP3    H138107   6.552   4.767   4.500  0.0681 -1.2837  1.0244
 5564TIP3    H238108   6.410   4.804   4.536 -0.1952  1.1050 -2.0280
 5565TIP3   OH238109   6.446   5.720   0.958 -0.5018  0.1982  0.1990
 5565TIP3    H138110   6.519   5.733   1.018 -0.9408  1.5741  0.4677
 5565TIP3    H238111   6.473   5.645   0.904  1.8198  1.5852 -0.7460
 5566TIP3   OH238112   1.407   2.122   2.767 -0.7471  0.3336  0.0689
 5566TIP3    H138113   1.391   2.036   2.729 -0.7993  0.3998 -0.0582
 5566TIP3    H238114   1.405   2.182   2.693  0.8991  0.2471 -0.0789
 5567TIP3   OH238115   4.356   1.870  11.417  0.1198 -0.0951 -0.2131
 5567TIP3    H138116   4.395   1.804  11.475  1.6609  2.5073  1.9751
 5567TIP3    H238117   4.308   1.928  11.476 -1.1143  0.8216 -2.0399
 5568TIP3   OH238118   2.165   0.282   3.059  0.6558  0.1437 -0.0314
 5568TIP3    H138119   2.253   0.281   3.019  0.0418 -1.0739 -1.4347
 5568TIP3    H238120   2.111   0.329   2.995 -0.2586 -1.4422 -0.4652
 5569TIP3   OH238121   0.539   4.061  16.157 -0.3256  0.1753 -0.1036
 5569TIP3    H138122   0.577   3.975  16.137 -0.2034  0.2026  0.0114
 5569TIP3    H238123   0.603   4.103  16.214 -0.1040  0.5753 -0.6337
 5570TIP3   OH238124   3.365   1.491   2.170 -0.2212  0.5031 -0.2392
 5570TIP3    H138125   3.280   1.471   2.132  0.2081 -0.5330 -0.6783
 5570TIP3    H238126   3.402   1.558   2.113  0.9916 -1.9598 -2.5725
 5571TIP3   OH238127   3.423   4.825   4.449  0.0667 -0.6234 -0.3853
 5571TIP3    H138128   3.341   4.777   4.444 -0.2428 -0.1104 -0.2752
 5571TIP3    H238129   3.490   4.757   4.456 -0.1214 -1.1446 -2.9400
 5572TIP3   OH238130   5.714   6.411  12.358  0.1605  0.1267  0.0516
 5572TIP3    H138131   5.776   6.339  12.366  0.6474  0.7435  2.4131
 5572TIP3    H238132   5.710   6.450  12.445 -1.9304  1.4587 -0.5588
 5573TIP3   OH238133   3.276   6.624  16.058 -0.1698 -0.4605  0.2565
 5573TIP3    H138134   3.329   6.685  16.110 -0.4306 -0.6230  0.7248
 5573TIP3    H238135   3.211   6.680  16.016 -1.1018 -0.5157  1.5566
 5574TIP3   OH238136   5.398   4.627   4.541 -0.7737 -0.2870 -1.0263
 5574TIP3    H138137   5.438   4.544   4.568 -0.9652 -0.2362 -0.5918
 5574TIP3    H238138   5.371   4.668   4.622 -1.2441 -0.0785 -1.2858
 5575TIP3   OH238139   0.241   5.687  14.358 -0.4922  0.0885  0.3339
 5575TIP3    H138140   0.255   5.593  14.373  0.9010  0.2544  0.1867
 5575TIP3    H238141   0.189   5.691  14.278 -2.1428 -0.5932  1.3096
 5576TIP3   OH238142   5.446   6.594  14.494  0.2496  0.5091 -0.2615
 5576TIP3    H138143   5.517   6.659  14.486  0.5441  0.6029  2.2879
 5576TIP3    H238144   5.487   6.511  14.470  1.6303  0.3899  2.1261
 5577TIP3   OH238145   4.429   1.278  13.036 -0.6111  0.4797 -0.3877
 5577TIP3    H138146   4.521   1.257  13.017 -0.1742 -0.1882  2.1257
 5577TIP3    H238147   4.434   1.351  13.097 -1.9354  2.9122 -2.9513
 5578TIP3   OH238148   6.305   2.904   0.849  0.2414  0.6807  0.4275
 5578TIP3    H138149   6.364   2.857   0.907 -0.1492 -1.6099 -0.8903
 5578TIP3    H238150   6.230   2.927   0.903  0.0192 -1.1274  0.9517
 5579TIP3   OH238151   4.928   5.548  12.425 -0.0346  0.6229  0.4899
 5579TIP3    H138152   5.023   5.539  12.429 -0.1503 -0.2839  2.2938
 5579TIP3    H238153   4.911   5.639  12.449  0.3206  0.2297  2.3870
 5580TIP3   OH238154   5.117   5.387   0.901 -0.0854  0.2002 -0.3016
 5580TIP3    H138155   5.147   5.472   0.933  0.6452 -0.7445  1.6798
 5580TIP3    H238156   5.082   5.405   0.814 -2.7286  3.0825  1.1768
 5581TIP3   OH238157   6.221   6.591   6.525  0.2920  1.5134 -0.0833
 5581TIP3    H138158   6.310   6.612   6.556  0.0679  1.8090  0.3685
 5581TIP3    H238159   6.225   6.498   6.504  0.4960  1.3433  0.6884
 5582TIP3   OH238160   1.451   6.413  11.818  0.3271  0.3369 -0.5405
 5582TIP3    H138161   1.408   6.379  11.739 -1.3547 -0.4826  0.6625
 5582TIP3    H238162   1.388   6.397  11.888  2.2099  0.0665  1.1700
 5583TIP3   OH238163   0.600   0.360   3.512  0.2289 -0.8761  0.1322
 5583TIP3    H138164   0.518   0.316   3.492 -0.4619  0.7564 -0.9096
 5583TIP3    H238165   0.646   0.363   3.428  0.5704 -0.2836  0.3322
 5584TIP3   OH238166   4.439   3.308   5.329 -0.4333 -0.2905 -0.4397
 5584TIP3    H138167   4.453   3.236   5.392  0.1229  0.0984 -0.1012
 5584TIP3    H238168   4.465   3.271   5.245  0.8950 -0.1844 -0.1089
 5585TIP3   OH238169   1.967   5.380  11.825 -0.3246 -0.3802 -0.2957
 5585TIP3    H138170   1.932   5.292  11.840 -0.2605 -0.6772 -1.7859
 5585TIP3    H238171   2.061   5.367  11.813 -0.4000 -0.1942 -1.1383
 5586TIP3   OH238172   4.331   5.818   6.149  0.2856  0.2055 -0.4365
 5586TIP3    H138173   4.236   5.805   6.148  0.4713 -1.6376  0.8337
 5586TIP3    H238174   4.342   5.911   6.128 -1.8637  0.7769  0.6156
 5587TIP3   OH238175   4.609   3.492  13.732  0.0315 -0.3776 -0.3211
 5587TIP3    H138176   4.668   3.549  13.683  0.4671 -0.6008 -0.0639
 5587TIP3    H238177   4.570   3.550  13.798  0.4252 -0.3526 -0.1023
 5588TIP3   OH238178   4.021   6.516  15.803 -0.0340 -0.4712 -0.0920
 5588TIP3    H138179   3.934   6.491  15.833 -0.9221  1.4537 -0.8741
 5588TIP3    H238180   4.051   6.580  15.867  0.7189 -0.9563  0.0460
 5589TIP3   OH238181   1.749   0.788   4.980  0.3178 -0.2633  0.0274
 5589TIP3    H138182   1.702   0.848   5.039 -0.6589 -0.7279 -0.2623
 5589TIP3    H238183   1.784   0.720   5.037  1.5487  0.6150  0.3793
 5590TIP3   OH238184   5.379   1.982  12.161  0.2324  0.7141  0.2354
 5590TIP3    H138185   5.347   2.071  12.146 -0.9864  0.1697 -0.4925
 5590TIP3    H238186   5.443   1.968  12.091 -0.0532  0.7975 -0.0476
 5591TIP3   OH238187   0.858   1.032   7.008  1.0480 -0.4798 -0.3297
 5591TIP3    H138188   0.808   1.113   6.996 -0.3361 -1.3813 -1.0093
 5591TIP3    H238189   0.894   1.012   6.921 -0.7824 -1.8934 -0.8365
 5592TIP3   OH238190   1.954   4.061   3.419 -0.3680 -0.1159  0.0327
 5592TIP3    H138191   1.888   4.074   3.350 -0.3816 -0.1266  0.0435
 5592TIP3    H238192   2.019   4.129   3.404 -1.4831  1.3355  1.3351
 5593TIP3   OH238193   6.266   3.386   3.025 -0.0947  0.1988 -0.2684
 5593TIP3    H138194   6.282   3.463   3.079 -0.6839  0.0483  0.1243
 5593TIP3    H238195   6.218   3.418   2.950  2.0896  0.6920 -1.5571
 5594TIP3   OH238196   4.324   0.989   1.503  0.0485  0.0611  0.3466
 5594TIP3    H138197   4.296   0.990   1.594  1.0282 -3.0194  0.7980
 5594TIP3    H238198   4.262   0.931   1.459 -0.5075  1.6185 -1.0597
 5595TIP3   OH238199   5.652   3.115   4.229 -0.6379  0.3522  0.0757
 5595TIP3    H138200   5.705   3.075   4.298 -2.0701  1.9505  2.2040
 5595TIP3    H238201   5.708   3.113   4.152  2.0227  0.7412  1.8689
 5596TIP3   OH238202   1.833   2.889  12.308  0.7027 -0.0282  0.7784
 5596TIP3    H138203   1.812   2.982  12.303  2.3030  0.3053 -0.7328
 5596TIP3    H238204   1.912   2.879  12.255 -1.0292 -2.7067 -1.6143
 5597TIP3   OH238205   3.754   1.314   4.888  0.1548  0.7200 -0.5651
 5597TIP3    H138206   3.728   1.309   4.796 -0.3078 -0.5698 -0.3946
 5597TIP3    H238207   3.722   1.399   4.918 -1.6336  0.2535 -1.0407
 5598TIP3   OH238208   3.541   2.757   3.873 -0.0505 -1.2024 -0.5655
 5598TIP3    H138209   3.509   2.815   3.803  1.2280  0.8910  0.4946
 5598TIP3    H238210   3.492   2.783   3.950 -0.4016 -2.4980 -0.3241
 5599TIP3   OH238211   0.007   6.261  14.952 -0.3467 -0.3586 -0.1136
 5599TIP3    H138212   0.058   6.187  14.920 -0.9637 -1.4733  1.3769
 5599TIP3    H238213  -0.071   6.263  14.896 -0.3489 -0.8627 -0.1293
 5600TIP3   OH238214   5.658   1.432   2.348  0.6532  0.8406 -0.0484
 5600TIP3    H138215   5.667   1.488   2.271  1.1803  0.9640  0.1002
 5600TIP3    H238216   5.571   1.392   2.339 -0.2888  2.6595  0.5033
 5601TIP3   OH238217   4.318   4.848   1.355 -0.3848  0.3837  0.0014
 5601TIP3    H138218   4.398   4.893   1.327 -0.9893  1.2223 -0.4252
 5601TIP3    H238219   4.276   4.909   1.415 -0.9454  0.1570 -0.1518
 5602TIP3   OH238220   1.245   3.975   3.822 -0.0008 -0.4466  0.2391
 5602TIP3    H138221   1.156   3.946   3.838 -1.1051  2.1802 -0.5041
 5602TIP3    H238222   1.235   4.059   3.777  2.8686 -1.1928 -2.0848
 5603TIP3   OH238223   5.684   6.015  11.339  0.1847 -0.0682  0.1483
 5603TIP3    H138224   5.670   5.921  11.349 -0.6458 -0.0694 -0.8487
 5603TIP3    H238225   5.766   6.032  11.385  1.6184 -1.7160 -1.6200
 5604TIP3   OH238226   1.970   1.617   1.720 -0.1342 -0.1380  0.7147
 5604TIP3    H138227   2.025   1.544   1.748  0.5931 -0.5436 -1.5718
 5604TIP3    H238228   2.025   1.695   1.731 -0.1787 -0.1741  1.2159
 5605TIP3   OH238229   1.862   1.718  17.201  0.6906  0.2613  0.4078
 5605TIP3    H138230   1.835   1.762  17.120  1.4444  0.0051  0.0098
 5605TIP3    H238231   1.782   1.675  17.232  0.5216 -0.1290 -0.5233
 5606TIP3   OH238232   2.544   5.783  16.975  0.4934 -0.9717  0.0826
 5606TIP3    H138233   2.450   5.769  16.960  0.3910 -0.6866  0.4439
 5606TIP3    H238234   2.551   5.875  17.001  1.3224  0.2024 -3.6984
 5607TIP3   OH238235   6.394   0.704   3.451 -0.0081 -0.0213  0.4301
 5607TIP3    H138236   6.373   0.714   3.544 -1.5731 -1.5131  0.2849
 5607TIP3    H238237   6.311   0.721   3.406  0.4641 -0.4193 -0.6167
 5608TIP3   OH238238   5.920   6.124   5.951  0.2306  0.4614  0.0119
 5608TIP3    H138239   5.900   6.111   5.859 -0.5009 -0.1403  0.2458
 5608TIP3    H238240   5.853   6.074   5.998  0.3304  1.1080  0.8757
 5609TIP3   OH238241   6.694   2.274   5.544  0.3877  0.2679 -0.0801
 5609TIP3    H138242   6.702   2.355   5.494 -0.3554  0.8740  0.7470
 5609TIP3    H238243   6.601   2.252   5.540  0.5778 -0.5434 -0.2848
 5610TIP3   OH238244   3.975   3.596   1.882 -0.2410 -0.3267  0.0979
 5610TIP3    H138245   4.007   3.635   1.963  2.1906 -0.5818 -0.6546
 5610TIP3    H238246   3.994   3.661   1.815 -2.6764  0.0918 -0.2763
 5611TIP3   OH238247   4.940   1.775  11.592 -0.1183 -0.2800 -0.1619
 5611TIP3    H138248   4.845   1.765  11.599 -0.1096 -0.4222 -0.2554
 5611TIP3    H238249   4.953   1.827  11.513 -0.1950  0.9787  0.6294
 5612TIP3   OH238250   5.018   6.184  13.039 -0.2822  0.1009 -0.1367
 5612TIP3    H138251   4.951   6.226  13.093 -1.3377  2.4842 -2.9952
 5612TIP3    H238252   4.973   6.109  13.001 -0.2921 -0.1730  0.4056
 5613TIP3   OH238253   6.332   3.940  13.122  0.3939  0.3123  0.2993
 5613TIP3    H138254   6.348   3.922  13.029  1.2964  1.0116  0.3037
 5613TIP3    H238255   6.281   4.021  13.121 -1.4931 -0.8207  0.3616
 5614TIP3   OH238256   0.078   6.455  15.753 -0.1849 -0.2224  0.1493
 5614TIP3    H138257   0.136   6.511  15.805 -0.2829 -0.8226  0.9297
 5614TIP3    H238258   0.083   6.490  15.664  1.8064 -0.5917  0.0756
 5615TIP3   OH238259   3.834   6.464  12.030 -0.0223 -0.0883 -0.2303
 5615TIP3    H138260   3.879   6.548  12.038  0.1273 -0.1723 -0.1828
 5615TIP3    H238261   3.901   6.404  11.998 -0.3646  0.0202 -1.1661
 5616TIP3   OH238262   3.240   2.022  11.540  0.4712 -0.6611  0.1198
 5616TIP3    H138263   3.214   2.103  11.582  1.0779 -0.0972 -0.5671
 5616TIP3    H238264   3.167   1.962  11.557 -1.8480  1.1246 -2.5954
 5617TIP3   OH238265   5.829   3.138  14.578  0.3468  0.1103 -0.1052
 5617TIP3    H138266   5.822   3.220  14.530 -1.2014  0.2376  0.2817
 5617TIP3    H238267   5.839   3.164  14.669 -1.3617 -0.0965  0.1671
 5618TIP3   OH238268   2.604   1.922  14.683 -0.0700 -0.7861  0.7517
 5618TIP3    H138269   2.687   1.954  14.719  0.2039 -0.6566  0.0142
 5618TIP3    H238270   2.597   1.965  14.598 -2.3774  1.6659  2.0241
 5619TIP3   OH238271   2.769   2.067  15.673  0.4964 -0.6238  0.1579
 5619TIP3    H138272   2.710   2.136  15.643  0.0152 -1.9838 -2.2644
 5619TIP3    H238273   2.824   2.110  15.739 -0.7204  1.6571 -0.1910
 5620TIP3   OH238274   2.817   3.569   6.262 -0.2159 -0.2233 -0.2324
 5620TIP3    H138275   2.730   3.555   6.225  0.4065 -0.7675 -1.5630
 5620TIP3    H238276   2.870   3.497   6.226  0.6627 -0.2178  0.9815
 5621TIP3   OH238277   0.138   4.121   6.185  0.7749 -0.6717 -0.4212
 5621TIP3    H138278   0.063   4.166   6.145  1.1442 -0.3108 -0.7270
 5621TIP3    H238279   0.172   4.184   6.249  0.2657 -1.1995  0.3793
 5622TIP3   OH238280   1.946   2.137  11.103  0.0151  0.0389  0.8251
 5622TIP3    H138281   1.943   2.226  11.068  0.9478  1.2720  3.5587
 5622TIP3    H238282   1.877   2.136  11.170 -0.6132 -1.6414  0.1944
 5623TIP3   OH238283   3.592   4.332   1.077  0.4552 -0.1196 -0.3046
 5623TIP3    H138284   3.525   4.309   1.142 -0.4963  0.3795 -1.0940
 5623TIP3    H238285   3.597   4.428   1.081  0.2101 -0.0677 -1.1378
 5624TIP3   OH238286   3.703   3.131   3.923  0.1650 -0.0423  0.4814
 5624TIP3    H138287   3.794   3.142   3.897 -0.2705  0.4089 -0.9671
 5624TIP3    H238288   3.701   3.152   4.016  1.8247 -1.7198  0.9627
 5625TIP3   OH238289   3.102   0.710   3.165  0.3961  0.3801  0.0207
 5625TIP3    H138290   3.155   0.724   3.244  1.3461  0.1110 -0.5481
 5625TIP3    H238291   3.020   0.673   3.198  1.7966 -2.4361  0.7282
 5626TIP3   OH238292   1.100   1.505  12.484 -0.5653  0.1611  0.2799
 5626TIP3    H138293   1.141   1.546  12.408 -0.6477 -0.3303 -0.0306
 5626TIP3    H238294   1.155   1.430  12.504  0.5196  1.2818  1.8387
 5627TIP3   OH238295   0.080   3.595  14.936  0.2544 -0.3542 -0.2930
 5627TIP3    H138296   0.114   3.511  14.905  0.1956 -0.6976  0.5733
 5627TIP3    H238297   0.034   3.631  14.860  1.0642 -0.6738 -0.9512
 5628TIP3   OH238298   6.555   1.869  12.063  0.0385 -1.1621  0.1225
 5628TIP3    H138299   6.589   1.781  12.081  3.6482 -0.7344 -3.2311
 5628TIP3    H238300   6.575   1.919  12.142  0.3016 -2.7616  1.1208
 5629TIP3   OH238301   4.128   4.679   5.634  0.3631 -0.3440  0.3934
 5629TIP3    H138302   4.091   4.597   5.664 -0.2262 -0.7251 -1.2469
 5629TIP3    H238303   4.096   4.689   5.544  0.4656  1.6453  0.5140
 5630TIP3   OH238304   3.168   2.590  14.298 -0.3956 -0.1993  0.0083
 5630TIP3    H138305   3.181   2.565  14.389 -1.6260 -0.0215  0.2583
 5630TIP3    H238306   3.206   2.677  14.291  2.2894 -1.3144 -0.4124
 5631TIP3   OH238307   4.957   5.603  12.725  0.4975 -0.5525 -0.0975
 5631TIP3    H138308   4.879   5.553  12.701 -0.2667  1.3902 -1.9814
 5631TIP3    H238309   5.021   5.581  12.657 -0.2550  1.8109 -1.6788
 5632TIP3   OH238310   0.056   2.190   1.205  0.3823 -0.1207 -0.3092
 5632TIP3    H138311   0.015   2.134   1.139 -0.7416 -0.1833  0.3968
 5632TIP3    H238312   0.147   2.162   1.207  0.3289 -0.4412 -1.4842
 5633TIP3   OH238313   2.928   0.738  17.039 -0.7387 -0.2695  0.2849
 5633TIP3    H138314   2.911   0.675  17.108 -0.6816 -1.6153 -0.8920
 5633TIP3    H238315   3.015   0.714  17.005 -0.1748  1.1930  0.5882
 5634TIP3   OH238316   6.646   4.617   4.991 -0.4931 -0.1812  0.2908
 5634TIP3    H138317   6.610   4.528   4.987 -1.7836  0.3430 -0.8607
 5634TIP3    H238318   6.674   4.635   4.901  0.8257  0.1922  0.7430
 5635TIP3   OH238319   3.996   3.482   2.425  0.4655 -0.0135  0.3771
 5635TIP3    H138320   3.981   3.512   2.336 -0.0052 -1.3692 -0.0384
 5635TIP3    H238321   3.908   3.474   2.462  0.4055 -2.4077 -0.1099
 5636TIP3   OH238322   1.528   4.521  11.315 -0.2087 -0.4644  0.1200
 5636TIP3    H138323   1.505   4.531  11.407 -0.7118  2.3657 -0.2236
 5636TIP3    H238324   1.567   4.605  11.290 -2.2265 -0.2335 -2.8016
 5637TIP3   OH238325   3.022   2.876   5.461  0.3053  0.6206  0.9813
 5637TIP3    H138326   2.976   2.948   5.419  0.6506 -0.4767 -1.4203
 5637TIP3    H238327   3.094   2.855   5.402  0.3153 -1.5810  1.6722
 5638TIP3   OH238328   6.718   5.243  14.533  0.4830 -0.3250  0.0577
 5638TIP3    H138329   6.745   5.240  14.442  0.1111 -1.7208 -0.0244
 5638TIP3    H238330   6.783   5.300  14.576  1.5368 -0.8739 -0.7742
 5639TIP3   OH238331   4.444   5.424   3.818 -0.1633  0.4000  0.2072
 5639TIP3    H138332   4.484   5.375   3.891 -0.6427  2.0701  1.6688
 5639TIP3    H238333   4.378   5.366   3.783  1.6949 -1.3951 -0.5259
 5640TIP3   OH238334   4.885   4.160   3.693 -0.2227 -0.2965  0.2174
 5640TIP3    H138335   4.946   4.088   3.678  0.1119 -0.1503  0.8703
 5640TIP3    H238336   4.803   4.116   3.718  0.1095 -0.4529  1.0820
 5641TIP3   OH238337   1.352   3.154  11.447  0.6660  0.1288  0.4055
 5641TIP3    H138338   1.368   3.110  11.530  1.2778 -2.5391 -1.0098
 5641TIP3    H238339   1.257   3.151  11.435  0.7932 -2.3794 -0.3846
 5642TIP3   OH238340   5.901   5.417   3.631  0.7268  0.1657 -0.1003
 5642TIP3    H138341   5.859   5.487   3.681  0.7919  0.7270 -0.8066
 5642TIP3    H238342   5.984   5.402   3.676 -0.3991 -1.3292  1.6294
 5643TIP3   OH238343   3.181   4.023  15.891 -0.1767 -0.0145  0.1717
 5643TIP3    H138344   3.221   4.016  15.978  1.2859 -1.4527 -0.5495
 5643TIP3    H238345   3.152   3.934  15.871 -0.1050  0.2099 -0.9783
 5644TIP3   OH238346   1.308   6.036   5.931 -0.5760 -0.2674  0.0597
 5644TIP3    H138347   1.230   6.055   5.983 -0.1831 -0.0341  0.5765
 5644TIP3    H238348   1.289   6.073   5.845 -0.9984 -0.1349  0.2075
 5645TIP3   OH238349   0.438   2.254   3.748 -0.7334 -0.1660 -0.3262
 5645TIP3    H138350   0.407   2.296   3.828  0.2964 -1.0666  0.5691
 5645TIP3    H238351   0.529   2.231   3.766 -0.9741 -1.9367 -1.1020
 5646TIP3   OH238352   1.057   2.027  12.831  0.4883  0.4356 -0.1919
 5646TIP3    H138353   1.100   1.956  12.785  0.5949 -0.6211  1.4523
 5646TIP3    H238354   0.979   1.988  12.870 -0.5115  1.6853 -0.8524
 5647TIP3   OH238355   0.037   3.401   0.515 -0.3131  0.7747  0.6387
 5647TIP3    H138356   0.039   3.371   0.606 -0.8710 -0.6759  0.2052
 5647TIP3    H238357   0.003   3.326   0.466 -0.5239  1.7118 -0.7016
 5648TIP3   OH238358   2.182   3.623  11.657  0.3600 -0.6396  0.7328
 5648TIP3    H138359   2.119   3.672  11.709 -1.3641 -1.0878 -0.8021
 5648TIP3    H238360   2.133   3.598  11.578  2.0708 -2.1854  0.0873
 5649TIP3   OH238361   0.673   4.542   5.956 -0.4288 -0.4445 -0.1141
 5649TIP3    H138362   0.645   4.506   6.040 -0.5703  0.0438  0.0541
 5649TIP3    H238363   0.754   4.589   5.975 -0.6736  0.0107 -0.1628
 5650TIP3   OH238364   6.415   6.219  15.828 -0.0640  0.1533  0.0291
 5650TIP3    H138365   6.465   6.144  15.796 -0.4612  0.4513 -1.3868
 5650TIP3    H238366   6.458   6.295  15.789 -0.3939  0.5701  0.4562
 5651TIP3   OH238367   2.736   4.462   6.453 -0.1062 -0.0170  0.1342
 5651TIP3    H138368   2.697   4.397   6.511 -0.8244 -0.3802 -0.7393
 5651TIP3    H238369   2.665   4.523   6.434  0.1245  0.0953 -0.3680
 5652TIP3   OH238370   4.998   1.356  11.850  0.0652 -0.2517 -0.1370
 5652TIP3    H138371   5.075   1.327  11.898 -0.7071 -1.1425  0.6153
 5652TIP3    H238372   5.029   1.429  11.796  1.1485  0.2395  1.1011
 5653TIP3   OH238373   4.782   1.664  10.736  0.3017  0.3113  0.3840
 5653TIP3    H138374   4.861   1.717  10.720  0.4405 -0.2074 -0.7603
 5653TIP3    H238375   4.714   1.729  10.754  1.3133  0.7328  3.2238
 5654TIP3   OH238376   5.957   1.501  10.959 -0.0186 -0.3545 -0.4120
 5654TIP3    H138377   6.038   1.505  11.011 -1.6590 -0.0870  2.3160
 5654TIP3    H238378   5.951   1.409  10.931  0.9281 -0.5011 -0.1725
 5655TIP3   OH238379   0.704   6.306  14.311  0.2111  0.7405 -0.2109
 5655TIP3    H138380   0.755   6.308  14.230 -0.1312 -0.5163 -0.4863
 5655TIP3    H238381   0.613   6.304  14.282  0.0076  2.3100  0.2633
 5656TIP3   OH238382   4.561   6.149  10.848 -0.4403  0.1120  0.3832
 5656TIP3    H138383   4.584   6.106  10.766 -0.4388 -0.2739  0.5772
 5656TIP3    H238384   4.641   6.144  10.901 -0.5120  0.1337  0.4958
 5657TIP3   OH238385   2.506   2.370  12.545 -0.0665 -0.2863 -0.1545
 5657TIP3    H138386   2.428   2.424  12.532 -0.1364 -0.2540  0.3468
 5657TIP3    H238387   2.543   2.359  12.458  0.2304  0.9895 -0.1979
 5658TIP3   OH238388   0.259   2.441  13.503  0.5231  0.0859 -0.5143
 5658TIP3    H138389   0.180   2.475  13.544  1.4731 -0.2120  1.6724
 5658TIP3    H238390   0.254   2.473  13.412 -2.0957  0.0011 -0.4663
 5659TIP3   OH238391   3.598   0.470  15.413  0.7169  0.6596 -0.3799
 5659TIP3    H138392   3.555   0.385  15.419  0.6227  0.7070 -0.3817
 5659TIP3    H238393   3.547   0.527  15.470  0.7315  0.7357 -0.4421
 5660TIP3   OH238394   1.304   4.800  16.547 -0.1690 -0.2151  0.6359
 5660TIP3    H138395   1.355   4.878  16.529  0.8725 -0.4343  2.3740
 5660TIP3    H238396   1.360   4.727  16.520 -0.7077 -0.4074 -0.0039
 5661TIP3   OH238397   4.009   5.275   3.312  1.0334  0.0019  0.0627
 5661TIP3    H138398   3.920   5.249   3.287  1.2082  0.0826 -0.6844
 5661TIP3    H238399   4.017   5.365   3.280  1.0455  0.3540  1.0295
 5662TIP3   OH238400   2.013   5.784  11.581  0.4774 -0.5634 -0.2385
 5662TIP3    H138401   1.990   5.745  11.496 -2.9230  1.4171 -0.3748
 5662TIP3    H238402   2.066   5.860  11.558  0.5384 -0.6805 -0.4987
 5663TIP3   OH238403   2.096   1.334   2.605 -0.0608  0.3166  0.0225
 5663TIP3    H138404   2.092   1.430   2.601 -0.2724  0.3843  1.4961
 5663TIP3    H238405   2.004   1.306   2.601  0.0152  0.1422 -0.7323
 5664TIP3   OH238406   2.182   1.078   0.497 -0.0416  0.3270  0.1949
 5664TIP3    H138407   2.238   1.013   0.540 -1.0655 -1.9297 -1.6909
 5664TIP3    H238408   2.200   1.067   0.404 -0.9957  2.0959 -0.2380
 5665TIP3   OH238409   4.863   4.235   0.896  0.2222 -0.3693 -0.1035
 5665TIP3    H138410   4.803   4.308   0.883 -0.7436 -0.7376  1.8424
 5665TIP3    H238411   4.847   4.176   0.823 -3.9700 -1.8493  1.7240
 5666TIP3   OH238412   5.909   4.967   0.129 -0.3409 -0.0323 -0.1177
 5666TIP3    H138413   5.929   4.889   0.078 -0.4206  0.7346 -1.3623
 5666TIP3    H238414   5.931   4.943   0.219  1.1488 -0.9655 -0.6949
 5667TIP3   OH238415   5.750   5.966  14.687  0.3130  0.5841 -0.2885
 5667TIP3    H138416   5.807   6.003  14.619  0.1822  0.6833 -0.3433
 5667TIP3    H238417   5.767   6.022  14.764  0.9674  0.0624 -0.0397
 5668TIP3   OH238418   4.978   5.569   6.516  0.0644 -0.3640  0.4440
 5668TIP3    H138419   5.058   5.566   6.568  2.5141 -0.9946 -2.9812
 5668TIP3    H238420   4.935   5.485   6.533  2.9321 -2.4015 -1.3921
 5669TIP3   OH238421   0.961   6.042   5.753 -0.1531  0.2159 -0.6163
 5669TIP3    H138422   0.912   6.054   5.672 -0.1530 -0.0146 -0.6508
 5669TIP3    H238423   0.895   6.029   5.821 -0.2245 -4.4878 -1.2817
 5670TIP3   OH238424   3.925   5.550   5.972  0.0788  0.1326  0.0127
 5670TIP3    H138425   3.992   5.597   5.922  0.8966  0.2175  1.1442
 5670TIP3    H238426   3.901   5.611   6.042 -0.1941 -0.4296  0.4125
 5671TIP3   OH238427   1.575   2.527  12.932  0.3063  0.5067 -0.7466
 5671TIP3    H138428   1.559   2.563  13.019 -0.7685 -1.7095  0.0579
 5671TIP3    H238429   1.488   2.506  12.898  0.8485 -2.7336 -0.4423
 5672TIP3   OH238430   1.101   2.973  13.132  0.0343 -0.4317  0.1630
 5672TIP3    H138431   1.189   2.980  13.168 -0.0757  0.1614  0.3311
 5672TIP3    H238432   1.111   2.916  13.056  0.1337 -2.3477  1.5306
 5673TIP3   OH238433   6.329   3.851   0.735  0.4288  0.0334 -0.3122
 5673TIP3    H138434   6.401   3.851   0.672  1.1930  0.9347  0.5350
 5673TIP3    H238435   6.265   3.912   0.699  0.4785 -0.0876 -0.6123
 5674TIP3   OH238436   1.958   6.734  15.023  0.4164 -0.4467 -0.0052
 5674TIP3    H138437   1.969   6.679  15.101 -0.3128  1.4167  1.4841
 5674TIP3    H238438   2.040   6.782  15.015 -0.7755  2.1249  1.9437
 5675TIP3   OH238439   0.578   0.894   3.474 -0.3445  0.1338  0.5378
 5675TIP3    H138440   0.569   0.799   3.480 -1.0843  0.2312  1.0190
 5675TIP3    H238441   0.668   0.907   3.442  0.0608 -0.6995  1.3068
 5676TIP3   OH238442   1.956   5.551  13.315 -0.3047 -0.0421  0.0640
 5676TIP3    H138443   1.933   5.509  13.397 -0.2383 -0.9176 -0.3494
 5676TIP3    H238444   2.049   5.531  13.304 -0.4550 -0.4477 -0.5111
 5677TIP3   OH238445   3.630   4.452   5.128  0.1905 -0.5915 -0.3444
 5677TIP3    H138446   3.563   4.519   5.137  0.6923  0.0944 -1.5151
 5677TIP3    H238447   3.582   4.370   5.125 -0.3316 -0.8665  5.0744
 5678TIP3   OH238448   0.548   2.752  15.864  0.3220  0.4823  0.1261
 5678TIP3    H138449   0.480   2.706  15.912  0.0997  0.3736 -0.2816
 5678TIP3    H238450   0.546   2.841  15.897 -1.2667  0.9704 -1.1335
 5679TIP3   OH238451   2.068   4.917   2.283  0.1129  0.5369  0.5939
 5679TIP3    H138452   2.054   5.000   2.237 -1.8697  0.5928  1.2050
 5679TIP3    H238453   2.056   4.850   2.216  3.6062  0.6508 -0.3692
 5680TIP3   OH238454   1.066   4.515   6.833  0.4332  0.3831 -0.2881
 5680TIP3    H138455   0.975   4.517   6.805 -0.4132  0.4658  2.2161
 5680TIP3    H238456   1.116   4.537   6.754 -1.6365 -0.3316 -1.8805
 5681TIP3   OH238457   0.989   0.649   1.983 -0.6246  0.0588  0.5400
 5681TIP3    H138458   1.071   0.656   1.935 -0.1181  1.0417  1.4950
 5681TIP3    H238459   0.946   0.733   1.969 -1.6381 -0.5575 -0.2078
 5682TIP3   OH238460   4.157   1.176  11.237 -0.5940 -0.3722 -0.0230
 5682TIP3    H138461   4.173   1.138  11.151  1.2810 -1.4379  0.7122
 5682TIP3    H238462   4.234   1.231  11.253 -0.7334 -0.4869  1.1077
 5683TIP3   OH238463   3.888   2.035   0.181  0.5250  0.2312 -0.9064
 5683TIP3    H138464   3.835   2.107   0.215  0.1855 -1.1853  1.8590
 5683TIP3    H238465   3.826   1.966   0.161  1.0789 -0.4051 -0.4714
 5684TIP3   OH238466   2.814   4.840  15.979 -0.6592 -0.5910  0.5561
 5684TIP3    H138467   2.892   4.882  16.016  0.1662 -0.7895 -0.8636
 5684TIP3    H238468   2.848   4.762  15.935 -1.8848 -1.5558  1.2737
 5685TIP3   OH238469   6.033   0.966  13.881 -0.2381 -0.0216 -0.1832
 5685TIP3    H138470   6.062   0.912  13.954 -2.0046 -0.7080  0.0612
 5685TIP3    H238471   6.012   1.051  13.922 -1.2137 -0.4008  0.1319
 5686TIP3   OH238472   0.454   6.262   2.494 -0.1801 -0.4436 -0.6015
 5686TIP3    H138473   0.376   6.284   2.546  0.2234  1.7180 -0.8170
 5686TIP3    H238474   0.528   6.291   2.547  0.3394 -0.1302 -1.4730
 5687TIP3   OH238475   1.794   2.345   6.111  0.3248 -0.0934  0.3141
 5687TIP3    H138476   1.722   2.340   6.048  0.7970  0.6052 -0.3062
 5687TIP3    H238477   1.825   2.435   6.104  2.6383 -0.9142 -1.0286
 5688TIP3   OH238478   3.379   6.426  11.647 -0.0625  0.2912  0.4437
 5688TIP3    H138479   3.446   6.434  11.714  0.1394  0.1284  0.2619
 5688TIP3    H238480   3.424   6.390  11.571 -0.4905 -0.4902  0.5426
 5689TIP3   OH238481   2.309   3.870   6.436  0.4128  0.3060 -0.2797
 5689TIP3    H138482   2.392   3.878   6.389  1.1078 -0.4727  0.7797
 5689TIP3    H238483   2.315   3.934   6.507  0.4142 -0.2373  0.2206
 5690TIP3   OH238484   6.371   0.738   3.123 -0.3158  0.2721 -0.2617
 5690TIP3    H138485   6.298   0.690   3.083  0.5138 -1.0354 -0.2589
 5690TIP3    H238486   6.410   0.675   3.184  1.7697  0.3947 -1.3989
 5691TIP3   OH238487   6.490   2.994   4.355 -0.0278  0.1381  0.2074
 5691TIP3    H138488   6.536   2.981   4.437 -0.4234  0.9083  0.5621
 5691TIP3    H238489   6.450   2.910   4.336 -2.8712  0.7734  2.6378
 5692TIP3   OH238490   2.299   3.975   1.836  0.3890 -0.1695  0.2686
 5692TIP3    H138491   2.301   3.961   1.742  0.6163 -0.1710  0.2724
 5692TIP3    H238492   2.209   4.001   1.855  0.4844  0.4004 -0.0327
 5693TIP3   OH238493   2.318   6.716  15.183  0.2156  0.5413  0.2171
 5693TIP3    H138494   2.380   6.660  15.136  0.5485  0.9572  0.1621
 5693TIP3    H238495   2.246   6.657  15.205  1.0644 -0.1762  1.1391
 5694TIP3   OH238496   1.701   1.184   4.966  0.4924  0.4214 -0.0558
 5694TIP3    H138497   1.682   1.116   5.030 -0.6016  1.0888  0.3643
 5694TIP3    H238498   1.705   1.138   4.882 -0.2422 -0.1580  0.2178
 5695TIP3   OH238499   3.545   0.549  13.985  0.2356  0.5491  0.0913
 5695TIP3    H138500   3.606   0.587  14.049  1.3463  0.1169 -0.6633
 5695TIP3    H238501   3.553   0.454  13.999 -0.1554  0.4839 -0.1262
 5696TIP3   OH238502   2.779   2.707  16.416  0.1382 -0.1571  0.6713
 5696TIP3    H138503   2.689   2.724  16.388  0.5853 -0.2143 -0.9304
 5696TIP3    H238504   2.821   2.793  16.414 -0.0656  0.0067  2.2472
 5697TIP3   OH238505   1.532   3.209   2.469  0.2931  0.0544 -0.0583
 5697TIP3    H138506   1.620   3.204   2.432  0.5286 -0.4036  0.5480
 5697TIP3    H238507   1.519   3.125   2.512  0.5683  1.0334  2.0848
 5698TIP3   OH238508   1.724   0.713   3.494  0.3244 -0.2276  0.0335
 5698TIP3    H138509   1.675   0.708   3.412 -0.6203 -1.5381  0.6456
 5698TIP3    H238510   1.814   0.731   3.467 -0.4254  2.2142 -1.1240
 5699TIP3   OH238511   4.004   0.790   2.439 -0.4583 -0.1622 -0.5075
 5699TIP3    H138512   3.942   0.733   2.393 -0.4937 -0.0487 -0.6004
 5699TIP3    H238513   3.950   0.843   2.497 -0.5429  0.5567 -1.2308
 5700TIP3   OH238514   3.155   1.561   3.921  0.6682 -0.7005 -0.3029
 5700TIP3    H138515   3.101   1.638   3.938 -0.6486 -1.4725 -0.8630
 5700TIP3    H238516   3.228   1.569   3.982 -0.4344  0.0275  0.9597
 5701TIP3   OH238517   3.740   4.597   0.184  0.0715 -0.3690 -0.3046
 5701TIP3    H138518   3.775   4.558   0.104  0.4111 -2.2379  0.6891
 5701TIP3    H238519   3.817   4.628   0.232  0.2584 -2.5036  0.8846
 5702TIP3   OH238520   2.835   6.071   4.248  0.3812  0.6413 -0.3095
 5702TIP3    H138521   2.909   6.065   4.308  1.9903  2.7407 -1.9117
 5702TIP3    H238522   2.759   6.080   4.304  0.8953 -3.6481  1.4799
 5703TIP3   OH238523   5.417   4.976   6.035 -0.2193  0.0224  0.1457
 5703TIP3    H138524   5.455   4.967   6.123 -2.5631  1.1320  1.3690
 5703TIP3    H238525   5.492   4.981   5.977  1.4255 -0.6077  2.0946
 5704TIP3   OH238526   2.053   1.462  16.801  0.0054  0.4048 -0.2260
 5704TIP3    H138527   2.071   1.484  16.892  1.6415 -1.2675 -0.0854
 5704TIP3    H238528   2.118   1.512  16.751  1.1535 -1.0027 -0.2005
 5705TIP3   OH238529   4.394   0.529   5.196 -0.6538 -0.3270 -0.1624
 5705TIP3    H138530   4.443   0.501   5.119  0.0390 -1.4037  0.6296
 5705TIP3    H238531   4.310   0.483   5.188 -0.4857 -0.6415 -0.1575
 5706TIP3   OH238532   6.238   1.235   2.569  0.2600 -0.5578 -0.4744
 5706TIP3    H138533   6.249   1.140   2.578 -2.3888 -0.7677  2.3838
 5706TIP3    H238534   6.143   1.247   2.563  0.2248  1.9831  2.4914
 5707TIP3   OH238535   1.812   2.759  14.639 -0.4780  0.1201  0.3990
 5707TIP3    H138536   1.790   2.836  14.691  0.6558  1.3768 -0.9079
 5707TIP3    H238537   1.786   2.782  14.550 -1.6168 -1.6579  0.2198
 5708TIP3   OH238538   6.734   4.294   0.809  0.1382  0.5027 -0.2035
 5708TIP3    H138539   6.826   4.285   0.783 -0.9299  0.2859 -4.7061
 5708TIP3    H238540   6.705   4.375   0.768 -1.5998  0.9718  1.7347
 5709TIP3   OH238541   4.147   1.550   1.663 -0.2389  0.1479  0.0267
 5709TIP3    H138542   4.222   1.583   1.614 -0.3930  0.8512  0.2475
 5709TIP3    H238543   4.071   1.586   1.617 -0.4990 -1.4434 -0.8353
 5710TIP3   OH238544   1.300   2.651   2.926 -0.6519 -0.1903 -0.6337
 5710TIP3    H138545   1.246   2.647   3.005  0.3766  0.3146  0.1087
 5710TIP3    H238546   1.387   2.675   2.957  0.2528 -1.9085 -1.7048
 5711TIP3   OH238547   5.564   2.862   3.945  0.8518  0.1284  0.0585
 5711TIP3    H138548   5.572   2.767   3.936  0.5621  0.2904 -3.3307
 5711TIP3    H238549   5.478   2.882   3.908  1.0244  1.7673  0.4700
 5712TIP3   OH238550   0.632   2.683  11.744 -0.5505  0.4239  0.4157
 5712TIP3    H138551   0.592   2.597  11.757 -2.9774  1.4628  0.3781
 5712TIP3    H238552   0.645   2.689  11.650 -2.1393  0.7852  0.1968
 5713TIP3   OH238553   1.338   3.940   1.253  0.0953 -0.3171  0.3333
 5713TIP3    H138554   1.279   3.873   1.218 -1.5883  1.4146 -0.3277
 5713TIP3    H238555   1.279   4.008   1.286  1.7074  1.8120 -0.9305
 5714TIP3   OH238556   0.670   6.751  11.082  0.9629  0.0902 -0.6739
 5714TIP3    H138557   0.665   6.717  10.993  0.8264  1.2784 -1.1382
 5714TIP3    H238558   0.764   6.763  11.097  1.2259 -2.4473  0.3023
 5715TIP3   OH238559   2.243   5.623   0.645 -0.0538  0.6882  0.0212
 5715TIP3    H138560   2.302   5.597   0.575  1.8483 -0.2545  1.8891
 5715TIP3    H238561   2.188   5.546   0.661  0.4160  0.4362  0.4412
 5716TIP3   OH238562   5.862   6.191   0.258  0.7859  0.2955  0.5490
 5716TIP3    H138563   5.888   6.220   0.171  1.4375  1.1952  1.0272
 5716TIP3    H238564   5.903   6.105   0.268 -0.4358 -0.4515 -0.5448
 5717TIP3   OH238565   3.259   2.398   0.842 -0.3777  0.5257  0.8076
 5717TIP3    H138566   3.224   2.373   0.756  0.6979  5.3707 -1.4089
 5717TIP3    H238567   3.354   2.398   0.830 -0.2518  3.0202  1.2535
 5718TIP3   OH238568   0.159   3.080  12.372  0.2872 -0.0285  1.0937
 5718TIP3    H138569   0.120   3.029  12.442 -0.6152 -0.6967  0.1285
 5718TIP3    H238570   0.186   3.016  12.306  0.2848  0.6384  0.4186
 5719TIP3   OH238571   2.598   2.684  12.552 -0.1331  0.0474 -0.0545
 5719TIP3    H138572   2.685   2.649  12.535 -0.4401 -0.8364  0.1528
 5719TIP3    H238573   2.584   2.671  12.645 -0.2662  0.7124  0.0237
 5720TIP3   OH238574   6.410   6.039   1.623  0.0563  0.4345  0.0981
 5720TIP3    H138575   6.363   5.959   1.645 -0.7805  1.2853  1.5692
 5720TIP3    H238576   6.456   6.063   1.704  0.6377  1.2159 -0.4441
 5721TIP3   OH238577   4.651   3.314  15.539  0.0198 -0.6276 -0.0173
 5721TIP3    H138578   4.622   3.388  15.593 -0.2999 -0.3750 -0.5359
 5721TIP3    H238579   4.575   3.256  15.534 -0.7459  0.4546 -2.1100
 5722TIP3   OH238580   0.828   5.915   2.394  0.6602  0.3931  0.1319
 5722TIP3    H138581   0.776   5.996   2.400  0.4132  0.1703  1.3052
 5722TIP3    H238582   0.797   5.873   2.313 -0.4967  0.6180  0.4300
 5723TIP3   OH238583   0.643   3.713   5.668  0.1861 -0.2633  0.1033
 5723TIP3    H138584   0.655   3.718   5.763 -0.8179 -0.6660  0.2610
 5723TIP3    H238585   0.614   3.624   5.651 -6.2191  1.3213  0.2889
 5724TIP3   OH238586   4.375   1.208  15.704 -0.3800  0.2992  0.3083
 5724TIP3    H138587   4.349   1.127  15.661 -1.2944  1.1548 -0.8354
 5724TIP3    H238588   4.452   1.237  15.656  0.5747 -0.3984  1.3830
 5725TIP3   OH238589   3.949   3.319   1.168  0.3382 -0.0247 -0.5624
 5725TIP3    H138590   3.915   3.343   1.254  0.7388  0.7262 -0.6022
 5725TIP3    H238591   4.012   3.388   1.148  1.6775 -1.2162 -0.6106
 5726TIP3   OH238592   4.766   6.163   1.571 -0.3539 -0.1740  0.3998
 5726TIP3    H138593   4.765   6.250   1.612  1.4572 -1.1823  2.9057
 5726TIP3    H238594   4.770   6.181   1.477 -0.4337  2.4412  0.8027
 5727TIP3   OH238595   3.824   1.518  12.060  0.4057 -0.1895 -0.0564
 5727TIP3    H138596   3.763   1.473  12.002 -2.7893  0.5029  2.4397
 5727TIP3    H238597   3.825   1.465  12.140  0.9906  1.2128  0.9166
 5728TIP3   OH238598   4.370   5.621   2.424  0.2852  0.1807 -0.6242
 5728TIP3    H138599   4.277   5.637   2.407 -0.0015 -0.5164  0.2140
 5728TIP3    H238600   4.406   5.707   2.442 -0.2358  0.4427 -0.8169
 5729TIP3   OH238601   5.517   2.862  14.085 -0.3187  0.0352 -0.7159
 5729TIP3    H138602   5.587   2.922  14.058  0.3409  0.4433  1.6508
 5729TIP3    H238603   5.438   2.898  14.045  0.0878  2.4511  0.4022
 5730TIP3   OH238604   6.703   5.183   4.366  0.2534 -0.0037  0.1696
 5730TIP3    H138605   6.663   5.130   4.296  0.3671 -0.3163  0.3407
 5730TIP3    H238606   6.745   5.119   4.423  0.0756  0.2480  0.5811
 5731TIP3   OH238607   0.280   6.351   2.800  0.3011  0.4629  0.1178
 5731TIP3    H138608   0.191   6.359   2.834  0.2605  0.7935 -0.0626
 5731TIP3    H238609   0.285   6.415   2.729  0.3962 -0.2031 -0.4846
 5732TIP3   OH238610   3.779   6.135   2.144 -0.8754  0.3077 -0.0824
 5732TIP3    H138611   3.704   6.144   2.203 -0.2613 -0.9012  0.9311
 5732TIP3    H238612   3.850   6.180   2.190 -0.1167 -1.5697  0.6669
 5733TIP3   OH238613   2.464   2.952   3.642 -0.5904  0.1523 -0.4876
 5733TIP3    H138614   2.491   2.927   3.554  0.9087  2.2315 -0.6897
 5733TIP3    H238615   2.382   2.999   3.629 -0.8141 -0.2864 -0.6751
 5734TIP3   OH238616   4.671   3.050   1.758 -0.2736 -0.0960 -0.2878
 5734TIP3    H138617   4.659   3.122   1.821 -0.6170  0.3963 -0.9063
 5734TIP3    H238618   4.673   3.093   1.673 -0.0878 -0.7906 -0.6404
 5735TIP3   OH238619   0.626   0.449   5.465  0.3506 -0.2568  0.1780
 5735TIP3    H138620   0.683   0.493   5.529  0.7065  0.2556 -0.4774
 5735TIP3    H238621   0.570   0.519   5.432  0.5061 -0.4256 -0.4375
 5736TIP3   OH238622   1.159   3.433   0.047  0.3723  0.5356 -0.0672
 5736TIP3    H138623   1.181   3.342   0.063 -1.3910  0.0436 -0.2012
 5736TIP3    H238624   1.196   3.453  -0.039  1.6403  0.2789  0.4036
 5737TIP3   OH238625   3.743   1.227  13.425  0.1924  0.2131 -0.6643
 5737TIP3    H138626   3.812   1.290  13.444 -0.8141  1.3499 -0.7042
 5737TIP3    H238627   3.722   1.187  13.509  1.8385 -1.1830 -0.8526
 5738TIP3   OH238628   2.454   5.489   1.492 -0.2497 -0.2669  0.3844
 5738TIP3    H138629   2.366   5.523   1.475 -0.0266 -0.4993 -1.4510
 5738TIP3    H238630   2.483   5.454   1.408  0.4828 -2.8579  1.6237
 5739TIP3   OH238631   3.204   0.355   3.923 -0.4211  0.7878 -0.1923
 5739TIP3    H138632   3.288   0.317   3.950 -0.6970  1.1735  1.2639
 5739TIP3    H238633   3.173   0.298   3.853  2.0479  1.7936 -2.2829
 5740TIP3   OH238634   1.757   5.537  15.977 -0.3588 -0.4080 -0.3072
 5740TIP3    H138635   1.758   5.564  15.886  0.2303 -1.7287 -0.7212
 5740TIP3    H238636   1.716   5.450  15.976 -0.1384 -0.5404  0.6495
 5741TIP3   OH238637   3.090   0.586   1.602 -0.2611 -0.0945 -0.7670
 5741TIP3    H138638   3.114   0.513   1.544  1.2033  0.1482 -0.5137
 5741TIP3    H238639   3.167   0.599   1.657 -0.9130  0.9371 -0.0627
 5742TIP3   OH238640   5.644   5.827   4.325  0.2782 -0.2316  0.4636
 5742TIP3    H138641   5.640   5.732   4.333 -0.4100 -0.3780 -1.2693
 5742TIP3    H238642   5.566   5.850   4.274  0.9924  1.1431 -0.0480
 5743TIP3   OH238643   2.452   4.800  16.244 -0.3661 -0.6113 -0.4211
 5743TIP3    H138644   2.365   4.792  16.204 -0.5552  0.5789 -0.2980
 5743TIP3    H238645   2.497   4.865  16.190  0.5566 -1.4054 -0.6427
 5744TIP3   OH238646   4.077   5.320  14.987 -0.0432  0.7760  0.1136
 5744TIP3    H138647   4.109   5.233  14.967 -0.5446  0.7698 -0.7432
 5744TIP3    H238648   4.118   5.377  14.921 -3.4578  0.4249 -2.6738
 5745TIP3   OH238649   6.631   4.400   6.527 -0.4056  0.2146 -0.4549
 5745TIP3    H138650   6.545   4.442   6.534  0.3014  1.4417  2.3359
 5745TIP3    H238651   6.674   4.447   6.456 -1.8454 -0.1132 -1.5945
 5746TIP3   OH238652   2.565   3.572   2.957  0.6679  0.2370 -0.3679
 5746TIP3    H138653   2.483   3.534   2.924  0.9995 -0.7838 -0.0671
 5746TIP3    H238654   2.564   3.553   3.051  1.1112  0.4682 -0.3129
 5747TIP3   OH238655   0.193   4.521  16.739  0.1211 -0.3065 -0.3919
 5747TIP3    H138656   0.099   4.538  16.734  0.1980  0.5773  0.7625
 5747TIP3    H238657   0.211   4.515  16.833  1.4491  0.9586 -0.5250
 5748TIP3   OH238658   5.468   6.569  16.988  0.0142 -0.2211  0.8236
 5748TIP3    H138659   5.410   6.645  16.997 -0.8648 -0.8457  0.6126
 5748TIP3    H238660   5.555   6.606  16.974 -0.4999  0.7522  0.0999
 5749TIP3   OH238661   2.809   3.233  16.792  0.0008 -0.2832  0.1462
 5749TIP3    H138662   2.824   3.309  16.848  1.7983 -1.4981  1.4152
 5749TIP3    H238663   2.736   3.259  16.735 -0.8689  1.5666  1.9915
 5750TIP3   OH238664   6.744   5.684   5.566  0.1840  0.2532  0.0756
 5750TIP3    H138665   6.731   5.749   5.635  1.2967 -0.3577  0.8878
 5750TIP3    H238666   6.730   5.600   5.609 -1.7834 -0.0642 -1.0915
 5751TIP3   OH238667   4.237   5.359  13.956  0.1260 -0.3349 -0.2058
 5751TIP3    H138668   4.320   5.354  14.003 -0.7553  1.3436  1.7108
 5751TIP3    H238669   4.171   5.371  14.025 -1.5954 -0.6611 -1.7220
 5752TIP3   OH238670   0.673   1.304   3.311  0.2425  0.0413 -0.1078
 5752TIP3    H138671   0.591   1.255   3.313  0.2787 -0.0008  0.4278
 5752TIP3    H238672   0.649   1.389   3.272 -0.3962  0.6228  1.4713
 5753TIP3   OH238673   3.635   4.243   3.654  0.5137  0.3613 -0.4466
 5753TIP3    H138674   3.623   4.320   3.599 -1.5903  1.3758  1.2828
 5753TIP3    H238675   3.655   4.278   3.741 -1.9583 -0.8882  0.7373
 5754TIP3   OH238676   6.584   4.275   2.530 -0.2837 -0.5192 -0.1263
 5754TIP3    H138677   6.522   4.242   2.464 -0.4538 -1.9383  0.7107
 5754TIP3    H238678   6.532   4.280   2.610  0.3386 -0.3215  0.2637
 5755TIP3   OH238679   4.605   2.614  11.845  0.1227  0.3358  0.4840
 5755TIP3    H138680   4.614   2.548  11.913  0.8537 -0.0872 -0.0191
 5755TIP3    H238681   4.655   2.580  11.771 -0.3172  0.9859 -0.1240
 5756TIP3   OH238682   0.410   2.281  16.678 -0.0090  0.1511  0.0960
 5756TIP3    H138683   0.434   2.358  16.627 -0.6272  0.0686 -0.3357
 5756TIP3    H238684   0.486   2.263  16.734  0.6141  0.3262 -0.6927
 5757TIP3   OH238685   1.175   3.848   4.223 -0.0780 -0.1384  0.0772
 5757TIP3    H138686   1.250   3.837   4.282  2.1111 -1.4460 -2.6854
 5757TIP3    H238687   1.138   3.760   4.215 -0.1622 -0.0444 -0.6488
 5758TIP3   OH238688   4.440   5.486   4.070 -0.6674  0.0278 -0.1685
 5758TIP3    H138689   4.421   5.567   4.118 -0.8224  0.5946 -1.1706
 5758TIP3    H238690   4.419   5.506   3.979 -0.4456 -1.0593 -0.4726
 5759TIP3   OH238691   3.037   0.986  14.504 -0.6750  0.0682 -0.1141
 5759TIP3    H138692   3.023   0.925  14.576  0.0318  0.9149  0.7710
 5759TIP3    H238693   2.960   1.044  14.508 -0.5647  0.2039  0.0562
 5760TIP3   OH238694   4.174   3.869  15.258 -0.3966  0.0849  0.0198
 5760TIP3    H138695   4.128   3.799  15.212 -2.2540  1.7821 -0.8873
 5760TIP3    H238696   4.244   3.895  15.198  0.2880 -0.9404  0.3528
 5761TIP3   OH238697   4.503   0.129  15.187 -0.1451 -0.1163  0.0399
 5761TIP3    H138698   4.481   0.221  15.202  1.2797  0.3232 -0.4533
 5761TIP3    H238699   4.531   0.096  15.272 -1.4211 -0.3353  0.3944
 5762TIP3   OH238700   2.362   5.005   4.584 -0.4710 -0.0008 -0.3315
 5762TIP3    H138701   2.369   4.912   4.561 -0.4663 -0.3740  1.0455
 5762TIP3    H238702   2.305   5.005   4.662  0.6346  1.0033  0.5024
 5763TIP3   OH238703   5.919   6.287   0.008  0.1349 -0.4982 -0.6265
 5763TIP3    H138704   5.889   6.311  -0.079  0.7886 -1.8216 -1.2591
 5763TIP3    H238705   6.008   6.253  -0.006  0.1570 -0.9701  0.5088
 5764TIP3   OH238706   1.901   0.160   2.402  0.6323 -0.0848  0.3986
 5764TIP3    H138707   1.859   0.220   2.340 -0.0403  0.2325  1.1543
 5764TIP3    H238708   1.964   0.214   2.449  1.0990 -0.3139  0.0508
 5765TIP3   OH238709   3.485   4.133   5.902  0.0256  0.0874 -0.1618
 5765TIP3    H138710   3.518   4.221   5.915 -1.8778  0.7010  0.9533
 5765TIP3    H238711   3.495   4.090   5.988  1.1743 -0.9025 -0.7553
 5766TIP3   OH238712   4.376   1.964   4.214  0.2375 -0.6845  0.0453
 5766TIP3    H138713   4.381   2.017   4.294 -2.2628 -1.0908  0.5583
 5766TIP3    H238714   4.286   1.975   4.183  0.6580 -1.8675 -1.8120
 5767TIP3   OH238715   4.589   3.380   2.725 -0.8146  0.2295 -0.0223
 5767TIP3    H138716   4.503   3.421   2.715 -0.0727  1.6312 -0.8471
 5767TIP3    H238717   4.613   3.354   2.636 -0.5160 -0.4531  0.2531
 5768TIP3   OH238718   5.325   4.644   4.061  0.4030 -0.0997 -0.3551
 5768TIP3    H138719   5.332   4.549   4.073  0.5064  0.0570  0.9650
 5768TIP3    H238720   5.231   4.660   4.058  0.3544 -0.1028  0.8021
 5769TIP3   OH238721   3.484   4.897   1.118 -0.5695  0.2640 -0.3711
 5769TIP3    H138722   3.543   4.883   1.043  0.2574 -0.3998  0.3783
 5769TIP3    H238723   3.543   4.901   1.193 -1.4570  0.1664  0.3334
 5770TIP3   OH238724   1.097   3.640   5.003 -0.0706  0.0793 -0.3593
 5770TIP3    H138725   1.022   3.586   5.029 -1.2144  0.1538 -3.0783
 5770TIP3    H238726   1.076   3.728   5.036 -0.8734 -0.0510 -0.4900
 5771TIP3   OH238727   1.531   3.012   6.161 -0.2902 -0.2128 -0.1303
 5771TIP3    H138728   1.586   2.963   6.222 -0.6022  0.4663  0.7231
 5771TIP3    H238729   1.442   2.998   6.193 -0.3509  1.2996  0.4471
 5772TIP3   OH238730   0.418   5.821   5.511 -0.0127  0.8092 -0.4496
 5772TIP3    H138731   0.370   5.850   5.589  0.8429  1.9452 -0.3279
 5772TIP3    H238732   0.353   5.772   5.461 -0.7733  0.6695  0.6310
 5773TIP3   OH238733   5.481   5.029  17.003 -0.6182 -0.2906 -0.2036
 5773TIP3    H138734   5.392   4.996  16.999 -0.6649 -0.0626 -1.2142
 5773TIP3    H238735   5.512   5.028  16.913 -0.4901  2.0172 -0.2561
 5774TIP3   OH238736   3.752   3.081  14.161 -0.9219 -0.1096  0.1727
 5774TIP3    H138737   3.751   3.110  14.252  0.1061 -1.4446  0.6455
 5774TIP3    H238738   3.777   3.159  14.111 -0.3515  0.3473  1.1502
 5775TIP3   OH238739   6.682   5.854  13.726  0.4178  0.3465  0.2330
 5775TIP3    H138740   6.739   5.880  13.798  1.0877 -0.3996 -0.0051
 5775TIP3    H238741   6.703   5.762  13.711 -0.6982  0.1166 -0.0166
 5776TIP3   OH238742   2.373   0.311   6.051 -0.5766 -0.2381 -0.6110
 5776TIP3    H138743   2.314   0.355   6.112 -1.7051 -2.2928 -0.1199
 5776TIP3    H238744   2.420   0.248   6.105  0.2654 -0.3492 -1.4466
 5777TIP3   OH238745   3.212   3.848  14.694 -0.3264 -0.4159  0.2071
 5777TIP3    H138746   3.219   3.906  14.618  1.5285  1.1823  1.5209
 5777TIP3    H238747   3.302   3.836  14.724 -0.9330 -1.7794  1.6008
 5778TIP3   OH238748   3.216   2.595   6.306 -0.2048  0.1808  0.2478
 5778TIP3    H138749   3.267   2.657   6.358  1.0797 -0.6780  0.0544
 5778TIP3    H238750   3.200   2.641   6.224  1.8046 -0.1520 -0.3796
 5779TIP3   OH238751   2.130   5.146   6.116 -0.3677  0.1444  0.3440
 5779TIP3    H138752   2.047   5.105   6.142 -0.7580  1.3486  1.1308
 5779TIP3    H238753   2.146   5.211   6.185  0.5708  0.7996 -0.4735
 5780TIP3   OH238754   3.123   6.743   3.876 -0.2678 -0.0371  0.3375
 5780TIP3    H138755   3.214   6.761   3.852 -0.3169  2.3715  1.6983
 5780TIP3    H238756   3.078   6.734   3.792  1.5351 -3.8488 -0.4494
 5781TIP3   OH238757   4.778   3.251  15.951  0.4476  0.1658 -0.3044
 5781TIP3    H138758   4.795   3.205  15.869  0.0593  0.1307 -0.3676
 5781TIP3    H238759   4.689   3.226  15.974 -0.0327  1.4275 -0.7021
 5782TIP3   OH238760   0.966   0.157  13.710 -0.4796  0.0096  0.6356
 5782TIP3    H138761   0.958   0.194  13.798  0.2426 -0.0618  0.7394
 5782TIP3    H238762   0.919   0.219  13.654 -2.4595 -0.8299  1.2783
 5783TIP3   OH238763   2.701   0.487   5.350  0.1293 -0.4675  0.0321
 5783TIP3    H138764   2.734   0.544   5.280 -0.8069 -0.0487 -0.0909
 5783TIP3    H238765   2.761   0.502   5.423  0.7928 -0.4881 -0.5074
 5784TIP3   OH238766   6.145   5.852   2.371 -0.4422  0.0660 -0.2328
 5784TIP3    H138767   6.203   5.777   2.358 -1.9549 -0.8347 -2.2802
 5784TIP3    H238768   6.098   5.860   2.288  1.4483  4.9414 -1.1673
 5785TIP3   OH238769   3.421   3.823   6.363  0.4529 -0.0575 -0.1753
 5785TIP3    H138770   3.412   3.738   6.319 -0.5870  0.0312 -0.1533
 5785TIP3    H238771   3.496   3.812   6.421 -0.2517 -1.2750  0.5398
 5786TIP3   OH238772   0.217   1.988   4.621 -0.0887  0.1860 -0.4078
 5786TIP3    H138773   0.225   1.951   4.709 -1.1324 -0.2090 -0.4756
 5786TIP3    H238774   0.164   2.067   4.633 -0.7551 -0.2030 -0.7690
 5787TIP3   OH238775   6.671   6.199  17.308  0.1514 -0.3577  0.0243
 5787TIP3    H138776   6.715   6.176  17.390  1.3361  0.1083 -0.4643
 5787TIP3    H238777   6.641   6.115  17.273 -0.7508 -0.5280  1.1188
 5788TIP3   OH238778   1.117   3.594   2.498 -0.4834 -0.1312 -0.2220
 5788TIP3    H138779   1.172   3.516   2.492  0.5189  0.4733  0.6204
 5788TIP3    H238780   1.027   3.561   2.498 -0.1050 -1.2003 -0.8518
 5789TIP3   OH238781   6.540   2.593  13.481  0.1044 -0.2459 -0.7922
 5789TIP3    H138782   6.528   2.625  13.570 -1.0947 -2.0600 -0.2599
 5789TIP3    H238783   6.559   2.672  13.430 -0.0337  0.9326  0.8974
 5790TIP3   OH238784   0.254   6.381  10.632 -0.3068  0.0912  0.0605
 5790TIP3    H138785   0.216   6.468  10.647  0.8516  0.8956 -1.4102
 5790TIP3    H238786   0.205   6.324  10.691 -1.6740  1.5877  0.4745
 5791TIP3   OH238787   3.394   2.355  11.411 -0.3948  0.0218 -0.5060
 5791TIP3    H138788   3.383   2.408  11.332 -1.0699 -0.8464 -1.0147
 5791TIP3    H238789   3.480   2.314  11.401 -0.0325  0.7326 -0.2891
 5792TIP3   OH238790   3.362   6.027   3.882 -0.0131  0.3018 -0.3962
 5792TIP3    H138791   3.377   6.061   3.970  0.5267  0.5028 -0.5612
 5792TIP3    H238792   3.268   6.038   3.867 -0.2435 -0.4478  0.4448
 5793TIP3   OH238793   0.086   0.413   4.744  0.5043  0.0720 -0.1259
 5793TIP3    H138794   0.119   0.340   4.796 -1.2402 -0.5396  0.1802
 5793TIP3    H238795   0.087   0.379   4.654  0.0147 -0.2202 -0.0253
 5794TIP3   OH238796   3.198   0.058  17.228 -0.0053  0.1704  0.0077
 5794TIP3    H138797   3.266   0.035  17.292  0.2630 -0.1017 -0.3671
 5794TIP3    H238798   3.119   0.017  17.261  0.5047 -1.5148 -0.7443
 5795TIP3   OH238799   6.020   6.028   3.948  0.0085 -0.0240 -0.1580
 5795TIP3    H138800   6.000   6.052   4.038  0.2117 -0.4419  0.0003
 5795TIP3    H238801   5.938   5.992   3.914 -0.3594  1.0776 -0.4651
 5796TIP3   OH238802   6.114   5.119  13.270 -0.1568 -0.3741  0.0203
 5796TIP3    H138803   6.168   5.079  13.202 -0.2520 -1.5446  0.6031
 5796TIP3    H238804   6.150   5.085  13.352 -0.1602  0.8739  0.5504
 5797TIP3   OH238805   4.428   0.663  13.857 -0.5751  0.3410  0.2486
 5797TIP3    H138806   4.373   0.680  13.780 -0.9940  0.1070  0.4922
 5797TIP3    H238807   4.423   0.745  13.908 -0.9232  0.2265  0.4038
 5798TIP3   OH238808   6.753   2.990   0.964  0.0326  0.5143  0.1020
 5798TIP3    H138809   6.704   3.068   0.990 -0.7231  0.1240 -0.0925
 5798TIP3    H238810   6.754   2.935   1.043 -0.5596  0.1725 -0.1222
 5799TIP3   OH238811   6.273   3.290  11.673 -0.7168 -0.0207 -0.2241
 5799TIP3    H138812   6.198   3.257  11.724 -1.4783  0.7674 -0.7995
 5799TIP3    H238813   6.318   3.350  11.732  0.7249 -2.0217  0.8662
 5800TIP3   OH238814   2.750   1.433  11.600 -0.0542 -0.2008 -0.1022
 5800TIP3    H138815   2.667   1.408  11.560 -0.5028 -0.3362  0.8770
 5800TIP3    H238816   2.802   1.470  11.529 -0.6770 -0.7911 -0.8704
 5801TIP3   OH238817   5.199   1.570   4.456  0.2425 -0.2122  1.1182
 5801TIP3    H138818   5.242   1.647   4.420  3.2624 -1.2308  2.1651
 5801TIP3    H238819   5.219   1.500   4.394 -0.5286 -0.6015  1.2955
 5802TIP3   OH238820   2.720   1.492   5.098 -0.1768  0.3596 -0.1647
 5802TIP3    H138821   2.805   1.453   5.120 -0.5667 -2.2110 -2.5915
 5802TIP3    H238822   2.659   1.454   5.160  0.0395  0.1317 -0.0890
 5803TIP3   OH238823   5.471   1.668   2.384 -0.7745  0.3208  0.1959
 5803TIP3    H138824   5.454   1.604   2.316  1.5800 -2.3225  1.8773
 5803TIP3    H238825   5.539   1.725   2.347 -0.7741  0.0058 -0.2903
 5804TIP3   OH238826   6.450   5.474  15.600  0.0534 -0.1303 -0.6296
 5804TIP3    H138827   6.383   5.439  15.658  2.4435 -1.1412  1.7243
 5804TIP3    H238828   6.502   5.533  15.655  0.3965  1.6452 -2.6963
 5805TIP3   OH238829   4.573   1.054   4.672  0.1780 -0.3532  0.0111
 5805TIP3    H138830   4.637   1.122   4.652  1.2784 -1.7630 -1.5486
 5805TIP3    H238831   4.488   1.096   4.663  0.7548  1.8497  3.0778
 5806TIP3   OH238832   1.981   5.947  14.196 -0.2476 -0.1382  0.2561
 5806TIP3    H138833   1.982   5.851  14.185 -0.1604 -0.0903 -0.1721
 5806TIP3    H238834   2.071   5.974  14.176 -0.4393  0.1035 -0.3006
 5807TIP3   OH238835   5.014   0.211   0.643  0.3014  0.0009  0.0271
 5807TIP3    H138836   5.048   0.279   0.701 -1.5938  2.3142 -1.3874
 5807TIP3    H238837   4.920   0.230   0.636 -0.0214 -1.8574 -1.6245
 5808TIP3   OH238838   3.836   6.242  11.403 -0.4300  0.4827  0.3151
 5808TIP3    H138839   3.862   6.304  11.335 -0.3050  0.6593  0.5237
 5808TIP3    H238840   3.890   6.265  11.479 -0.4342  0.1643  0.4153
 5809TIP3   OH238841   5.757   4.947   0.918 -0.1050  0.0267 -0.5181
 5809TIP3    H138842   5.812   4.898   0.979  1.5347  1.7036 -0.5449
 5809TIP3    H238843   5.737   4.885   0.848  0.3179 -1.1366  0.3610
 5810TIP3   OH238844   0.372   4.007  10.244  0.2848  0.0006 -0.6448
 5810TIP3    H138845   0.431   4.010  10.169  2.5362  0.5097  1.0412
 5810TIP3    H238846   0.428   3.978  10.317 -1.8953 -0.8918  0.7735
 5811TIP3   OH238847   5.010   6.674   1.978 -0.3892  0.7693  0.1322
 5811TIP3    H138848   5.098   6.637   1.976 -0.6649  0.0992  0.0692
 5811TIP3    H238849   5.000   6.718   1.894 -0.6539 -0.4655 -0.5147
 5812TIP3   OH238850   4.214   5.846  12.655 -0.2095  0.0869 -0.1470
 5812TIP3    H138851   4.185   5.757  12.632 -0.1072 -0.6455  2.2779
 5812TIP3    H238852   4.138   5.887  12.695 -0.3877  1.3008 -1.6477
 5813TIP3   OH238853   0.911   4.824  12.883 -0.6547 -0.1283 -0.1006
 5813TIP3    H138854   0.957   4.808  12.801  1.4676 -2.1901  1.3413
 5813TIP3    H238855   0.838   4.762  12.882  0.5788 -1.6573  0.3665
 5814TIP3   OH238856   2.149   1.778  16.728 -0.2517 -0.0739 -0.2024
 5814TIP3    H138857   2.188   1.866  16.731  1.9896 -0.8352 -3.0708
 5814TIP3    H238858   2.103   1.775  16.645 -1.2996 -1.2631  0.3968
 5815TIP3   OH238859   3.561   5.049   5.328 -0.3109  0.9112  0.2417
 5815TIP3    H138860   3.499   5.051   5.255 -2.0030 -0.2362  1.5792
 5815TIP3    H238861   3.586   4.957   5.335  3.8391  1.6195 -2.0043
 5816TIP3   OH238862   5.417   0.893  16.724  0.0479  0.7624 -0.2053
 5816TIP3    H138863   5.376   0.970  16.761  0.9308  0.1989  2.0938
 5816TIP3    H238864   5.353   0.823  16.736  0.5498  0.4652  0.7881
 5817TIP3   OH238865   4.587   5.662   3.833  0.0255 -0.9691  0.1798
 5817TIP3    H138866   4.544   5.582   3.805  1.5116 -1.7499  0.0088
 5817TIP3    H238867   4.678   5.636   3.847  0.6921  0.8535 -0.5543
 5818TIP3   OH238868   3.656   0.971   2.496  0.2320  1.0810 -0.3848
 5818TIP3    H138869   3.742   0.966   2.538  0.5471  0.2509 -1.1176
 5818TIP3    H238870   3.674   0.967   2.403 -0.6915 -0.7355 -0.5317
 5819TIP3   OH238871   6.053   4.364   0.750 -0.1715  0.0636 -0.1014
 5819TIP3    H138872   6.072   4.276   0.718  0.2884  0.3933 -0.7598
 5819TIP3    H238873   5.983   4.352   0.815 -1.6052 -0.5683 -1.6935
 5820TIP3   OH238874   0.228   5.596   0.802 -0.4739 -0.1045  0.3401
 5820TIP3    H138875   0.248   5.679   0.845 -0.2673 -0.2759  0.5753
 5820TIP3    H238876   0.137   5.605   0.774  0.0492  0.8784 -1.1759
 5821TIP3   OH238877   4.466   5.385   5.564 -0.1337 -0.1400 -0.6342
 5821TIP3    H138878   4.381   5.408   5.526 -0.3328  0.1424 -0.0384
 5821TIP3    H238879   4.459   5.292   5.585 -0.4479 -0.0278 -0.2189
 5822TIP3   OH238880   3.391   5.286   0.654  0.3962  0.3684 -0.2091
 5822TIP3    H138881   3.438   5.365   0.682 -0.2301  0.9586 -0.7612
 5822TIP3    H238882   3.438   5.214   0.695  2.1770  0.8812 -1.2143
 5823TIP3   OH238883   6.259   5.440   4.565 -0.0274  0.1745 -0.2029
 5823TIP3    H138884   6.168   5.458   4.586 -0.1829 -0.7801 -0.0545
 5823TIP3    H238885   6.308   5.474   4.640 -0.3476 -0.3291  0.2345
 5824TIP3   OH238886   4.601   4.865  14.358 -0.1667  0.4918 -0.0318
 5824TIP3    H138887   4.572   4.956  14.366  1.4722  1.0085  0.5423
 5824TIP3    H238888   4.691   4.872  14.326 -0.1324 -0.9513 -0.3057
 5825TIP3   OH238889   3.092   2.413  11.872  0.3682 -0.0593 -0.3232
 5825TIP3    H138890   3.010   2.378  11.836  0.4194  1.2209 -1.8225
 5825TIP3    H238891   3.112   2.488  11.816  2.2785 -0.0001  0.3665
 5826TIP3   OH238892   1.380   0.283   4.730  0.0322  0.5148  0.1602
 5826TIP3    H138893   1.472   0.266   4.713 -0.2715 -0.7391 -0.3468
 5826TIP3    H238894   1.377   0.309   4.822  0.5314 -2.9915  1.3192
 5827TIP3   OH238895   4.974   2.399   4.346  0.0270 -0.6184 -0.2643
 5827TIP3    H138896   4.923   2.365   4.419  0.5169 -2.6093 -0.7909
 5827TIP3    H238897   4.908   2.439   4.288 -0.7572 -1.7342 -0.1811
 5828TIP3   OH238898   2.583   6.476   4.948 -0.0951 -0.5561  0.4916
 5828TIP3    H138899   2.628   6.452   5.030  0.1747 -1.3998  0.1157
 5828TIP3    H238900   2.535   6.556   4.969  1.2713  0.1586  1.0247
 5829TIP3   OH238901   5.574   5.365   2.322 -0.2449 -0.4518 -0.4584
 5829TIP3    H138902   5.589   5.401   2.410  0.5594  0.7538 -1.0590
 5829TIP3    H238903   5.526   5.434   2.276 -1.7565 -1.5638 -0.6253
 5830TIP3   OH238904   6.178   1.909   0.941  0.4887 -0.1181 -0.0465
 5830TIP3    H138905   6.265   1.927   0.976  0.9530 -2.5178  0.2202
 5830TIP3    H238906   6.128   1.988   0.959  2.2597  0.8333  0.9630
 5831TIP3   OH238907   4.983   4.841  12.173 -0.6355  0.0020  0.3937
 5831TIP3    H138908   5.059   4.891  12.202 -0.0246 -1.6574  1.9108
 5831TIP3    H238909   4.925   4.905  12.132  2.0385  1.1609 -1.8688
 5832TIP3   OH238910   4.226   1.021  15.141 -0.5097  0.2481  0.3272
 5832TIP3    H138911   4.203   1.029  15.049 -0.2997 -1.1947  0.1269
 5832TIP3    H238912   4.299   0.959  15.143 -0.9961 -0.3295  1.5242
 5833TIP3   OH238913   6.472   5.341  14.679  0.2857 -0.2066 -0.2810
 5833TIP3    H138914   6.504   5.359  14.590  0.4756  1.5947  0.1332
 5833TIP3    H238915   6.526   5.268  14.709 -1.4784 -2.6586 -2.5465
 5834TIP3   OH238916   0.844   0.246   2.295  0.4443 -0.3082  0.1073
 5834TIP3    H138917   0.931   0.227   2.330  0.8420 -1.5231 -1.4277
 5834TIP3    H238918   0.798   0.163   2.297 -0.1827  0.0138 -0.4219
 5835TIP3   OH238919   1.169   0.629   2.645 -0.4087 -0.3245 -0.1154
 5835TIP3    H138920   1.153   0.632   2.550  0.2617 -0.3773 -0.2311
 5835TIP3    H238921   1.212   0.545   2.660 -0.4699 -0.2953  0.2322
 5836TIP3   OH238922   0.435   6.072   0.319  0.5184 -0.1096 -0.1302
 5836TIP3    H138923   0.361   6.123   0.285 -0.2117  0.8432  2.6455
 5836TIP3    H238924   0.418   5.982   0.290 -0.8617  0.3663 -0.8849
 5837TIP3   OH238925   2.056   0.187   2.621  0.3380  0.4830 -0.2782
 5837TIP3    H138926   2.046   0.154   2.710  0.2321  0.3231 -0.3507
 5837TIP3    H238927   2.067   0.109   2.567  0.5205  0.5845 -0.3911
 5838TIP3   OH238928   3.020   2.190   0.785 -0.4904  0.4438 -0.0228
 5838TIP3    H138929   3.088   2.122   0.791 -0.9710 -0.1100 -0.7599
 5838TIP3    H238930   3.038   2.235   0.703  1.0145  2.5474  1.3327
 5839TIP3   OH238931   1.165   3.901  11.799 -0.5565  0.2502 -0.4869
 5839TIP3    H138932   1.218   3.821  11.798  0.9473  1.1910 -1.8044
 5839TIP3    H238933   1.155   3.922  11.892 -0.2116 -0.9671 -0.1557
 5840TIP3   OH238934   0.556   5.640   4.156 -0.0355 -1.0441  0.3866
 5840TIP3    H138935   0.576   5.671   4.245 -1.6062 -1.9439  1.0862
 5840TIP3    H238936   0.521   5.716   4.111 -0.2326 -0.8367  0.8840
 5841TIP3   OH238937   1.703   2.754  12.819 -0.1097  0.0927  0.2252
 5841TIP3    H138938   1.663   2.677  12.860 -0.8571 -0.1896 -0.9690
 5841TIP3    H238939   1.757   2.793  12.888 -0.0547 -1.2548  0.9820
 5842TIP3   OH238940   4.546   2.344   0.401 -0.2674  0.1361  0.0943
 5842TIP3    H138941   4.611   2.289   0.357  2.3053  1.7808  1.5319
 5842TIP3    H238942   4.544   2.312   0.491 -0.5656  0.8189  0.3401
 5843TIP3   OH238943   2.056   4.886   4.321  0.4492 -0.1415  0.3688
 5843TIP3    H138944   2.104   4.880   4.239 -0.8293 -1.2842 -0.3353
 5843TIP3    H238945   1.964   4.893   4.294  0.0120 -0.5171  1.6987
 5844TIP3   OH238946   2.243   1.927   5.423 -0.1759  0.8201 -0.4412
 5844TIP3    H138947   2.249   1.896   5.333 -0.9002  0.6431 -0.4401
 5844TIP3    H238948   2.307   1.875   5.471 -2.2703 -1.7494 -0.1688
 5845TIP3   OH238949   6.490   2.185  16.484 -0.4091  0.3241 -0.0738
 5845TIP3    H138950   6.398   2.174  16.458 -0.3035 -4.1209  0.7812
 5845TIP3    H238951   6.494   2.151  16.573  2.1622 -0.2169 -0.3295
 5846TIP3   OH238952   0.325   4.980   5.609 -0.3648  0.4532  0.3425
 5846TIP3    H138953   0.415   5.007   5.592  0.1030  0.1609  2.0946
 5846TIP3    H238954   0.275   5.013   5.534  1.2481  0.2548 -0.8714
 5847TIP3   OH238955   3.937   3.803  16.650  0.6697  0.0660  0.1401
 5847TIP3    H138956   3.862   3.751  16.622  0.9099 -0.2397  0.0679
 5847TIP3    H238957   3.962   3.853  16.572 -1.2414  2.3788  0.8596
 5848TIP3   OH238958   2.662   1.279  15.900  0.0097 -0.6511  0.4711
 5848TIP3    H138959   2.616   1.196  15.908  0.0912 -0.8382 -0.8388
 5848TIP3    H238960   2.668   1.295  15.806  0.3956  0.6173  0.6845
 5849TIP3   OH238961   4.125   2.294   4.575  0.6630  0.2933  0.5512
 5849TIP3    H138962   4.092   2.269   4.489  1.0879  1.1278  0.1302
 5849TIP3    H238963   4.071   2.245   4.637 -0.6285  0.7902 -0.1381
 5850TIP3   OH238964   3.718   0.840  11.809  0.6993 -0.0627 -0.6287
 5850TIP3    H138965   3.747   0.787  11.734  1.1487 -0.1422 -0.4011
 5850TIP3    H238966   3.699   0.776  11.877 -0.1244 -0.0171 -0.8116
 5851TIP3   OH238967   4.321   3.605  15.337  0.4642  0.7185  0.4692
 5851TIP3    H138968   4.400   3.551  15.331  0.6300  0.9865  0.1856
 5851TIP3    H238969   4.353   3.695  15.331  0.2931  0.9012  1.9714
 5852TIP3   OH238970   5.773   4.009  16.217 -0.1740 -0.2594 -0.1787
 5852TIP3    H138971   5.759   3.916  16.233 -1.1308 -0.1534 -0.3522
 5852TIP3    H238972   5.868   4.019  16.214 -0.0528 -1.1021  0.5656
 5853TIP3   OH238973   2.736   0.151  16.383  0.0980 -0.6371 -0.3338
 5853TIP3    H138974   2.689   0.142  16.466  1.4351 -1.1430  0.4013
 5853TIP3    H238975   2.702   0.079  16.329 -0.7072 -0.3674 -0.2041
 5854TIP3   OH238976   6.028   0.443  15.119  0.1469  0.1408 -0.0250
 5854TIP3    H138977   6.102   0.408  15.170 -0.1689 -0.7080 -0.1336
 5854TIP3    H238978   6.068   0.508  15.061  0.5066  1.1793  1.3240
 5855TIP3   OH238979   6.239   1.442   4.206 -0.6281 -0.4654 -0.0313
 5855TIP3    H138980   6.252   1.487   4.123 -1.2569 -0.1501  0.0341
 5855TIP3    H238981   6.246   1.349   4.184 -1.4182 -0.4120 -0.5582
 5856TIP3   OH238982   0.836   4.365   5.644  0.7475  0.5418 -0.5658
 5856TIP3    H138983   0.845   4.354   5.739  0.8176  0.4124 -0.5875
 5856TIP3    H238984   0.747   4.398   5.633 -0.0977 -1.5535 -0.6168
 5857TIP3   OH238985   3.092   3.329  11.404  0.3467 -0.1163 -1.0306
 5857TIP3    H138986   3.117   3.378  11.483 -0.6444 -0.2955 -0.5888
 5857TIP3    H238987   3.022   3.271  11.433 -0.4783  0.2641 -2.1726
 5858TIP3   OH238988   3.168   3.168   2.308 -0.1942  0.8035 -0.1750
 5858TIP3    H138989   3.160   3.095   2.370  0.9724  0.4610 -0.4025
 5858TIP3    H238990   3.136   3.244   2.356 -0.6493  0.2898  0.3506
 5859TIP3   OH238991   3.834   3.252  15.255  0.3015 -0.2789 -0.2893
 5859TIP3    H138992   3.760   3.243  15.314 -0.4118 -1.3156 -1.3018
 5859TIP3    H238993   3.863   3.343  15.267  0.2944 -0.5020  1.7247
 5860TIP3   OH238994   5.153   6.044  14.022  0.1363  0.0860 -0.0010
 5860TIP3    H138995   5.245   6.029  14.002 -0.1746 -0.2130 -1.2809
 5860TIP3    H238996   5.149   6.044  14.118  1.4258 -0.1005  0.0693
 5861TIP3   OH238997   3.793   0.499  13.216  0.5877  0.0291  0.1300
 5861TIP3    H138998   3.765   0.517  13.306 -1.1397  0.6687 -0.4935
 5861TIP3    H238999   3.721   0.531  13.162  1.7905  0.0659 -1.5164
 5862TIP3   OH239000   4.544   0.976  12.481  0.0150 -0.2915 -0.3502
 5862TIP3    H139001   4.558   1.043  12.549 -1.3010 -0.7535  0.4202
 5862TIP3    H239002   4.504   0.903  12.528 -0.4686 -0.8161 -1.5506
 5863TIP3   OH239003   5.208   3.304   0.618 -0.2134  0.0289  0.1712
 5863TIP3    H139004   5.119   3.322   0.647 -0.5020  0.6072 -1.0141
 5863TIP3    H239005   5.206   3.212   0.591 -0.3214 -0.0928  0.5821
 5864TIP3   OH239006   1.255   5.942   3.901 -0.0864 -0.2058  0.0937
 5864TIP3    H139007   1.202   5.898   3.834 -0.1033 -0.0390 -0.0039
 5864TIP3    H239008   1.247   6.035   3.880 -1.2301 -0.0371  1.1468
 5865TIP3   OH239009   5.285   3.545  13.624  0.4035  0.8299  0.4826
 5865TIP3    H139010   5.196   3.538  13.660  0.6839 -2.2511  0.8373
 5865TIP3    H239011   5.286   3.630  13.581 -2.0445  1.8676  2.2127
 5866TIP3   OH239012   0.436   1.993   2.208 -0.2303  0.4968 -0.1611
 5866TIP3    H139013   0.475   2.064   2.257  0.2810 -0.2214  0.4933
 5866TIP3    H239014   0.444   1.916   2.265 -0.8124 -0.0763 -0.8233
 5867TIP3   OH239015   0.681   5.222  14.982  0.7736  0.2703  0.2409
 5867TIP3    H139016   0.705   5.303  15.028  0.0086  0.7347 -0.1637
 5867TIP3    H239017   0.758   5.166  14.991  1.5612  1.2813 -0.0038
 5868TIP3   OH239018   5.162   1.700  11.914 -0.1502 -0.0068  0.5490
 5868TIP3    H139019   5.186   1.713  12.006  0.6742  3.9699 -0.0882
 5868TIP3    H239020   5.228   1.639  11.880  1.0707  0.4669  1.9836
 5869TIP3   OH239021   1.922   6.357   1.648  0.8609 -0.2555 -0.4132
 5869TIP3    H139022   1.853   6.301   1.685 -0.0593  1.9411  1.4842
 5869TIP3    H239023   1.930   6.328   1.557 -2.5557 -0.6790 -0.7251
 5870TIP3   OH239024   2.048   6.148  11.807  0.8478 -0.1375  0.1006
 5870TIP3    H139025   2.115   6.098  11.853 -0.4333 -0.4514  1.7200
 5870TIP3    H239026   1.982   6.167  11.874 -0.2356  0.9568 -1.2210
 5871TIP3   OH239027   3.934   3.208  15.009  0.1520 -0.2252  0.2296
 5871TIP3    H139028   4.017   3.160  15.011  0.4457  0.2024 -0.9179
 5871TIP3    H239029   3.897   3.196  15.097 -0.2954 -3.4641 -0.2598
 5872TIP3   OH239030   0.320   5.614   3.163  0.1903 -0.4671  0.6793
 5872TIP3    H139031   0.312   5.685   3.100  3.1992  0.1578  0.8457
 5872TIP3    H239032   0.413   5.593   3.165 -0.3753 -3.5237  1.6715
 5873TIP3   OH239033   3.672   6.082   5.869 -0.4948 -0.5814  0.0265
 5873TIP3    H139034   3.686   6.153   5.931  0.7964  0.2365 -1.1457
 5873TIP3    H239035   3.578   6.064   5.873 -0.4666 -0.4807  2.0975
 5874TIP3   OH239036   4.617   2.400   2.100 -0.4971  0.4681  0.0003
 5874TIP3    H139037   4.534   2.360   2.124 -0.5676  1.6864  2.0059
 5874TIP3    H239038   4.629   2.471   2.164  1.7194  0.7902 -0.6946
 5875TIP3   OH239039   6.479   5.775   3.429  0.3116 -0.2362  0.1224
 5875TIP3    H139040   6.559   5.730   3.454  0.8430  0.0434 -0.9969
 5875TIP3    H239041   6.497   5.808   3.341 -1.2699 -0.7524 -0.4302
 5876TIP3   OH239042   1.253   5.988  12.620  0.0338 -1.0037 -0.3686
 5876TIP3    H139043   1.306   5.992  12.540 -0.6085 -0.4376 -0.7816
 5876TIP3    H239044   1.292   6.054  12.678 -0.0152 -0.8157 -0.5466
 5877TIP3   OH239045   1.420   1.323  14.279  0.5188  0.0832  1.5285
 5877TIP3    H139046   1.399   1.397  14.221  0.4990  1.5195  3.2877
 5877TIP3    H239047   1.462   1.259  14.222 -1.4515  0.4710 -0.5265
 5878TIP3   OH239048   3.225   3.285  15.289 -0.3281  0.1033  0.3176
 5878TIP3    H139049   3.212   3.240  15.372  0.1376 -0.1984  0.2303
 5878TIP3    H239050   3.161   3.356  15.290 -0.8575 -0.3720  0.5913
 5879TIP3   OH239051   1.199   0.415   1.813 -0.2091 -0.0447 -0.2324
 5879TIP3    H139052   1.222   0.355   1.742 -0.9442  0.7790 -1.1982
 5879TIP3    H239053   1.117   0.456   1.784 -0.3566  0.5345  0.9516
 5880TIP3   OH239054   5.328   4.434   2.564  0.3671  0.0385 -0.9693
 5880TIP3    H139055   5.405   4.378   2.566 -0.1676 -0.6914 -0.4490
 5880TIP3    H239056   5.254   4.374   2.572 -0.2843  0.6874 -1.9022
 5881TIP3   OH239057   5.289   1.084   1.966  0.1043 -0.5383  0.0713
 5881TIP3    H139058   5.268   1.178   1.962 -0.8256 -0.7621 -0.5803
 5881TIP3    H239059   5.383   1.080   1.949  0.4358  0.3769  1.4853
 5882TIP3   OH239060   4.816   2.083  12.237  0.0074  0.0396  0.6705
 5882TIP3    H139061   4.867   2.015  12.280 -0.6182 -1.0194 -0.2006
 5882TIP3    H239062   4.748   2.106  12.299 -1.4443 -2.1210 -0.0248
 5883TIP3   OH239063   4.518   1.810   5.233 -0.1464  0.0219  0.5136
 5883TIP3    H139064   4.599   1.824   5.281  0.1776  1.4438 -0.4036
 5883TIP3    H239065   4.525   1.721   5.199  0.6679 -0.1422  1.0933
 5884TIP3   OH239066   0.146   2.262   3.090 -0.4437 -0.1409  0.3739
 5884TIP3    H139067   0.053   2.262   3.065  0.1315  1.0383 -2.1467
 5884TIP3    H239068   0.152   2.199   3.162 -3.5106  1.2411  2.0257
 5885TIP3   OH239069   3.149   1.611  13.539  0.0212  0.1237  0.0039
 5885TIP3    H139070   3.110   1.524  13.532 -0.8350  0.4308  0.7630
 5885TIP3    H239071   3.106   1.663  13.472  0.7164 -0.0896 -0.6213
 5886TIP3   OH239072   3.862   6.159   5.296 -0.1859 -0.1518  0.1959
 5886TIP3    H139073   3.825   6.074   5.323 -0.7661  0.8027  2.7179
 5886TIP3    H239074   3.929   6.177   5.362 -0.3990  1.5677 -0.0279
 5887TIP3   OH239075   5.426   5.939   1.126  0.2823 -0.4736 -0.6011
 5887TIP3    H139076   5.409   6.001   1.055  0.7100  0.6993  0.3042
 5887TIP3    H239077   5.517   5.913   1.114  0.3904 -0.1838 -0.4190
 5888TIP3   OH239078   1.214   3.048   5.043 -0.3739 -0.5500 -0.3903
 5888TIP3    H139079   1.242   3.006   5.125  0.2722  0.1517 -0.2439
 5888TIP3    H239080   1.295   3.078   5.003 -0.8795  1.3520 -0.0517
 5889TIP3   OH239081   3.274   2.129  14.504 -0.5240  0.7840  0.2923
 5889TIP3    H139082   3.217   2.104  14.431  0.0650  3.0898 -1.0881
 5889TIP3    H239083   3.360   2.096  14.479 -0.8936 -1.3881  1.6570
 5890TIP3   OH239084   2.330   3.268   0.538  0.1708  0.0890  0.3976
 5890TIP3    H139085   2.423   3.288   0.531  0.6056 -1.4014  1.4834
 5890TIP3    H239086   2.286   3.341   0.492  1.7382  1.8790  1.6083
 5891TIP3   OH239087   5.432   0.730  14.139 -0.2413 -0.1387  0.6614
 5891TIP3    H139088   5.519   0.756  14.169 -0.9470  0.1877  2.5528
 5891TIP3    H239089   5.437   0.634  14.134  0.6391 -0.0407 -0.6714
 5892TIP3   OH239090   2.243   2.501  15.133  0.1822  0.4234 -0.4366
 5892TIP3    H139091   2.198   2.418  15.150 -0.9012  0.5659 -2.2742
 5892TIP3    H239092   2.204   2.563  15.194 -0.6746  0.0791 -0.6225
 5893TIP3   OH239093   4.829   4.181   4.987  0.2234  0.9012  0.2380
 5893TIP3    H139094   4.749   4.172   4.935  1.2728  0.3352 -1.3491
 5893TIP3    H239095   4.813   4.258   5.042 -0.6655  2.0389 -1.4868
 5894TIP3   OH239096   5.366   1.570  12.476 -0.0017  0.3892 -0.4157
 5894TIP3    H139097   5.366   1.655  12.434  1.8850  0.3985 -0.4385
 5894TIP3    H239098   5.354   1.589  12.569  0.3581  0.6782 -0.4286
 5895TIP3   OH239099   5.571   3.883   2.207 -0.1115  0.2194 -0.1288
 5895TIP3    H139100   5.568   3.899   2.113 -0.8351 -2.8960 -0.7684
 5895TIP3    H239101   5.611   3.796   2.214  2.1852  1.3611  2.6421
 5896TIP3   OH239102   5.859   6.619   2.849  0.2562 -0.0381  0.6503
 5896TIP3    H139103   5.809   6.687   2.805  1.3521  1.6654  1.9016
 5896TIP3    H239104   5.911   6.578   2.780 -2.7431 -1.9352 -0.7101
 5897TIP3   OH239105   2.535   0.277   5.443  0.0144  0.2736  0.2482
 5897TIP3    H139106   2.447   0.308   5.465 -0.9490 -0.9127 -1.6520
 5897TIP3    H239107   2.582   0.355   5.415 -1.4469  0.5427 -1.6635
 5898TIP3   OH239108   1.616   2.660  13.920  0.1795 -0.3425  0.3855
 5898TIP3    H139109   1.546   2.649  13.855  0.7895 -0.2268 -0.3021
 5898TIP3    H239110   1.651   2.572  13.932  1.7749 -0.0251 -1.4078
 5899TIP3   OH239111   2.521   2.607   3.116 -0.4045 -0.3233  0.0457
 5899TIP3    H139112   2.561   2.693   3.123  0.9349 -1.0231  1.2929
 5899TIP3    H239113   2.427   2.624   3.119 -0.1461  1.0211  1.2291
 5900TIP3   OH239114   5.028   1.240   1.752  0.4712  0.0818 -0.6775
 5900TIP3    H139115   5.090   1.167   1.753 -0.5155 -0.7859 -0.3524
 5900TIP3    H239116   5.060   1.300   1.820 -0.8933 -2.0000  1.9897
 5901TIP3   OH239117   1.631   5.342   2.802 -0.3187 -0.0926  0.1387
 5901TIP3    H139118   1.676   5.342   2.887 -1.0275  1.6919  0.5439
 5901TIP3    H239119   1.597   5.253   2.793 -2.2807  0.2779  2.8683
 5902TIP3   OH239120   3.793   2.916   4.330  0.3468 -0.5433  0.8844
 5902TIP3    H139121   3.871   2.959   4.296 -0.4233  0.7378  0.6758
 5902TIP3    H239122   3.726   2.985   4.332 -0.6487 -1.4909  1.5060
 5903TIP3   OH239123   6.199   1.668   1.971  0.5723  0.5344  0.1758
 5903TIP3    H139124   6.256   1.700   1.901 -1.1263  2.5506 -0.3986
 5903TIP3    H239125   6.200   1.738   2.036 -0.2086 -0.0004  0.7810
 5904TIP3   OH239126   2.554   6.766   2.446 -0.6541 -0.3202 -0.1534
 5904TIP3    H139127   2.618   6.736   2.509  1.1438  2.2862 -0.5811
 5904TIP3    H239128   2.575   6.719   2.365  1.0570  0.7875 -0.3978
 5905TIP3   OH239129   5.096   2.933  16.304  0.1760 -0.1756 -0.4792
 5905TIP3    H139130   5.112   2.962  16.215 -1.1375 -0.4499 -0.8327
 5905TIP3    H239131   5.030   2.994  16.337  1.1166  0.3193  0.5405
 5906TIP3   OH239132   0.876   2.189  15.761  0.2939  0.6879 -1.2431
 5906TIP3    H139133   0.916   2.248  15.825 -2.3736 -1.3656  2.7244
 5906TIP3    H239134   0.799   2.236  15.730 -0.1491  0.5124 -0.4366
 5907TIP3   OH239135   5.262   5.032   2.713  0.8262 -0.3791 -0.5528
 5907TIP3    H139136   5.269   5.001   2.803 -1.6845 -1.0819 -0.5352
 5907TIP3    H239137   5.246   5.126   2.721 -0.0358 -0.5470 -0.2126
 5908TIP3   OH239138   4.086   3.426  12.849  0.3243 -0.2183 -0.4725
 5908TIP3    H139139   4.034   3.492  12.896  3.0203  1.6171  0.1814
 5908TIP3    H239140   4.073   3.346  12.899 -2.2284  0.0116 -0.6576
 5909TIP3   OH239141   6.372   6.202  16.620  0.1910 -0.2413 -0.4064
 5909TIP3    H139142   6.342   6.206  16.528 -1.5563  0.7442  0.1479
 5909TIP3    H239143   6.291   6.202  16.671  1.1011 -1.7298  1.1512
 5910TIP3   OH239144   1.736   1.924   5.528  0.5388  0.5019 -0.5397
 5910TIP3    H139145   1.685   1.991   5.483 -1.3491  0.2072  1.0281
 5910TIP3    H239146   1.751   1.857   5.462 -0.4625  0.9724 -1.2723
 5911TIP3   OH239147   5.353   1.954   1.656 -0.2619 -0.5914  0.2645
 5911TIP3    H139148   5.361   2.024   1.591  0.5716 -0.3700  0.5834
 5911TIP3    H239149   5.282   1.982   1.713  1.0313  0.7727  1.2855
 5912TIP3   OH239150   4.798   5.871   6.140 -0.3471  0.0798  0.0097
 5912TIP3    H139151   4.791   5.931   6.065 -1.5565 -0.9274 -0.7326
 5912TIP3    H239152   4.850   5.919   6.204 -1.1026  1.8626 -0.6231
 5913TIP3   OH239153   4.438   2.101   0.613  0.0744  0.0882  0.7216
 5913TIP3    H139154   4.371   2.047   0.655 -0.8186 -0.1167 -0.8937
 5913TIP3    H239155   4.469   2.049   0.539  0.3361  1.1278  0.0685
 5914TIP3   OH239156   3.650   0.251  11.516 -0.0736  0.2020  0.0430
 5914TIP3    H139157   3.608   0.336  11.526  0.3255  0.3084  0.8698
 5914TIP3    H239158   3.683   0.229  11.603  1.7205  0.1996 -0.5761
 5915TIP3   OH239159   2.555   4.101  12.633  1.0094  0.3784 -0.0417
 5915TIP3    H139160   2.463   4.107  12.609  1.5438  2.8647 -1.8587
 5915TIP3    H239161   2.573   4.007  12.636 -1.6453 -0.1926  0.8322
 5916TIP3   OH239162   5.925   3.818   3.909 -0.2548 -0.3131 -0.3235
 5916TIP3    H139163   5.968   3.888   3.860  0.6665 -0.3054  0.4683
 5916TIP3    H239164   5.903   3.858   3.993  0.4674 -1.0265  0.2166
 5917TIP3   OH239165   0.199   3.068   3.129  0.2881 -0.3687 -0.0346
 5917TIP3    H139166   0.281   3.072   3.177  0.5700 -0.4706 -0.5052
 5917TIP3    H239167   0.207   2.991   3.073  0.5161  0.4839 -1.2150
 5918TIP3   OH239168   1.735   0.051   5.547  0.3677 -0.1877 -0.3786
 5918TIP3    H139169   1.653   0.091   5.521 -0.5699 -0.9661  1.2226
 5918TIP3    H239170   1.750  -0.019   5.483  0.2536  0.4927 -1.1681
 5919TIP3   OH239171   1.115   4.520  17.086  0.0587 -0.3539  0.3012
 5919TIP3    H139172   1.140   4.431  17.112  2.8925  0.5801  1.1891
 5919TIP3    H239173   1.111   4.569  17.168 -1.9874  0.2793 -0.1210
 5920TIP3   OH239174   1.743   2.970  13.218  0.6130 -0.7296 -0.1844
 5920TIP3    H139175   1.689   3.039  13.179  1.3484  0.0917  0.1902
 5920TIP3    H239176   1.683   2.918  13.271  0.2693  0.5276  0.7027
 5921TIP3   OH239177   3.499   3.726   3.068 -0.1896  0.2191 -0.2315
 5921TIP3    H139178   3.593   3.728   3.048  0.2077  0.8449  1.4970
 5921TIP3    H239179   3.490   3.785   3.143 -2.0772  0.6534 -0.7637
 5922TIP3   OH239180   0.934   1.809   6.471 -0.0502  0.5711 -0.3122
 5922TIP3    H139181   0.917   1.901   6.491 -0.1606  0.7941 -1.3491
 5922TIP3    H239182   0.922   1.763   6.554 -1.0539  1.3515 -0.0013
 5923TIP3   OH239183   4.336   6.474   0.092  0.1486 -0.0519  0.0615
 5923TIP3    H139184   4.277   6.400   0.081 -0.6278 -0.2522  4.1623
 5923TIP3    H239185   4.310   6.536   0.024 -1.5124 -2.0800 -1.2631
 5924TIP3   OH239186   2.629   6.430   0.540  0.1126 -0.2248 -0.4410
 5924TIP3    H139187   2.638   6.521   0.569  1.1066 -0.7037  0.9103
 5924TIP3    H239188   2.545   6.427   0.495 -1.6141  0.6449  2.4237
 5925TIP3   OH239189   4.577   3.128   3.663  0.3960 -0.0915 -0.2022
 5925TIP3    H139190   4.648   3.072   3.634  1.0832  0.1897  0.8829
 5925TIP3    H239191   4.620   3.198   3.713 -0.5830  0.4271 -0.0520
 5926TIP3   OH239192   2.733   0.334   4.544 -0.1365  0.4115  0.5189
 5926TIP3    H139193   2.673   0.276   4.591  0.0090  2.3398  3.3926
 5926TIP3    H239194   2.783   0.276   4.486 -2.6112 -1.6749  0.3060
 5927TIP3   OH239195   1.374   5.066  15.232 -0.4256 -0.4714  0.2865
 5927TIP3    H139196   1.298   5.068  15.290 -0.8200  0.0909 -0.2291
 5927TIP3    H239197   1.366   5.147  15.181 -1.1154 -1.7929 -1.8238
 5928TIP3   OH239198   0.559   6.054  13.516  0.0790 -0.1446  0.3623
 5928TIP3    H139199   0.537   6.144  13.494  0.0076 -0.3468 -0.4068
 5928TIP3    H239200   0.531   6.003  13.440 -0.1695 -0.8539  0.9229
 5929TIP3   OH239201   5.996   3.034   3.752 -0.4828 -0.6481  0.0702
 5929TIP3    H139202   6.018   2.941   3.743 -0.6944 -0.7105  0.1768
 5929TIP3    H239203   6.048   3.064   3.827 -0.9130 -0.8462  0.4539
 5930TIP3   OH239204   1.174   6.598   0.691  0.8868 -0.2851 -0.3263
 5930TIP3    H139205   1.098   6.600   0.634  0.1902 -0.8171  0.5546
 5930TIP3    H239206   1.142   6.631   0.775  1.8890  0.5080 -0.2280
 5931TIP3   OH239207   2.842   3.189  12.589  0.2279  0.5161 -0.0620
 5931TIP3    H139208   2.906   3.222  12.652 -0.0462  0.5610  0.1960
 5931TIP3    H239209   2.784   3.134  12.641  1.0009 -0.8311 -0.5813
 5932TIP3   OH239210   4.189   0.582   3.677 -0.9623  0.0227  0.1784
 5932TIP3    H139211   4.221   0.492   3.669 -1.6505 -0.4339  2.1034
 5932TIP3    H239212   4.236   0.619   3.751 -0.0523  1.5952 -1.1029
 5933TIP3   OH239213   2.665   2.293  13.641 -0.4990 -0.2619 -0.7585
 5933TIP3    H139214   2.712   2.211  13.625 -0.8467 -0.7603  0.5753
 5933TIP3    H239215   2.625   2.281  13.728 -0.0469  1.5559 -0.2521
 5934TIP3   OH239216   2.292   1.809  15.334  0.0156  0.0838 -0.0042
 5934TIP3    H139217   2.216   1.861  15.360  0.3554 -0.2477  1.8259
 5934TIP3    H239218   2.296   1.739  15.399  1.6768 -0.0999 -0.2541
 5935TIP3   OH239219   2.277   6.144  13.692 -0.1417 -0.2830  0.6968
 5935TIP3    H139220   2.344   6.179  13.634 -1.1405  0.9531  0.2485
 5935TIP3    H239221   2.326   6.093  13.757  1.2973  1.2150  0.8460
 5936TIP3   OH239222   6.356   1.642   4.595 -0.0804 -0.8394  0.1214
 5936TIP3    H139223   6.303   1.648   4.675  0.5091 -0.2057  0.4680
 5936TIP3    H239224   6.375   1.733   4.572  0.5970 -1.0563 -0.1798
 5937TIP3   OH239225   3.824   3.510   3.599 -0.1932  0.2223 -0.1215
 5937TIP3    H139226   3.763   3.583   3.609 -1.0144 -0.1008 -2.2744
 5937TIP3    H239227   3.865   3.524   3.513 -0.2727 -1.7435 -0.5275
 5938TIP3   OH239228   3.037   3.921   6.666 -0.0162  0.3020 -0.8051
 5938TIP3    H139229   2.969   3.865   6.703  0.7545 -0.3627 -0.3423
 5938TIP3    H239230   3.098   3.860   6.625  0.7183  0.8167 -0.4997
 5939TIP3   OH239231   4.161   2.672  16.833 -0.2907  0.0221 -0.0259
 5939TIP3    H139232   4.255   2.653  16.833 -0.3794 -0.7191  2.5905
 5939TIP3    H239233   4.152   2.751  16.886 -1.1663  0.1298 -0.3048
 5940TIP3   OH239234   0.414   2.723  17.006 -0.1542 -0.3315  0.5317
 5940TIP3    H139235   0.402   2.634  17.040 -1.1692 -0.2654  0.3639
 5940TIP3    H239236   0.344   2.733  16.941 -1.7720  1.5377  2.4356
 5941TIP3   OH239237   1.787   5.435  12.064  0.2015 -0.1907 -0.5632
 5941TIP3    H139238   1.808   5.353  12.108 -3.1019 -0.9281 -0.1086
 5941TIP3    H239239   1.855   5.445  11.997  1.3461 -2.6652  0.1309
 5942TIP3   OH239240   5.513   4.581   0.088 -0.0372  0.8883 -0.1762
 5942TIP3    H139241   5.567   4.636   0.032  2.5060  0.8748  2.0375
 5942TIP3    H239242   5.570   4.508   0.113 -2.0685 -0.7479  0.0168
 5943TIP3   OH239243   0.848   4.879  16.450  0.6265  0.2770 -0.0631
 5943TIP3    H139244   0.801   4.825  16.513 -1.0615  0.4546 -1.1273
 5943TIP3    H239245   0.911   4.928  16.504 -1.4071  1.1597  1.6876
 5944TIP3   OH239246   2.792   0.789   5.214 -0.7330 -1.1893  0.3515
 5944TIP3    H139247   2.817   0.752   5.129 -2.4070 -1.1928 -0.1761
 5944TIP3    H239248   2.700   0.813   5.203  0.0654  2.8797  0.7032
 5945TIP3   OH239249   1.017   1.765  13.896  0.0782 -0.3468  0.1865
 5945TIP3    H139250   1.044   1.675  13.878 -1.1218 -0.2850 -2.4926
 5945TIP3    H239251   0.921   1.763  13.887  0.0740  1.2500 -0.3381
 5946TIP3   OH239252   6.618   6.465   2.213 -0.3279  0.1560  0.0345
 5946TIP3    H139253   6.595   6.377   2.183  0.5601  0.6132 -2.1577
 5946TIP3    H239254   6.658   6.507   2.137 -1.8535  2.9145  0.6153
 5947TIP3   OH239255   5.512   5.312   1.190 -0.3950  0.0734 -0.0663
 5947TIP3    H139256   5.483   5.298   1.280  2.1059 -0.2136  0.7672
 5947TIP3    H239257   5.514   5.225   1.151  2.7741 -0.5289  1.0962
 5948TIP3   OH239258   0.693   3.269  12.386 -0.3522  0.4170 -0.3946
 5948TIP3    H139259   0.733   3.248  12.471 -0.1824  2.8463  0.1900
 5948TIP3    H239260   0.633   3.196  12.370 -0.1325 -0.2900  1.6501
 5949TIP3   OH239261   2.838   2.723   1.990  1.0388 -0.3886 -0.8711
 5949TIP3    H139262   2.885   2.765   2.063  2.4826 -2.8414 -0.2662
 5949TIP3    H239263   2.746   2.743   2.006  1.5300  1.1952  0.2253
 5950TIP3   OH239264   4.856   2.857  16.693 -0.0861 -0.6322 -0.3959
 5950TIP3    H139265   4.795   2.921  16.657 -0.4001 -0.5616  0.2403
 5950TIP3    H239266   4.900   2.820  16.617  0.8442  1.0647 -0.7359
 5951TIP3   OH239267   4.290   4.858  16.998  0.2285 -0.2982  0.0064
 5951TIP3    H139268   4.208   4.905  16.982 -0.0167 -0.8442 -0.4103
 5951TIP3    H239269   4.299   4.857  17.093 -0.9644 -1.4014  0.1420
 5952TIP3   OH239270   1.201   3.509   1.441  0.4216 -0.3964  0.0958
 5952TIP3    H139271   1.172   3.573   1.505  0.2779 -1.1547  0.8052
 5952TIP3    H239272   1.279   3.547   1.401  0.2841  0.2535  0.4452
 5953TIP3   OH239273   4.189   5.676  13.709 -0.0095 -0.3037 -0.1321
 5953TIP3    H139274   4.159   5.586  13.698 -0.8051  0.0320 -0.7943
 5953TIP3    H239275   4.176   5.694  13.802 -0.9211 -0.5044 -0.2138
 5954TIP3   OH239276   5.114   1.496  15.281 -0.2029 -0.1481 -0.2904
 5954TIP3    H139277   5.083   1.571  15.229 -1.4422 -0.2867  0.2146
 5954TIP3    H239278   5.039   1.473  15.336  1.0872  0.0565  1.6573
 5955TIP3   OH239279   1.324   3.073   1.002  0.0247  0.3161 -0.3726
 5955TIP3    H139280   1.268   3.137   1.047  0.5961  0.5332  0.0482
 5955TIP3    H239281   1.395   3.057   1.064  0.1845 -0.3060 -0.7125
 5956TIP3   OH239282   2.616   4.124  11.847 -0.0881 -0.3083  0.3658
 5956TIP3    H139283   2.625   4.029  11.854  0.6902 -0.1745  1.4004
 5956TIP3    H239284   2.643   4.144  11.758 -1.2848 -1.1529 -0.2291
 5957TIP3   OH239285   0.864   6.213   4.091 -0.1577  0.0434  0.6080
 5957TIP3    H139286   0.804   6.256   4.152 -1.5184 -0.9855  0.0115
 5957TIP3    H239287   0.810   6.185   4.018  0.8316 -1.8810  0.5411
 5958TIP3   OH239288   1.703   6.762  14.308  0.0133  0.3173  0.0206
 5958TIP3    H139289   1.620   6.766  14.357 -1.0567  0.6160 -1.7302
 5958TIP3    H239290   1.695   6.685  14.253  0.0734  1.3611 -1.5148
 5959TIP3   OH239291   5.314   3.107   1.895  0.2273  0.0654 -0.4478
 5959TIP3    H139292   5.338   3.131   1.984  0.5927  0.0697 -0.5426
 5959TIP3    H239293   5.240   3.048   1.905 -1.0377  1.6237 -0.2395
 5960TIP3   OH239294   0.605   5.841  16.831 -0.0713  0.0886  0.0725
 5960TIP3    H139295   0.590   5.856  16.738  0.6127 -0.8309 -0.2050
 5960TIP3    H239296   0.545   5.769  16.853  0.4609 -0.3546  0.0987
 5961TIP3   OH239297   0.434   2.402   3.989 -0.2082  0.2817 -0.2555
 5961TIP3    H139298   0.411   2.415   4.081 -0.2155 -0.2798 -0.1713
 5961TIP3    H239299   0.516   2.449   3.978 -0.6526  1.0955 -0.1914
 5962TIP3   OH239300   0.457   4.336  11.923 -0.2860  0.2803 -0.1021
 5962TIP3    H139301   0.369   4.329  11.887 -0.3044  0.7241 -0.1451
 5962TIP3    H239302   0.469   4.255  11.972 -0.9675  0.5022  0.4464
 5963TIP3   OH239303   2.398   3.418   1.529 -0.2920  0.1304  0.2141
 5963TIP3    H139304   2.309   3.452   1.538 -0.7841 -1.0683 -0.0524
 5963TIP3    H239305   2.400   3.376   1.443  0.4173 -0.2146  0.3899
 5964TIP3   OH239306   3.316   4.323  12.203  0.5902  0.9441  0.7297
 5964TIP3    H139307   3.295   4.347  12.293  2.7491 -0.1336  1.5981
 5964TIP3    H239308   3.398   4.370  12.184 -0.8100  2.6841 -1.4146
 5965TIP3   OH239309   4.323   1.979   1.076  0.6052 -0.3174  0.2117
 5965TIP3    H139310   4.264   2.034   1.025  1.1937  0.8703  0.7729
 5965TIP3    H239311   4.277   1.895   1.082 -0.4718  0.1993 -0.3787
 5966TIP3   OH239312   6.347   0.700   6.256 -0.6912  0.1271 -0.0714
 5966TIP3    H139313   6.375   0.731   6.342 -1.3780  1.9867 -0.4725
 5966TIP3    H239314   6.305   0.616   6.273  0.9374 -0.4849  1.1257
 5967TIP3   OH239315   1.304   3.355   5.043  0.6400  0.2175 -0.7755
 5967TIP3    H139316   1.271   3.348   5.132  1.7399  1.2228 -0.2605
 5967TIP3    H239317   1.233   3.322   4.988 -0.6060  0.8765  0.3794
 5968TIP3   OH239318   2.679   5.275  12.867  0.5453  0.4542  0.7611
 5968TIP3    H139319   2.702   5.227  12.946 -1.5311  0.2539  1.2975
 5968TIP3    H239320   2.609   5.334  12.894 -1.6154 -0.9793 -1.2651
 5969TIP3   OH239321   1.494   6.722  14.675  0.3514  0.2283 -0.1817
 5969TIP3    H139322   1.571   6.772  14.702  1.3135 -0.9365 -0.6917
 5969TIP3    H239323   1.505   6.709  14.581 -0.3961 -0.0838 -0.2361
 5970TIP3   OH239324   4.386   2.106   6.200 -0.8213 -0.0751  0.2231
 5970TIP3    H139325   4.391   2.148   6.286 -1.8421  2.1143 -0.7196
 5970TIP3    H239326   4.446   2.157   6.145 -0.1562 -1.4679 -0.4008
 5971TIP3   OH239327   4.108   2.974   1.913 -0.1104 -0.0936  0.5931
 5971TIP3    H139328   4.028   3.004   1.956  0.3230 -0.1665  1.4562
 5971TIP3    H239329   4.091   2.883   1.890  0.0182 -0.3648  1.5283
 5972TIP3   OH239330   2.278   6.625   4.155  0.1635  0.0579 -0.2730
 5972TIP3    H139331   2.236   6.708   4.178  0.0053  0.1822 -0.9888
 5972TIP3    H239332   2.266   6.618   4.060 -2.5664 -2.2673  0.0958
 5973TIP3   OH239333   6.222   0.182   4.053 -0.3521  0.3131  0.4890
 5973TIP3    H139334   6.184   0.234   3.982 -1.3134 -2.4232 -1.1485
 5973TIP3    H239335   6.305   0.149   4.017  0.3666  0.8793  1.5820
 5974TIP3   OH239336   1.458   3.365  16.385  0.0360 -0.5368  0.5671
 5974TIP3    H139337   1.456   3.269  16.381  0.0447 -0.4943 -1.5179
 5974TIP3    H239338   1.469   3.393  16.294  0.0385  1.4585  1.1276
 5975TIP3   OH239339   5.882   5.494   4.006 -0.1962  0.7228 -0.7186
 5975TIP3    H139340   5.958   5.443   4.031  1.5182  2.2363 -2.4970
 5975TIP3    H239341   5.862   5.465   3.916 -1.8907  0.2095 -0.2244
 5976TIP3   OH239342   3.276   5.885   0.946  0.2367  0.3228  0.0005
 5976TIP3    H139343   3.266   5.819   0.877 -0.2960  0.7814 -0.3721
 5976TIP3    H239344   3.304   5.836   1.023  0.4844 -0.2474 -0.4463
 5977TIP3   OH239345   2.579   3.627   4.276  0.3758  0.3895  0.3231
 5977TIP3    H139346   2.659   3.599   4.321  0.7021 -0.0253 -0.4796
 5977TIP3    H239347   2.579   3.722   4.283  1.1233  0.4175  0.0452
 5978TIP3   OH239348   5.767   5.512  16.380 -0.6475 -0.1020  0.2898
 5978TIP3    H139349   5.708   5.480  16.312  0.4872  0.3496 -0.9746
 5978TIP3    H239350   5.854   5.480  16.353 -0.1211  0.4097  1.3230
 5979TIP3   OH239351   4.548   5.639  12.324  0.2162 -0.3354 -0.2722
 5979TIP3    H139352   4.581   5.684  12.402  0.1933  1.8376 -1.4562
 5979TIP3    H239353   4.614   5.656  12.257 -0.2335 -1.3610 -1.0009
 5980TIP3   OH239354   3.282   6.389  14.101  0.4045 -0.9173 -0.4056
 5980TIP3    H139355   3.213   6.326  14.123  0.9761 -1.2036  0.6443
 5980TIP3    H239356   3.244   6.474  14.123  0.4126 -1.0826  0.2696
 5981TIP3   OH239357   3.762   1.959  13.178  0.0281 -0.2598  0.1340
 5981TIP3    H139358   3.827   2.030  13.185  1.8663 -1.7440 -0.7288
 5981TIP3    H239359   3.763   1.936  13.085 -0.0776 -1.7714  0.4810
 5982TIP3   OH239360   2.039   2.798  11.374 -0.3389 -0.1960  0.5195
 5982TIP3    H139361   2.057   2.812  11.281  0.7474  0.2662  0.7796
 5982TIP3    H239362   2.026   2.886  11.409 -0.7608 -0.3689  0.8033
 5983TIP3   OH239363   2.693   4.284   5.704 -0.2271  0.3486 -0.2391
 5983TIP3    H139364   2.650   4.368   5.723  0.7277  0.5139  1.3250
 5983TIP3    H239365   2.775   4.287   5.753 -0.5081 -1.8174  0.4580
 5984TIP3   OH239366   6.025   2.483   3.464 -0.2474  0.6335  0.5626
 5984TIP3    H139367   6.094   2.488   3.398 -0.2161  0.8993  0.6139
 5984TIP3    H239368   5.976   2.403   3.442 -3.6246  3.2808 -3.1926
 5985TIP3   OH239369   0.071   1.769  16.373  0.4722  0.1375  0.3480
 5985TIP3    H139370   0.085   1.699  16.309 -0.5600 -0.2912  0.5806
 5985TIP3    H239371   0.034   1.841  16.323 -0.6519 -0.3170  0.5095
 5986TIP3   OH239372   4.138   5.912   4.381 -0.3562  0.2544  0.4022
 5986TIP3    H139373   4.175   5.872   4.460 -0.2622 -2.5372 -0.9337
 5986TIP3    H239374   4.214   5.942   4.331 -0.1455 -1.3706 -0.2876
 5987TIP3   OH239375   3.166   6.437  16.739  0.1106  0.4531  0.1247
 5987TIP3    H139376   3.144   6.393  16.658 -0.6290  1.0128  0.0062
 5987TIP3    H239377   3.191   6.526  16.712  2.3793 -0.0779  0.2725
 5988TIP3   OH239378   1.220   4.389   2.914 -0.1567  0.2849  0.2051
 5988TIP3    H139379   1.244   4.357   2.826 -2.4528  2.2005 -1.2360
 5988TIP3    H239380   1.181   4.313   2.956 -1.4467 -0.0541 -1.4776
 5989TIP3   OH239381   2.232   4.943  11.544  0.5678  0.6067 -0.5789
 5989TIP3    H139382   2.219   4.918  11.453 -0.9964 -0.5063 -0.0956
 5989TIP3    H239383   2.326   4.932  11.559  0.3708 -2.9147 -1.0706
 5990TIP3   OH239384   2.381   5.517   1.799 -0.0633 -0.2171 -0.3780
 5990TIP3    H139385   2.411   5.436   1.759  0.9978  0.1222 -0.3069
 5990TIP3    H239386   2.419   5.586   1.745 -0.1039  0.2341  0.1535
 5991TIP3   OH239387   6.005   0.260  12.519  0.2431 -0.0574  0.1220
 5991TIP3    H139388   5.931   0.316  12.495  0.2024 -0.3670 -0.4943
 5991TIP3    H239389   5.995   0.246  12.613  1.6522  3.0600  0.8796
 5992TIP3   OH239390   4.472   6.450   2.928  0.0657  0.4011  0.0492
 5992TIP3    H139391   4.524   6.482   3.001 -0.8971  2.8826 -0.2429
 5992TIP3    H239392   4.512   6.490   2.850 -0.3419 -0.2702 -0.5174
 5993TIP3   OH239393   2.869   4.056   4.609  0.2734 -0.5234  0.5904
 5993TIP3    H139394   2.851   4.061   4.516 -0.4425 -1.7817  0.6449
 5993TIP3    H239395   2.787   4.025   4.648  1.1097 -1.8337  1.3986
 5994TIP3   OH239396   3.121   2.410  12.501 -0.3436  0.3294 -0.1386
 5994TIP3    H139397   3.206   2.390  12.539 -0.4866  1.3044  0.7535
 5994TIP3    H239398   3.110   2.346  12.431  0.9964  0.0205 -0.0940
 5995TIP3   OH239399   5.635   5.758  16.042  0.4149 -0.6004  1.1685
 5995TIP3    H139400   5.571   5.723  16.104  0.8725  1.1115  2.6919
 5995TIP3    H239401   5.624   5.853  16.048  0.0624 -0.3434 -1.8677
 5996TIP3   OH239402   3.681   0.552   4.913  0.0961 -0.1714 -0.0328
 5996TIP3    H139403   3.753   0.507   4.870 -0.5866 -0.3230 -1.0710
 5996TIP3    H239404   3.701   0.548   5.006  1.3178 -0.3803 -0.2970
 5997TIP3   OH239405   0.473   5.176   1.092  0.1888 -0.4374 -0.5228
 5997TIP3    H139406   0.439   5.122   1.163  2.3623  0.9152  1.7328
 5997TIP3    H239407   0.417   5.157   1.018 -1.6239 -2.6811  1.2786
 5998TIP3   OH239408   6.488   4.881   0.344 -0.5750 -0.4626 -0.4301
 5998TIP3    H139409   6.453   4.797   0.315  0.1806 -0.6245 -0.9066
 5998TIP3    H239410   6.415   4.923   0.390 -0.4302 -2.1554  1.4783
 5999TIP3   OH239411   3.001   4.443  15.886 -0.0911  0.4793 -0.4569
 5999TIP3    H139412   3.088   4.442  15.926 -0.0013  0.3824 -0.6521
 5999TIP3    H239413   2.977   4.535  15.881  0.7832  0.6449 -2.0922
 6000TIP3   OH239414   6.279   1.993   6.167 -0.0661  0.0895  0.2934
 6000TIP3    H139415   6.234   2.034   6.241 -1.6574 -0.3002 -0.4120
 6000TIP3    H239416   6.230   1.913   6.151  0.7524 -0.2301 -0.6795
 6001TIP3   OH239417   1.814   0.206   1.256  0.6654 -0.1129  0.1000
 6001TIP3    H139418   1.773   0.124   1.228 -0.0244 -0.6490  2.5177
 6001TIP3    H239419   1.741   0.267   1.269  1.0847  0.5401 -0.4795
 6002TIP3   OH239420   2.255   2.934   2.841  0.0989  0.1694 -0.2312
 6002TIP3    H139421   2.273   2.875   2.767 -2.7079 -0.1762 -0.7434
 6002TIP3    H239422   2.188   2.993   2.808  0.7312  1.7671  1.2398
 6003TIP3   OH239423   2.336   1.457  15.209 -0.2311  0.2635 -0.5283
 6003TIP3    H139424   2.310   1.540  15.169  1.3976  1.5518  0.8787
 6003TIP3    H239425   2.277   1.447  15.284 -0.1768  0.3786 -0.4684
 6004TIP3   OH239426   5.985   2.734   0.910  0.1373  0.7528  0.1956
 6004TIP3    H139427   6.018   2.765   0.994  1.6700  0.8309 -0.4019
 6004TIP3    H239428   5.892   2.719   0.925  0.2484  1.3946  1.7164
 6005TIP3   OH239429   1.852   2.305   1.970 -0.1902 -0.9142 -0.8454
 6005TIP3    H139430   1.877   2.239   1.906 -1.4550 -0.0185 -2.3469
 6005TIP3    H239431   1.929   2.362   1.978  0.2636 -1.5145 -0.9194
 6006TIP3   OH239432   4.823   1.844  17.059 -0.3183 -0.0501 -0.0303
 6006TIP3    H139433   4.738   1.857  17.100 -0.2488 -1.0054  0.4390
 6006TIP3    H239434   4.880   1.814  17.130  0.0861 -0.6488 -0.5923
 6007TIP3   OH239435   3.182   5.304   5.644 -0.0917 -1.1299  0.5010
 6007TIP3    H139436   3.200   5.291   5.551  2.1588  3.4945  0.0210
 6007TIP3    H239437   3.093   5.337   5.647  0.6178  1.0404 -0.4430
 6008TIP3   OH239438   3.208   5.443   4.354 -0.4860  0.4377 -0.2852
 6008TIP3    H139439   3.232   5.354   4.382  0.0844  0.3275 -1.0862
 6008TIP3    H239440   3.207   5.493   4.435 -0.2706 -0.1844  0.1166
 6009TIP3   OH239441   1.070   0.151   3.016 -0.0090 -0.5714 -0.1196
 6009TIP3    H139442   1.000   0.111   3.067  0.3101  0.0421  0.8368
 6009TIP3    H239443   1.148   0.101   3.039  0.5351  0.9731  1.6513
 6010TIP3   OH239444   2.639   5.033  16.529  0.7521  0.3350  0.3707
 6010TIP3    H139445   2.691   5.096  16.579  0.3860  0.3621  0.7164
 6010TIP3    H239446   2.599   5.086  16.460  1.4783  0.2488 -0.1319
 6011TIP3   OH239447   1.050   1.001   5.204  0.1408  0.2453 -0.0316
 6011TIP3    H139448   0.975   1.059   5.221  1.2999  1.8585 -0.1419
 6011TIP3    H239449   1.011   0.919   5.174 -1.5858  0.9010  0.2936
 6012TIP3   OH239450   2.386   1.308   2.009 -0.2071 -0.2728  0.1400
 6012TIP3    H139451   2.476   1.275   2.007  0.5202  1.4782  1.7468
 6012TIP3    H239452   2.371   1.333   2.100 -0.7865  3.4597 -0.8066
 6013TIP3   OH239453   4.223   6.536   3.298  0.7154  0.5077  0.1101
 6013TIP3    H139454   4.269   6.603   3.348 -0.1096  1.0598  0.1428
 6013TIP3    H239455   4.181   6.584   3.226  2.2482 -0.3191 -1.4262
 6014TIP3   OH239456   1.001   4.274  14.852 -0.1630  0.2380 -0.5892
 6014TIP3    H139457   1.036   4.336  14.916 -3.1101  0.7052  0.7249
 6014TIP3    H239458   1.000   4.190  14.898 -0.7981  0.2501 -0.5716
 6015TIP3   OH239459   2.442   3.000  13.208  0.2748 -0.6827  0.3430
 6015TIP3    H139460   2.487   2.939  13.267 -0.1763 -1.1976  0.1691
 6015TIP3    H239461   2.379   2.945  13.162 -0.0291 -0.1028  0.0636
 6016TIP3   OH239462   0.312   2.375  16.114 -0.1488  0.3856  0.6422
 6016TIP3    H139463   0.291   2.298  16.061  1.4178  0.7711 -0.6302
 6016TIP3    H239464   0.289   2.350  16.203 -4.3687  0.2239 -0.2698
 6017TIP3   OH239465   0.511   6.261  16.558 -0.0416 -0.1617 -0.2059
 6017TIP3    H139466   0.484   6.282  16.647  0.1842  0.4803 -0.2875
 6017TIP3    H239467   0.437   6.213  16.522 -0.6673  0.6964 -0.0913
 6018TIP3   OH239468   5.267   2.959  13.814  0.1157  0.0748 -0.4502
 6018TIP3    H139469   5.289   2.881  13.762 -0.3113 -0.3883  0.0456
 6018TIP3    H239470   5.172   2.959  13.819  0.1510 -0.0463  0.5425
 6019TIP3   OH239471   3.488   1.998   0.898  0.1802  0.3969 -0.1807
 6019TIP3    H139472   3.523   2.082   0.868  1.0716 -0.0507 -0.4392
 6019TIP3    H239473   3.441   1.964   0.822 -0.5026  0.8285  0.0448
 6020TIP3   OH239474   2.855   6.595  12.588  0.0252 -0.0480 -0.3132
 6020TIP3    H139475   2.763   6.570  12.584 -0.2363  0.7715  0.3906
 6020TIP3    H239476   2.894   6.534  12.651 -0.0757 -0.2385 -0.4329
 6021TIP3   OH239477   5.884   2.955   5.114  0.2740  0.8782  0.6394
 6021TIP3    H139478   5.904   3.032   5.062 -0.9256  0.1301 -1.0311
 6021TIP3    H239479   5.789   2.951   5.117  0.2409 -1.4628 -0.8703
 6022TIP3   OH239480   3.901   3.893  15.517 -0.2696  0.4001 -0.4733
 6022TIP3    H139481   3.955   3.959  15.559 -0.9482  0.4315  0.3829
 6022TIP3    H239482   3.891   3.923  15.426 -0.5666  1.4791 -0.1004
 6023TIP3   OH239483   5.045   5.522  12.076 -0.3919  0.1581  0.0286
 6023TIP3    H139484   5.019   5.431  12.063  0.7096 -0.2748  0.7117
 6023TIP3    H239485   5.105   5.540  12.003 -0.6059  0.3390 -0.1039
 6024TIP3   OH239486   6.260   1.145  15.905 -0.4362  0.4799 -0.0094
 6024TIP3    H139487   6.179   1.110  15.941 -0.0842  1.6956  2.1500
 6024TIP3    H239488   6.250   1.137  15.810 -1.7972 -2.1042  0.2739
 6025TIP3   OH239489   3.658   3.507  16.145  0.4532 -0.4228  0.2804
 6025TIP3    H139490   3.572   3.548  16.145  0.0021 -1.2702  2.1298
 6025TIP3    H239491   3.654   3.441  16.215  2.1632 -1.4186 -0.4719
 6026TIP3   OH239492   4.777   0.302   3.413 -0.0967  0.1558  0.5111
 6026TIP3    H139493   4.750   0.384   3.454 -0.4467 -0.2668  1.1598
 6026TIP3    H239494   4.869   0.291   3.439 -0.2041  0.0855  0.8752
 6027TIP3   OH239495   2.105   3.695   5.262  0.2019 -0.6723  0.9311
 6027TIP3    H139496   2.076   3.786   5.256  1.5092 -0.3296 -1.1143
 6027TIP3    H239497   2.182   3.698   5.319  1.1708 -0.1957 -0.3502
 6028TIP3   OH239498   1.916   2.573  14.213 -0.2255  0.1249  0.1300
 6028TIP3    H139499   1.884   2.527  14.136 -4.1571  3.4146 -0.5671
 6028TIP3    H239500   1.983   2.633  14.180 -1.4282  1.0514 -0.7292
 6029TIP3   OH239501   4.181   5.323  16.872 -0.1672 -0.3381 -0.3337
 6029TIP3    H139502   4.198   5.243  16.823 -0.2916 -0.8626  0.4690
 6029TIP3    H239503   4.237   5.316  16.950 -0.9914 -0.1502  0.2837
 6030TIP3   OH239504   5.086   0.089  13.475  0.0644  0.1503 -0.4812
 6030TIP3    H139505   5.125   0.077  13.389 -1.8483  0.2400 -1.4191
 6030TIP3    H239506   5.022   0.018  13.482 -2.0680  1.9441 -0.5444
 6031TIP3   OH239507   3.524   1.977  11.452 -0.1824 -0.3538 -0.4332
 6031TIP3    H139508   3.587   1.940  11.514 -0.9200 -0.7731  0.0870
 6031TIP3    H239509   3.460   2.022  11.507  0.9329  2.1836 -1.0665
 6032TIP3   OH239510   4.889   2.587   6.785  0.0919  0.3397  0.0846
 6032TIP3    H139511   4.957   2.542   6.835 -0.4576  1.7622  2.2644
 6032TIP3    H239512   4.934   2.621   6.707  1.9959  1.4883  1.5943
 6033TIP3   OH239513   0.095   2.986  13.333  0.3819 -0.0448 -0.1560
 6033TIP3    H139514   0.004   3.007  13.315  1.0145  0.9732 -2.5320
 6033TIP3    H239515   0.126   3.056  13.390 -0.4878 -0.8712  1.4108
 6034TIP3   OH239516   5.639   3.125  11.601  0.3856  0.0676  0.1112
 6034TIP3    H139517   5.546   3.130  11.578  0.4006 -1.0343 -0.2228
 6034TIP3    H239518   5.665   3.037  11.575  1.6880  0.5826 -0.3832
 6035TIP3   OH239519   6.191   5.234   1.778  0.1847  0.3547  0.1561
 6035TIP3    H139520   6.189   5.146   1.741  1.9851  0.8434 -1.2939
 6035TIP3    H239521   6.100   5.262   1.781 -0.2791 -0.9812 -0.8244
 6036TIP3   OH239522   6.566   4.463  12.613 -0.0332 -0.1059  0.0416
 6036TIP3    H139523   6.535   4.374  12.598  1.3513 -0.6347  0.1297
 6036TIP3    H239524   6.656   4.452  12.644 -0.2046  1.2829  1.1452
 6037TIP3   OH239525   2.235   6.631  16.906  0.6411  0.1926 -0.7037
 6037TIP3    H139526   2.197   6.548  16.936  0.8278 -0.2603 -1.6822
 6037TIP3    H239527   2.185   6.652  16.827 -0.3288  1.7289  0.2655
 6038TIP3   OH239528   4.789   5.325   3.330  0.5222 -0.5133 -0.0789
 6038TIP3    H139529   4.819   5.406   3.290  0.6356 -1.0124 -1.0378
 6038TIP3    H239530   4.700   5.344   3.358  0.0853 -0.4135 -1.4439
 6039TIP3   OH239531   3.699   4.278   0.335 -0.1533 -0.1755  0.0115
 6039TIP3    H139532   3.790   4.250   0.342  0.0759  0.8646  1.5240
 6039TIP3    H239533   3.650   4.218   0.392 -0.4892 -0.9069 -1.0068
 6040TIP3   OH239534   2.158   4.476   2.907  0.4475 -0.2248 -0.2115
 6040TIP3    H139535   2.224   4.532   2.948  0.4460  0.5262 -1.2033
 6040TIP3    H239536   2.208   4.418   2.849  0.2632  0.3278 -0.9446
 6041TIP3   OH239537   4.748   3.853  13.004 -0.0848  0.0165 -0.4625
 6041TIP3    H139538   4.751   3.814  13.091 -1.4770  2.3565  0.7395
 6041TIP3    H239539   4.719   3.782  12.947  1.7816 -1.8347  0.7338
 6042TIP3   OH239540   5.867   0.158   4.872 -0.3363 -0.7942 -0.5991
 6042TIP3    H139541   5.905   0.110   4.799 -0.2634 -1.9789  0.1841
 6042TIP3    H239542   5.785   0.192   4.838 -0.6113 -1.8640 -1.0687
 6043TIP3   OH239543   3.428   5.752  15.043 -0.3411 -0.1499 -0.0576
 6043TIP3    H139544   3.333   5.744  15.051 -0.2096 -0.7020  1.1565
 6043TIP3    H239545   3.450   5.831  15.092 -0.2082  0.2255 -0.7073
 6044TIP3   OH239546   1.820   6.073  14.688  0.5538  0.2393 -0.4905
 6044TIP3    H139547   1.893   6.021  14.723 -1.3762  0.3707  4.6520
 6044TIP3    H239548   1.748   6.011  14.680  0.0913  0.8583 -1.2311
 6045TIP3   OH239549   3.842   4.738  11.757 -0.0455  0.1863  0.0740
 6045TIP3    H139550   3.848   4.710  11.849  0.2328 -1.7238 -0.4887
 6045TIP3    H239551   3.933   4.738  11.727 -0.1485  0.7000 -0.2379
 6046TIP3   OH239552   4.432   3.838  11.856  0.0395 -0.2969  0.8137
 6046TIP3    H139553   4.416   3.922  11.900  1.4706  1.0407 -1.0788
 6046TIP3    H239554   4.358   3.783  11.883 -0.4384  1.2251  2.8696
 6047TIP3   OH239555   0.622   4.645  12.457  0.2724 -0.5096  0.0781
 6047TIP3    H139556   0.631   4.551  12.471  1.0889 -0.3599  0.6701
 6047TIP3    H239557   0.703   4.670  12.413 -0.9961 -0.4691 -2.3911
 6048TIP3   OH239558   1.213   5.973  14.236 -0.2329 -0.4006  0.1275
 6048TIP3    H139559   1.242   5.932  14.318  0.4903 -0.6841 -0.2593
 6048TIP3    H239560   1.226   6.066  14.249 -1.5400 -0.2985  0.8808
 6049TIP3   OH239561   6.600   5.623   2.711 -0.6173 -0.4482  0.9733
 6049TIP3    H139562   6.619   5.634   2.805  0.4984  0.0360  0.7080
 6049TIP3    H239563   6.506   5.635   2.705 -0.6759 -0.2412  2.0084
 6050TIP3   OH239564   4.884   0.333  12.363 -0.0103  0.2776  0.1850
 6050TIP3    H139565   4.930   0.258  12.327 -1.5108 -1.3829  1.5465
 6050TIP3    H239566   4.818   0.355  12.297 -0.8160 -0.8550  0.5895
 6051TIP3   OH239567   2.951   6.402   0.978  0.3320  0.2983  0.5090
 6051TIP3    H139568   2.857   6.402   0.996  0.2062  1.8385  0.0384
 6051TIP3    H239569   2.992   6.401   1.064 -0.1093 -0.4983  0.7178
 6052TIP3   OH239570   1.840   2.672  16.616  0.2019  0.5976  0.1810
 6052TIP3    H139571   1.748   2.666  16.640  0.0815  2.1102  0.1902
 6052TIP3    H239572   1.841   2.664  16.521  0.1776 -0.4258  0.2564
 6053TIP3   OH239573   4.347   1.238  12.708  0.1437  0.1982  0.1912
 6053TIP3    H139574   4.296   1.277  12.779  0.1953  0.2342  0.2089
 6053TIP3    H239575   4.430   1.215  12.748  1.0712  2.3460 -0.3761
 6054TIP3   OH239576   6.610   4.947   3.198  0.2601 -0.3263 -0.2882
 6054TIP3    H139577   6.594   5.039   3.177 -0.6935 -0.3624  0.2231
 6054TIP3    H239578   6.567   4.899   3.127 -0.1459 -0.3818 -0.0147
 6055TIP3   OH239579   4.638   6.109  13.102  0.9338 -0.2803 -0.1043
 6055TIP3    H139580   4.593   6.040  13.151  1.6072  0.0796  1.0369
 6055TIP3    H239581   4.598   6.105  13.015  1.5077 -2.6343 -0.3306
 6056TIP3   OH239582   2.098   0.174  12.670 -0.4044  0.2966  0.0894
 6056TIP3    H139583   2.112   0.266  12.650 -2.1750  0.4574 -0.6363
 6056TIP3    H239584   2.069   0.173  12.761  0.4209  0.3488  0.3635
 6057TIP3   OH239585   5.668   3.934  15.313  0.7318  0.4002  0.3633
 6057TIP3    H139586   5.674   3.969  15.224  1.5744  0.0634  0.2775
 6057TIP3    H239587   5.642   4.009  15.367 -1.9355  0.1674 -0.4469
 6058TIP3   OH239588   3.575   6.443   5.578  0.1593 -0.3803  0.2593
 6058TIP3    H139589   3.585   6.439   5.483 -0.7927 -2.2773  0.1979
 6058TIP3    H239590   3.534   6.529   5.594 -0.3016 -0.3211 -1.1140
 6059TIP3   OH239591   5.063   6.575   0.625  0.7425 -0.2367 -0.1053
 6059TIP3    H139592   5.146   6.527   0.619 -0.5622 -2.7113  0.1767
 6059TIP3    H239593   5.038   6.591   0.535  0.6107 -1.2816 -0.2758
 6060TIP3   OH239594   1.101   4.632  10.808 -0.1971 -0.0507  0.4618
 6060TIP3    H139595   1.151   4.666  10.735  2.5368 -0.7562  1.8867
 6060TIP3    H239596   1.095   4.538  10.791 -1.4147  0.0652  0.1367
 6061TIP3   OH239597   3.571   3.506   1.840  0.1272  0.2767  0.2465
 6061TIP3    H139598   3.562   3.446   1.915  0.8207  0.7019  0.6931
 6061TIP3    H239599   3.665   3.504   1.821 -0.2475 -1.1411 -1.7470
 6062TIP3   OH239600   2.498   5.886   2.496 -0.2391  0.1882 -0.2623
 6062TIP3    H139601   2.504   5.922   2.408 -2.2393  0.6994 -0.2464
 6062TIP3    H239602   2.432   5.816   2.488 -0.1946  0.0235  0.7511
 6063TIP3   OH239603   6.372   2.812  13.324 -0.2461  0.0965 -0.4248
 6063TIP3    H139604   6.299   2.866  13.353 -1.2156 -1.3893 -0.0193
 6063TIP3    H239605   6.433   2.811  13.398 -0.9659 -0.6400  0.1658
 6064TIP3   OH239606   2.424   3.319  15.602 -0.2501  0.0165  0.4004
 6064TIP3    H139607   2.392   3.358  15.521  0.2476  1.2578  0.7790
 6064TIP3    H239608   2.383   3.233  15.605 -1.5592  0.5886 -0.3454
 6065TIP3   OH239609   0.990   3.917  12.296  0.5378 -0.4833 -0.4030
 6065TIP3    H139610   0.948   3.916  12.382  1.1772  1.0217 -0.0392
 6065TIP3    H239611   1.069   3.864  12.307  0.7393 -0.1027  0.0063
 6066TIP3   OH239612   4.072   4.653   4.377  0.3014  0.2707  0.1123
 6066TIP3    H139613   4.049   4.746   4.375 -1.0276  0.1000  2.8398
 6066TIP3    H239614   4.029   4.617   4.299  1.2264  1.9637 -1.2556
 6067TIP3   OH239615   5.311   3.501   3.017  0.8076 -0.0975  0.1658
 6067TIP3    H139616   5.217   3.497   3.003  0.8342 -0.3126  0.0576
 6067TIP3    H239617   5.340   3.410   3.020  1.0890 -0.0276 -0.3261
 6068TIP3   OH239618   0.812   6.654  11.584  0.2900  0.1441  0.4084
 6068TIP3    H139619   0.816   6.573  11.637 -1.1893 -0.3334 -0.1601
 6068TIP3    H239620   0.809   6.623  11.494 -3.4587  0.6039  0.2426
 6069TIP3   OH239621   5.162   2.416   5.327 -0.6157  0.1934  0.0323
 6069TIP3    H139622   5.103   2.469   5.275 -1.2082  0.1770  0.6799
 6069TIP3    H239623   5.125   2.416   5.415  0.2874  0.1002  0.4317
 6070TIP3   OH239624   5.389   3.943  16.509 -0.2026 -0.4116  0.0359
 6070TIP3    H139625   5.338   3.943  16.590 -0.6216 -1.9557 -0.1951
 6070TIP3    H239626   5.425   3.854  16.503  1.2794  0.1965 -0.5808
 6071TIP3   OH239627   4.953   2.145  14.241  0.4742  0.4647 -0.5629
 6071TIP3    H139628   4.987   2.204  14.174  0.5144  0.1736 -0.7992
 6071TIP3    H239629   4.935   2.063  14.195  0.9127  0.1187 -0.1381
 6072TIP3   OH239630   0.524   2.315   5.035  0.4131  0.2941 -0.2881
 6072TIP3    H139631   0.463   2.306   4.962  0.6466  1.4418 -0.6483
 6072TIP3    H239632   0.606   2.279   5.002  0.3139  0.0838 -0.3081
 6073TIP3   OH239633   3.550   2.923  10.944  0.1002 -0.3554 -0.8058
 6073TIP3    H139634   3.624   2.875  10.906  1.0120  0.1744  0.2375
 6073TIP3    H239635   3.532   2.993  10.881 -0.9556 -1.7501 -2.1256
 6074TIP3   OH239636   3.162   2.227  12.977  0.4374  0.1616 -0.3315
 6074TIP3    H139637   3.119   2.239  12.892  1.4530  1.9821 -0.6425
 6074TIP3    H239638   3.093   2.245  13.041  0.2404  1.2362 -0.8125
 6075TIP3   OH239639   2.996   0.120   5.116  0.2108 -0.2642  0.4247
 6075TIP3    H139640   2.910   0.161   5.112  0.3855 -0.0038 -1.7875
 6075TIP3    H239641   2.980   0.032   5.152 -0.5428  0.6956  2.5839
 6076TIP3   OH239642   6.345   1.036  12.923 -0.2731 -0.1107 -0.3855
 6076TIP3    H139643   6.330   0.942  12.934 -1.6112  0.0900 -0.2747
 6076TIP3    H239644   6.257   1.072  12.910 -0.1698  1.5033  2.5295
 6077TIP3   OH239645   4.620   0.538  12.468 -0.3298  0.3293 -1.0388
 6077TIP3    H139646   4.617   0.540  12.373  0.6417  1.0519 -1.0704
 6077TIP3    H239647   4.714   0.543  12.490 -0.5691  0.8081 -0.0424
 6078TIP3   OH239648   0.330   5.078  15.519 -0.0517 -0.2799  0.1094
 6078TIP3    H139649   0.423   5.098  15.503  0.1294  0.6840  2.0503
 6078TIP3    H239650   0.294   5.063  15.432  2.1830 -1.9655 -0.6357
 6079TIP3   OH239651   2.585   3.300   4.642 -0.2718 -0.0602  0.0011
 6079TIP3    H139652   2.492   3.303   4.619 -0.5419  2.2446  1.0261
 6079TIP3    H239653   2.622   3.377   4.599  0.9063 -0.2779  0.5867
 6080TIP3   OH239654   5.271   6.429   4.134 -0.2444  0.1875 -0.3964
 6080TIP3    H139655   5.270   6.411   4.040 -0.2917  3.0491 -1.0494
 6080TIP3    H239656   5.230   6.352   4.174  1.0713 -1.7404 -2.5472
 6081TIP3   OH239657   3.369   3.445   0.767  0.1777  0.0161 -0.5151
 6081TIP3    H139658   3.296   3.507   0.764 -1.7874 -1.9338  2.3677
 6081TIP3    H239659   3.430   3.482   0.831 -0.2573 -0.2927  0.0800
 6082TIP3   OH239660   4.268   2.508   4.438  0.1929  0.0917  0.2543
 6082TIP3    H139661   4.353   2.477   4.472  0.4377 -1.8553 -1.8998
 6082TIP3    H239662   4.204   2.447   4.474 -0.1500  0.7242  0.7479
 6083TIP3   OH239663   1.513   4.947   1.639  0.0824  0.0784  0.6035
 6083TIP3    H139664   1.546   5.036   1.633 -0.6457  0.3041 -0.3382
 6083TIP3    H239665   1.552   4.901   1.565 -2.1406  0.5231 -0.9234
 6084TIP3   OH239666   6.515   6.011  17.176  0.3206 -0.1009 -0.3150
 6084TIP3    H139667   6.467   5.955  17.115  2.5130 -1.8627 -0.5373
 6084TIP3    H239668   6.545   5.952  17.245  0.2456  1.3623  1.0298
 6085TIP3   OH239669   1.828   0.365   3.300 -0.5250  0.0263 -0.5432
 6085TIP3    H139670   1.812   0.289   3.244  0.9519 -0.8209  0.1101
 6085TIP3    H239671   1.864   0.431   3.241 -2.5078  0.5121 -1.2518
 6086TIP3   OH239672   4.277   0.289  13.108  0.3829  0.0749 -0.2631
 6086TIP3    H139673   4.185   0.307  13.127  1.4307  2.1864  3.8734
 6086TIP3    H239674   4.314   0.373  13.083  1.8470  0.1198  1.7885
 6087TIP3   OH239675   4.711   5.661   0.183  0.3951  0.2514 -0.1651
 6087TIP3    H139676   4.712   5.573   0.221  0.6187 -0.1862 -1.1735
 6087TIP3    H239677   4.760   5.715   0.246 -3.0736  0.5713  2.5449
 6088TIP3   OH239678   1.121   5.575   3.666  0.3303 -0.5140  0.0281
 6088TIP3    H139679   1.192   5.556   3.728  0.1847 -1.3505 -0.0495
 6088TIP3    H239680   1.146   5.529   3.586 -0.4548 -1.0940  0.1049
 6089TIP3   OH239681   6.134   4.594   0.624 -0.2837 -0.4027 -0.1420
 6089TIP3    H139682   6.108   4.520   0.679 -0.9323 -1.4363 -1.7521
 6089TIP3    H239683   6.204   4.638   0.673 -2.6223  0.4068  2.7696
 6090TIP3   OH239684   1.409   4.741  10.711 -0.5680  0.2590 -0.1749
 6090TIP3    H139685   1.495   4.709  10.736 -1.2037 -0.9509  0.5314
 6090TIP3    H239686   1.380   4.682  10.641 -0.9640  0.4578 -0.1851
 6091TIP3   OH239687   1.679   1.013  14.029 -0.4530 -0.0901 -0.7256
 6091TIP3    H139688   1.675   1.035  13.936  0.5183  0.5090 -0.6345
 6091TIP3    H239689   1.630   0.931  14.035 -0.9492  0.1146 -1.6801
 6092TIP3   OH239690   6.040   1.648   3.240  0.0902  0.3323  0.2290
 6092TIP3    H139691   5.970   1.634   3.176  1.4053  0.7800 -1.3581
 6092TIP3    H239692   6.119   1.616   3.197  0.5818 -2.8211  3.0001
 6093TIP3   OH239693   5.004   2.704   1.720  0.3202  0.0931 -0.7875
 6093TIP3    H139694   4.933   2.684   1.780  1.5109 -1.9519  0.0704
 6093TIP3    H239695   4.979   2.786   1.678 -1.7313  0.2743  0.6694
 6094TIP3   OH239696   2.704   0.059  10.520 -0.1854 -0.5213 -0.0113
 6094TIP3    H139697   2.775   0.020  10.470 -0.4716 -0.2336 -0.6566
 6094TIP3    H239698   2.748   0.118  10.582  0.1900 -1.1320  0.3135
 6095TIP3   OH239699   0.180   4.423  14.366 -0.3472  0.1444  0.2362
 6095TIP3    H139700   0.128   4.344  14.349 -2.3166  1.2861  0.7205
 6095TIP3    H239701   0.147   4.487  14.303  0.2743  1.0018  0.7710
 6096TIP3   OH239702   1.393   5.790   5.901 -0.3510 -0.1922  1.0169
 6096TIP3    H139703   1.364   5.878   5.925  2.2310  1.4134 -1.1948
 6096TIP3    H239704   1.448   5.762   5.974  0.1683  0.7871  1.0219
 6097TIP3   OH239705   3.608   4.016  16.024  0.0054  0.1382  0.0091
 6097TIP3    H139706   3.557   4.077  16.077 -0.8382  0.3032 -0.9622
 6097TIP3    H239707   3.596   4.046  15.934  2.2659  0.5002 -0.2229
 6098TIP3   OH239708   3.840   0.509  12.241 -0.0976 -0.0958  0.2685
 6098TIP3    H139709   3.907   0.440  12.236  0.9406  0.8801  0.3498
 6098TIP3    H239710   3.817   0.513  12.333  0.0645 -0.1240  0.3111
 6099TIP3   OH239711   0.526   1.982   3.675 -0.3938 -0.2849 -0.3072
 6099TIP3    H139712   0.578   2.060   3.656 -0.8148  0.0198 -0.2291
 6099TIP3    H239713   0.459   1.981   3.606 -1.1095  0.0858  0.3654
 6100TIP3   OH239714   2.608   2.416   5.021  0.1692  0.0678 -0.2339
 6100TIP3    H139715   2.540   2.375   4.968  0.2634  0.1094 -0.3860
 6100TIP3    H239716   2.618   2.504   4.984 -0.6206  0.5381  0.6068
 6101TIP3   OH239717   2.702   2.447  14.893 -0.2460  0.0426  0.1974
 6101TIP3    H139718   2.728   2.415  14.980 -4.2896 -0.4189  1.4144
 6101TIP3    H239719   2.774   2.420  14.836  1.6859 -1.3709  3.0255
 6102TIP3   OH239720   5.125   1.342  15.867  0.2870  0.0942 -0.2560
 6102TIP3    H139721   5.214   1.307  15.865  0.3262 -0.0901  1.8407
 6102TIP3    H239722   5.124   1.411  15.801  1.8180 -0.2814 -0.7089
 6103TIP3   OH239723   4.464   5.345  15.256 -0.1895 -0.2902  1.1028
 6103TIP3    H139724   4.488   5.389  15.175 -0.5453 -0.6066  0.8246
 6103TIP3    H239725   4.369   5.349  15.259 -0.5296 -3.5428 -0.4065
 6104TIP3   OH239726   3.162   4.566   0.538 -0.2928  0.2331 -0.1219
 6104TIP3    H139727   3.079   4.551   0.585  0.1000  2.6826  1.5666
 6104TIP3    H239728   3.135   4.603   0.454 -0.9817  1.7858  0.7301
 6105TIP3   OH239729   6.007   6.650   3.473  0.5789 -0.2242 -0.4686
 6105TIP3    H139730   5.995   6.596   3.394 -1.2326 -2.6812  1.3418
 6105TIP3    H239731   5.924   6.697   3.483  1.5098  1.6340 -1.0282
 6106TIP3   OH239732   3.378   1.059   5.762 -0.3377 -0.4181 -0.6724
 6106TIP3    H139733   3.346   1.088   5.677  2.7903  0.6274 -1.6313
 6106TIP3    H239734   3.449   1.120   5.783  0.0267 -1.6149  1.9339
 6107TIP3   OH239735   0.254   1.467  16.084 -0.5111  0.3587  0.1773
 6107TIP3    H139736   0.261   1.561  16.065 -1.3859  0.1040 -1.6421
 6107TIP3    H239737   0.181   1.438  16.029  1.4918 -1.9244 -1.4748
 6108TIP3   OH239738   0.337   2.154  13.799  0.2700  0.2972  0.1498
 6108TIP3    H139739   0.377   2.233  13.762 -1.2138  1.0142  0.0194
 6108TIP3    H239740   0.244   2.176  13.809  0.3532 -0.2433  3.1862
 6109TIP3   OH239741   2.931   3.463  10.851 -0.2408 -0.4281  0.6182
 6109TIP3    H139742   2.961   3.514  10.775 -1.5030  0.6927  0.8443
 6109TIP3    H239743   2.977   3.379  10.842  0.0449 -0.1413 -1.1047
 6110TIP3   OH239744   1.469   0.399   4.364  0.2470  0.2866  0.2975
 6110TIP3    H139745   1.544   0.424   4.419  2.1825 -1.8156 -1.2040
 6110TIP3    H239746   1.476   0.455   4.287  0.7214 -0.3992 -0.1644
 6111TIP3   OH239747   2.868   0.235  12.405  0.5874  0.2993 -0.0119
 6111TIP3    H139748   2.805   0.247  12.334  1.9086 -2.0127 -1.7122
 6111TIP3    H239749   2.919   0.317  12.406  0.3494  0.4945 -1.5463
 6112TIP3   OH239750   5.212   0.812  16.978 -0.2002 -0.6852 -0.1331
 6112TIP3    H139751   5.274   0.766  16.921 -1.0932 -0.9985 -0.8806
 6112TIP3    H239752   5.166   0.742  17.024 -1.0306 -0.5315 -0.7068
 6113TIP3   OH239753   3.639   0.819   4.468  0.0305 -0.4775 -0.5142
 6113TIP3    H139754   3.557   0.839   4.422  0.0218  1.4230  0.2320
 6113TIP3    H239755   3.635   0.873   4.547  2.7512  1.0340 -1.2905
 6114TIP3   OH239756   6.398   2.739  15.116  0.1089  0.2080 -0.1524
 6114TIP3    H139757   6.366   2.662  15.162 -1.8659  1.2411  0.2974
 6114TIP3    H239758   6.328   2.804  15.124  1.3322  1.7692 -1.2637
 6115TIP3   OH239759   6.116   5.047   4.396 -0.5867  0.6163  0.8698
 6115TIP3    H139760   6.069   5.046   4.312  0.1964  2.4387  0.3585
 6115TIP3    H239761   6.063   5.104   4.452 -0.0988  0.9601  0.9807
 6116TIP3   OH239762   0.074   2.973  16.949  0.1659  0.1239  0.1569
 6116TIP3    H139763   0.159   2.929  16.944 -0.2479 -0.9096  1.6871
 6116TIP3    H239764   0.076   3.019  17.033 -2.0587 -2.8036  2.0015
 6117TIP3   OH239765   5.742   6.389  13.953 -0.5374  0.0648  0.1797
 6117TIP3    H139766   5.810   6.327  13.929 -0.5632  0.6589 -1.5925
 6117TIP3    H239767   5.779   6.438  14.027  1.7054  1.4590 -1.7062
 6118TIP3   OH239768   3.386   2.674  10.620  0.0233 -0.5667 -0.4135
 6118TIP3    H139769   3.373   2.601  10.560 -1.2022 -1.2165  0.5991
 6118TIP3    H239770   3.427   2.742  10.567  1.0627 -1.9207 -1.4197
 6119TIP3   OH239771   4.367   3.235   2.360 -0.6762  0.8394 -0.3425
 6119TIP3    H139772   4.445   3.264   2.408 -0.7961 -0.2062  0.4918
 6119TIP3    H239773   4.399   3.167   2.301 -0.9541  0.4051  0.0043
 6120TIP3   OH239774   6.624   3.981   4.262  1.2245 -0.0306 -0.2599
 6120TIP3    H139775   6.620   4.071   4.295  3.2150 -0.4180  1.2225
 6120TIP3    H239776   6.643   3.990   4.169  1.0955  1.0672 -0.1950
 6121TIP3   OH239777   5.543   3.143   3.677 -0.4979 -0.6554 -0.1142
 6121TIP3    H139778   5.607   3.190   3.730 -1.4875 -1.3376  1.7857
 6121TIP3    H239779   5.592   3.114   3.600  1.0427  0.2616  0.4845
 6122TIP3   OH239780   2.110   2.077   2.774  0.1450  0.2853 -0.1429
 6122TIP3    H139781   2.106   1.999   2.831  0.9579 -0.0804 -0.5654
 6122TIP3    H239782   2.130   2.149   2.834 -1.7656  0.3898  0.4256
 6123TIP3   OH239783   1.612   5.267  12.589  0.0378 -0.3412  0.1028
 6123TIP3    H139784   1.585   5.209  12.518 -0.5877  0.5531 -0.4124
 6123TIP3    H239785   1.701   5.295  12.565  1.1446 -2.5484  1.3269
 6124TIP3   OH239786   4.880   6.478  13.745  0.4473  0.4332  0.2683
 6124TIP3    H139787   4.805   6.431  13.709 -0.0070  1.9983 -0.8834
 6124TIP3    H239788   4.846   6.564  13.769  1.3921  0.4164  1.8369
 6125TIP3   OH239789   4.553   4.568   1.348  0.2184 -0.2466  0.1915
 6125TIP3    H139790   4.606   4.514   1.406  0.1998 -1.9424 -1.3089
 6125TIP3    H239791   4.466   4.528   1.351  0.0824 -0.0210 -0.5733
 6126TIP3   OH239792   4.937   3.732   1.350 -0.3973 -0.3422  0.3940
 6126TIP3    H139793   4.938   3.735   1.445 -1.6473 -0.1430  0.4100
 6126TIP3    H239794   5.003   3.666   1.327 -1.0003 -1.3272  1.4312
 6127TIP3   OH239795   2.545   0.291  15.603 -0.0983 -0.1266 -0.4647
 6127TIP3    H139796   2.562   0.385  15.594 -0.6867 -0.0933 -1.2922
 6127TIP3    H239797   2.516   0.263  15.517 -0.4295 -0.9764 -0.0923
 6128TIP3   OH239798   0.119   4.438  16.386 -0.2577  0.0985  0.2254
 6128TIP3    H139799   0.201   4.432  16.436 -0.1233 -0.5674 -0.0693
 6128TIP3    H239800   0.107   4.532  16.372  0.2602  0.2262  0.5913
 6129TIP3   OH239801   6.444   2.806   1.563  0.5875  0.0879 -0.1690
 6129TIP3    H139802   6.449   2.712   1.579  0.0557 -0.0588 -0.8419
 6129TIP3    H239803   6.351   2.827   1.575  0.6183  0.4370 -0.5400
 6130TIP3   OH239804   3.612   3.011   0.548 -0.1390  0.5330  0.2061
 6130TIP3    H139805   3.666   3.037   0.474 -1.8017 -0.6432 -1.5360
 6130TIP3    H239806   3.584   3.093   0.589  0.1355  1.2367 -1.0065
 6131TIP3   OH239807   6.434   1.769   2.799 -0.1561  0.5084 -0.6699
 6131TIP3    H139808   6.503   1.834   2.786 -0.1460  0.7322  0.4054
 6131TIP3    H239809   6.481   1.687   2.813  0.1188  1.1112  2.9385
 6132TIP3   OH239810   6.744   6.312  15.957  0.0452  0.1215 -0.6644
 6132TIP3    H139811   6.769   6.360  15.878 -1.9365  0.5698 -1.0900
 6132TIP3    H239812   6.730   6.381  16.022 -1.3006  0.0541 -0.8388
 6133TIP3   OH239813   3.109   6.181  14.925 -0.1110 -0.0692 -0.2999
 6133TIP3    H139814   3.201   6.156  14.936 -0.3577 -0.5681  0.6763
 6133TIP3    H239815   3.108   6.231  14.843  1.0729  0.1765 -0.1803
 6134TIP3   OH239816   2.113   2.022   3.402  0.4922 -0.0738 -0.5064
 6134TIP3    H139817   2.038   1.996   3.349 -0.9811  0.3766  1.2620
 6134TIP3    H239818   2.090   1.997   3.491  2.8451 -0.7145 -0.0184
 6135TIP3   OH239819   6.103   2.170  11.607  0.7418  0.2750 -1.3607
 6135TIP3    H139820   6.142   2.083  11.617 -0.4793 -0.2245 -0.7010
 6135TIP3    H239821   6.121   2.195  11.516 -1.4073 -1.9854 -2.5275
 6136TIP3   OH239822   3.319   1.009  16.073  0.0352 -0.4752  0.2776
 6136TIP3    H139823   3.347   1.083  16.019 -0.6992 -0.0839  0.4145
 6136TIP3    H239824   3.223   1.011  16.067  0.0011 -1.2577  0.4957
 6137TIP3   OH239825   6.211   4.556   3.086 -0.3089 -0.0334  0.1703
 6137TIP3    H139826   6.143   4.523   3.144 -1.3386  0.0785 -0.9369
 6137TIP3    H239827   6.192   4.649   3.077 -0.9431 -0.2761 -1.3173
 6138TIP3   OH239828   0.301   1.035   5.786  0.3076  0.5471  0.5921
 6138TIP3    H139829   0.286   1.114   5.838  0.2949 -0.5210  2.2632
 6138TIP3    H239830   0.225   1.031   5.728  1.3415  2.8847 -1.0786
 6139TIP3   OH239831   2.402   3.650   2.319 -0.7347  0.1450 -0.6154
 6139TIP3    H139832   2.317   3.687   2.344 -0.1647  0.4144  1.0456
 6139TIP3    H239833   2.388   3.556   2.321 -0.3209  0.0477  2.5624
 6140TIP3   OH239834   2.213   4.184  11.194 -0.0069  0.1654 -0.3595
 6140TIP3    H139835   2.155   4.131  11.249  0.5578  0.5088  0.6041
 6140TIP3    H239836   2.187   4.275  11.213  0.9135  0.3252  0.1781
 6141TIP3   OH239837   4.409   4.464   3.541  0.1969 -0.8505  0.3893
 6141TIP3    H139838   4.497   4.430   3.556 -0.3910 -1.7160  2.2775
 6141TIP3    H239839   4.351   4.390   3.564 -1.0341 -0.7304 -1.9951
 6142TIP3   OH239840   4.242   1.877  11.184  0.0063  0.6107  0.4473
 6142TIP3    H139841   4.291   1.930  11.121  2.1587  0.5053  1.9066
 6142TIP3    H239842   4.293   1.884  11.265  0.1689 -3.2458  0.8570
 6143TIP3   OH239843   2.993   5.166   2.343  0.4803  0.5661 -0.5843
 6143TIP3    H139844   3.080   5.128   2.330  0.6161  0.3979  0.6880
 6143TIP3    H239845   2.969   5.142   2.433 -1.2654 -0.1305 -1.1934
 6144TIP3   OH239846   3.774   4.185   0.633  0.1461  0.2154 -0.2116
 6144TIP3    H139847   3.681   4.204   0.627 -0.6546 -2.0270  2.6077
 6144TIP3    H239848   3.798   4.208   0.723  1.6513 -1.5307 -0.0950
 6145TIP3   OH239849   1.923   0.895  16.503  0.1771  0.0102  0.3911
 6145TIP3    H139850   1.906   0.987  16.483  0.5625 -0.0281 -0.1085
 6145TIP3    H239851   1.915   0.850  16.419  0.6849 -0.3106  0.5093
 6146TIP3   OH239852   6.739   1.268  12.894  0.1988  0.6006  0.3401
 6146TIP3    H139853   6.750   1.343  12.837  0.8913  0.6190  0.4852
 6146TIP3    H239854   6.821   1.263  12.943  1.2709 -1.7521 -1.4793
 6147TIP3   OH239855   3.322   3.709   0.596 -0.3175  0.0358  0.0161
 6147TIP3    H139856   3.398   3.719   0.653 -1.4482 -0.7836  1.7546
 6147TIP3    H239857   3.356   3.668   0.517  1.0310 -0.3830  0.7875
 6148TIP3   OH239858   5.270   0.163   2.504 -0.3828 -0.3145  0.5118
 6148TIP3    H139859   5.230   0.155   2.591 -0.1613 -1.1607  0.5445
 6148TIP3    H239860   5.199   0.194   2.448 -0.9848 -1.3613  0.6625
 6149TIP3   OH239861   0.444   2.446   4.271 -0.3083 -1.1061  0.3631
 6149TIP3    H139862   0.529   2.405   4.288 -0.2546 -0.7978  0.8504
 6149TIP3    H239863   0.392   2.426   4.349  0.1665  0.9365  1.2560
 6150TIP3   OH239864   1.129   6.319   1.034  0.8145 -0.0469 -0.0631
 6150TIP3    H139865   1.191   6.246   1.038  0.3827 -0.4670 -0.7691
 6150TIP3    H239866   1.071   6.296   0.961  0.2861  0.6988  0.1206
 6151TIP3   OH239867   1.854   3.161  14.953 -0.4811 -0.0493  0.0922
 6151TIP3    H139868   1.897   3.076  14.941 -0.5953 -0.3764  1.7337
 6151TIP3    H239869   1.814   3.180  14.869  3.8701  0.9130 -2.0420
 6152TIP3   OH239870   5.807   2.116  13.537 -0.2007 -0.0715 -0.1863
 6152TIP3    H139871   5.776   2.033  13.574 -1.4023  0.7499  0.7139
 6152TIP3    H239872   5.868   2.150  13.603 -0.9360  0.5197  0.1902
 6153TIP3   OH239873   0.165   2.311   4.194  0.0764 -0.1580 -0.3088
 6153TIP3    H139874   0.232   2.247   4.219  0.9658  0.9852  0.3467
 6153TIP3    H239875   0.090   2.258   4.167  1.5208 -1.5042 -1.9346
 6154TIP3   OH239876   1.605   3.207  10.883 -0.5621 -0.0557  0.2010
 6154TIP3    H139877   1.622   3.259  10.804  0.4730 -1.1701 -0.3429
 6154TIP3    H239878   1.548   3.136  10.853 -1.1042  0.1615  0.7079
 6155TIP3   OH239879   0.146   4.605   2.744  0.5261  0.1928  0.4276
 6155TIP3    H139880   0.126   4.697   2.756 -3.3386 -0.5663  1.0689
 6155TIP3    H239881   0.140   4.591   2.650 -0.5102  0.2942  0.4769
 6156TIP3   OH239882   6.518   2.425  11.190 -0.7143 -0.0711  0.5118
 6156TIP3    H139883   6.604   2.408  11.228  0.0184 -0.3178 -1.1828
 6156TIP3    H239884   6.519   2.519  11.170 -0.7092 -0.1293  0.2267
 6157TIP3   OH239885   0.571   3.609   4.559  0.3036 -0.3465  0.4827
 6157TIP3    H139886   0.544   3.540   4.620  0.1393 -0.1500  0.6334
 6157TIP3    H239887   0.578   3.687   4.613 -0.0339 -0.1277  0.2155
 6158TIP3   OH239888   4.666   6.353  13.621  0.2205 -0.4639 -0.0754
 6158TIP3    H139889   4.586   6.380  13.576  0.5974 -0.1645 -0.5837
 6158TIP3    H239890   4.636   6.314  13.703 -0.3221  2.9616  1.5156
 6159TIP3   OH239891   5.541   4.482  15.946  0.3992 -0.4940 -0.0742
 6159TIP3    H139892   5.551   4.388  15.927 -1.0496 -0.5182 -0.8494
 6159TIP3    H239893   5.624   4.521  15.917  1.2197 -1.5817  0.7297
 6160TIP3   OH239894   5.334   4.518   1.604 -0.1057  0.1690 -0.4718
 6160TIP3    H139895   5.306   4.429   1.623  1.7690 -0.4921 -0.5886
 6160TIP3    H239896   5.343   4.559   1.690  1.7520 -0.6812 -0.2074
 6161TIP3   OH239897   5.278   0.145  15.162 -0.0624  0.0943  0.0321
 6161TIP3    H139898   5.351   0.161  15.222 -0.1536  1.5856 -0.2113
 6161TIP3    H239899   5.318   0.103  15.086  0.2644 -0.6169  0.5899
 6162TIP3   OH239900   1.793   0.515   1.340  0.0678  0.4501 -0.5640
 6162TIP3    H139901   1.839   0.592   1.306  0.2315  0.5078 -0.2133
 6162TIP3    H239902   1.860   0.466   1.387 -0.5673  1.3931  1.4188
 6163TIP3   OH239903   1.258   1.381  16.752  0.0434 -0.0172  0.6572
 6163TIP3    H139904   1.195   1.359  16.820 -1.1017  3.0043  0.7214
 6163TIP3    H239905   1.331   1.422  16.799 -0.2287  1.0181  0.2083
 6164TIP3   OH239906   3.633   5.955  16.571 -0.2475  0.2659 -0.2124
 6164TIP3    H139907   3.621   5.908  16.488  0.7244 -3.2087  1.4240
 6164TIP3    H239908   3.720   5.994  16.563 -0.3377  0.3335 -0.9978
 6165TIP3   OH239909   6.466   0.304   0.190 -0.3420  0.1964 -0.0736
 6165TIP3    H139910   6.508   0.322   0.274  0.3719  1.2792 -0.6422
 6165TIP3    H239911   6.458   0.209   0.187 -1.1386  0.1774  1.5735
 6166TIP3   OH239912   0.338   6.720  14.993  0.0118 -0.3011 -0.3264
 6166TIP3    H139913   0.270   6.784  14.974  0.9512  0.2109 -2.2011
 6166TIP3    H239914   0.331   6.656  14.922  0.8998 -0.7578 -0.0175
 6167TIP3   OH239915   3.154   1.218   3.127 -0.0103  0.3005 -0.6541
 6167TIP3    H139916   3.120   1.257   3.047  0.6799  0.7557 -0.7421
 6167TIP3    H239917   3.182   1.293   3.180 -0.5164  0.0079  0.0446
 6168TIP3   OH239918   6.206   5.290  15.991  0.0037 -0.0445 -0.2019
 6168TIP3    H139919   6.206   5.347  15.914 -0.0870 -1.6323 -1.4248
 6168TIP3    H239920   6.298   5.280  16.014 -0.0176  1.0951  0.4264
 6169TIP3   OH239921   5.429   5.870   3.842 -0.0471 -0.4514  0.4235
 6169TIP3    H139922   5.427   5.960   3.812  1.7980  0.3424  2.4355
 6169TIP3    H239923   5.416   5.818   3.762 -1.0238  1.5280 -0.8004
 6170TIP3   OH239924   5.543   5.676  12.395  0.3854 -0.2902  0.3084
 6170TIP3    H139925   5.620   5.644  12.348 -0.0352  0.3261 -0.8490
 6170TIP3    H239926   5.559   5.770  12.405  0.6988 -0.4825  1.9001
 6171TIP3   OH239927   4.220   4.856   0.629  0.4685 -0.0090 -0.7479
 6171TIP3    H139928   4.220   4.819   0.717  1.9372  1.2322 -0.1837
 6171TIP3    H239929   4.273   4.935   0.636  0.1065  0.4527 -2.6225
 6172TIP3   OH239930   3.418   0.739  14.384 -0.0530  0.2569 -0.0995
 6172TIP3    H139931   3.396   0.712  14.473  0.9820 -1.6034 -0.3639
 6172TIP3    H239932   3.373   0.675  14.329  2.8191 -1.3497 -0.7471
 6173TIP3   OH239933   6.518   3.283   5.430  0.4039  0.4980 -0.6048
 6173TIP3    H139934   6.564   3.255   5.509  0.3547  3.6973  0.6849
 6173TIP3    H239935   6.468   3.206   5.403  3.9259 -2.1947 -0.2773
 6174TIP3   OH239936   4.018   1.742  13.492  0.2067 -0.6993 -0.4672
 6174TIP3    H139937   3.998   1.830  13.523  0.9750  0.0034 -1.9030
 6174TIP3    H239938   3.970   1.684  13.552 -1.0664  0.7067 -0.0805
 6175TIP3   OH239939   4.371   4.238  15.355  0.0855 -0.1061  0.2606
 6175TIP3    H139940   4.377   4.143  15.369  0.2525  0.0880  1.6500
 6175TIP3    H239941   4.462   4.266  15.342  0.0350 -0.1313 -0.1623
 6176TIP3   OH239942   5.583   2.060   2.132  0.3127 -0.2615  0.4018
 6176TIP3    H139943   5.538   1.978   2.150 -0.1885  0.2131  1.4296
 6176TIP3    H239944   5.662   2.056   2.186  0.5946 -0.3210 -0.0112
 6177TIP3   OH239945   5.383   0.670   5.003 -0.0520  0.7848  0.2637
 6177TIP3    H139946   5.294   0.702   4.988 -0.0762  0.1627 -1.0367
 6177TIP3    H239947   5.421   0.661   4.916  1.1323  0.5812  0.7764
 6178TIP3   OH239948   2.958   1.937  17.305 -0.5890  0.2682 -0.2912
 6178TIP3    H139949   3.017   1.880  17.256 -2.0145 -0.2255 -1.4981
 6178TIP3    H239950   2.870   1.910  17.278 -1.3499  1.8547  0.4600
 6179TIP3   OH239951   4.187   3.061  15.427 -0.1997 -0.2582 -0.0926
 6179TIP3    H139952   4.178   3.124  15.499  1.1316  0.0614 -0.1767
 6179TIP3    H239953   4.276   3.027  15.437 -0.8399 -2.0543 -0.1310
 6180TIP3   OH239954   5.301   2.541   4.914 -0.1859 -0.4111 -0.1499
 6180TIP3    H139955   5.237   2.478   4.880  0.6214 -1.5195  0.3219
 6180TIP3    H239956   5.281   2.548   5.007 -0.6637  0.5341 -0.3099
 6181TIP3   OH239957   3.487   6.201  16.668 -0.2417 -0.3338 -0.7539
 6181TIP3    H139958   3.526   6.130  16.617  0.6020  1.7512 -3.2554
 6181TIP3    H239959   3.412   6.230  16.616 -2.3088 -1.0752  1.5872
 6182TIP3   OH239960   3.735   0.875  16.542  0.1575 -0.2447 -0.0964
 6182TIP3    H139961   3.787   0.929  16.602  0.0025  0.9336 -0.9840
 6182TIP3    H239962   3.653   0.861  16.587  0.1107  0.4808  0.0599
 6183TIP3   OH239963   1.162   1.031  17.026  0.2786  0.2222 -0.1760
 6183TIP3    H139964   1.212   1.062  17.102 -0.6680  0.3984  0.3911
 6183TIP3    H239965   1.226   1.026  16.955  1.0077  0.8461  0.4266
 6184TIP3   OH239966   4.658   0.124  17.146  0.2706  0.1712  0.6661
 6184TIP3    H139967   4.658   0.089  17.235  0.0966 -0.2540  0.5017
 6184TIP3    H239968   4.749   0.145  17.129  0.6540 -1.7371  0.1812
 6185TIP3   OH239969   6.162   2.899  16.536 -0.0844 -0.5442 -0.1158
 6185TIP3    H139970   6.077   2.943  16.542 -0.8857 -1.6923 -2.2886
 6185TIP3    H239971   6.152   2.821  16.591  0.1199  0.0854  0.8473
 6186TIP3   OH239972   0.783   2.451  13.944  0.3966 -0.1746 -0.5881
 6186TIP3    H139973   0.834   2.504  14.005  1.0048  1.0590 -2.1271
 6186TIP3    H239974   0.695   2.489  13.947 -0.1684 -1.4513  1.0390
 6187TIP3   OH239975   6.577   5.790  12.530 -0.6239 -0.9586 -0.1054
 6187TIP3    H139976   6.557   5.752  12.444 -0.0361  0.4192 -0.8949
 6187TIP3    H239977   6.508   5.855  12.544  1.5389  1.9816 -1.6623
 6188TIP3   OH239978   0.796   4.749  14.162 -0.2497 -0.5149  0.4692
 6188TIP3    H139979   0.808   4.713  14.074 -0.4855 -0.2892  0.3436
 6188TIP3    H239980   0.872   4.806  14.176 -0.2057 -0.5610  0.4179
 6189TIP3   OH239981   3.879   1.566   2.346 -0.0147  0.2089  0.2505
 6189TIP3    H139982   3.884   1.657   2.318 -0.2949 -0.0197 -0.5560
 6189TIP3    H239983   3.786   1.550   2.360 -0.2390 -0.5634 -1.7526
 6190TIP3   OH239984   5.072   0.606   1.933 -0.7779 -0.0395 -0.0116
 6190TIP3    H139985   5.126   0.683   1.916 -1.5988  0.9711  1.6641
 6190TIP3    H239986   5.133   0.540   1.965 -0.4175  0.9093  1.3406
 6191TIP3   OH239987   0.913   0.369   4.498  0.5849  0.2763  0.0824
 6191TIP3    H139988   0.837   0.426   4.501  1.5946  1.6350  1.3086
 6191TIP3    H239989   0.937   0.365   4.405 -1.0775 -0.3638 -0.3473
 6192TIP3   OH239990   3.390   2.897   4.415  0.2316  0.0254 -0.4784
 6192TIP3    H139991   3.370   2.974   4.362  1.7003 -1.2841 -3.0962
 6192TIP3    H239992   3.359   2.823   4.363  0.0601 -1.2602  1.3622
 6193TIP3   OH239993   2.955   5.702  13.272 -0.5438  0.0444 -0.5108
 6193TIP3    H139994   3.006   5.622  13.262 -1.0702 -0.1284 -2.0147
 6193TIP3    H239995   2.986   5.759  13.202  0.4975  1.5667  1.1126
 6194TIP3   OH239996   4.964   1.153   2.350 -0.3593  0.4952 -0.1411
 6194TIP3    H139997   4.969   1.245   2.325 -2.0526  1.3595  2.2724
 6194TIP3    H239998   4.915   1.153   2.433  0.2614 -2.5096  0.3648
 6195TIP3   OH239999   5.129   5.291  13.631 -0.2797 -0.0543 -0.5281
 6195TIP3    H140000   5.114   5.307  13.537  1.3032  1.1798 -0.6202
 6195TIP3    H240001   5.189   5.217  13.633 -1.8049 -1.3493 -0.3690
 6196TIP3   OH240002   5.088   1.097   1.145 -0.4972 -0.5929 -0.1296
 6196TIP3    H140003   5.001   1.131   1.169  0.3298  0.6854  1.2539
 6196TIP3    H240004   5.117   1.049   1.223  0.2822 -0.4952 -0.3559
 6197TIP3   OH240005   4.630   1.686  15.880 -0.0764 -0.2362  0.0180
 6197TIP3    H140006   4.696   1.623  15.851  0.7072  0.1923  0.7987
 6197TIP3    H240007   4.611   1.661  15.970 -0.3725  0.1419  0.0635
 6198TIP3   OH240008   3.892   2.457  14.063  0.1107 -0.5004  0.1069
 6198TIP3    H140009   3.815   2.417  14.022  0.4210  0.5369 -1.5901
 6198TIP3    H240010   3.869   2.462  14.156 -1.9337 -0.1045 -0.3554
 6199TIP3   OH240011   0.888   1.416  13.395 -0.2809 -0.1815  0.3205
 6199TIP3    H140012   0.949   1.371  13.336  0.4074 -0.7940  1.4711
 6199TIP3    H240013   0.900   1.374  13.480 -1.2583  0.6770  0.9174
 6200TIP3   OH240014   4.061   5.261  11.138 -0.4576 -0.1238  0.2120
 6200TIP3    H140015   4.090   5.204  11.066  0.5921  0.7911 -0.1178
 6200TIP3    H240016   4.099   5.222  11.216 -0.5698 -0.4256  0.1171
 6201TIP3   OH240017   2.046   3.640  12.651  0.2432 -0.1035 -0.5033
 6201TIP3    H140018   2.018   3.653  12.560 -0.7218  0.7392 -0.1026
 6201TIP3    H240019   1.985   3.576  12.686  1.0221 -0.9357 -0.6109
 6202TIP3   OH240020   0.591   0.656   2.414  0.1779 -0.1686 -0.1892
 6202TIP3    H140021   0.566   0.701   2.494  0.1101  2.1260 -1.4146
 6202TIP3    H240022   0.673   0.611   2.436 -0.1429 -0.0718  1.2902
 6203TIP3   OH240023   5.813   2.052   5.493 -0.1792 -0.3454  0.3596
 6203TIP3    H140024   5.735   2.081   5.446  0.1427 -1.0513 -0.6696
 6203TIP3    H240025   5.813   1.957   5.482  0.1280 -0.4938  1.4790
 6204TIP3   OH240026   2.590   2.797  15.400 -0.1636 -0.5426  0.2097
 6204TIP3    H140027   2.631   2.710  15.402 -1.2241 -1.0469  1.4989
 6204TIP3    H240028   2.500   2.781  15.430 -0.0090  1.1969  1.7424
 6205TIP3   OH240029   4.007   2.634  15.517  0.4000  0.1873 -0.5565
 6205TIP3    H140030   3.984   2.566  15.454  1.0259  0.2854 -0.9006
 6205TIP3    H240031   4.056   2.698  15.467 -0.6427  1.1723 -0.3399
 6206TIP3   OH240032   4.196   4.948  15.213 -0.8164 -0.0324  0.0631
 6206TIP3    H140033   4.138   4.890  15.164 -0.1121 -0.8902  0.2165
 6206TIP3    H240034   4.138   4.996  15.273 -1.5042  0.0093 -0.6235
 6207TIP3   OH240035   2.450   4.815  10.903  0.4015 -0.4693 -0.6005
 6207TIP3    H140036   2.378   4.840  10.844 -0.2462 -0.0052  0.3645
 6207TIP3    H240037   2.445   4.719  10.905 -0.9559 -0.4168  0.3411
 6208TIP3   OH240038   0.506   0.112   3.887 -0.6089 -0.1533  0.3519
 6208TIP3    H140039   0.580   0.111   3.827 -1.5498  0.5889 -0.8818
 6208TIP3    H240040   0.448   0.043   3.855 -1.5289  0.8250 -0.2038
 6209TIP3   OH240041   2.723   5.438   1.568  0.0332 -0.1973 -0.3548
 6209TIP3    H140042   2.639   5.465   1.532  0.4242 -1.1067 -2.0639
 6209TIP3    H240043   2.721   5.467   1.659 -1.4130  1.3297 -0.8312
 6210TIP3   OH240044   6.421   3.844   3.005 -0.5018 -0.3414  0.5911
 6210TIP3    H140045   6.350   3.807   2.953 -0.1812  1.3128 -1.1232
 6210TIP3    H240046   6.379   3.909   3.062 -0.5540 -0.5063  0.7426
 6211TIP3   OH240047   3.064   1.574   4.436 -0.0656 -0.0291 -0.3090
 6211TIP3    H140048   3.130   1.632   4.397 -0.0051 -0.1783 -0.4264
 6211TIP3    H240049   3.082   1.577   4.530 -1.0908  1.4511 -0.1245
 6212TIP3   OH240050   1.809   3.975  13.056  0.5409 -0.2505  0.4696
 6212TIP3    H140051   1.840   3.965  12.966  3.0334 -1.7712  1.3965
 6212TIP3    H240052   1.719   4.008  13.047  0.7703 -0.1660 -2.5328
 6213TIP3   OH240053   4.209   2.539   2.424  0.2027 -0.5308  0.0856
 6213TIP3    H140054   4.119   2.541   2.390  0.6578  0.1517 -1.1224
 6213TIP3    H240055   4.221   2.626   2.463  0.6256 -0.3070 -0.5365
 6214TIP3   OH240056   1.621   0.001  12.988 -0.0631  0.1816 -0.6461
 6214TIP3    H140057   1.586   0.068  12.930 -1.8529 -0.0480  0.1106
 6214TIP3    H240058   1.565   0.004  13.066  1.7019 -0.1387  0.7083
 6215TIP3   OH240059   4.796   3.837  16.184 -0.2628  0.1593  0.0510
 6215TIP3    H140060   4.882   3.794  16.186 -0.4299 -0.1746  0.0465
 6215TIP3    H240061   4.793   3.880  16.098  0.1743  0.7362  0.3160
 6216TIP3   OH240062   6.165   4.770  12.924 -0.2254 -0.2588  0.0574
 6216TIP3    H140063   6.164   4.792  12.831 -0.9305  0.2381  0.1748
 6216TIP3    H240064   6.258   4.756  12.944  0.1181  1.1692 -0.3758
 6217TIP3   OH240065   2.530   0.999  16.301  0.3568  0.2967  0.3889
 6217TIP3    H140066   2.485   0.956  16.373  0.4477  0.1351  0.3509
 6217TIP3    H240067   2.494   0.958  16.222  0.7055  0.0277  0.3656
 6218TIP3   OH240068   4.762   4.578  11.103  0.0031 -0.1889  0.4730
 6218TIP3    H140069   4.841   4.553  11.151  1.1504 -0.8156 -1.6565
 6218TIP3    H240070   4.720   4.494  11.081 -0.0361  0.0495 -0.3779
 6219TIP3   OH240071   3.228   2.756  15.093  0.2163 -0.2853 -0.2724
 6219TIP3    H140072   3.307   2.794  15.056  0.6676 -1.8904 -1.0353
 6219TIP3    H240073   3.256   2.672  15.129 -1.2405 -1.1802 -1.1383
 6220TIP3   OH240074   5.183   1.605   1.847 -0.1829  0.8624  0.8361
 6220TIP3    H140075   5.164   1.682   1.899  0.8342  0.4763  1.8197
 6220TIP3    H240076   5.131   1.535   1.886  2.3819 -0.0083  3.0250
 6221TIP3   OH240077   6.014   0.464  14.090  0.2673  0.1575 -0.2105
 6221TIP3    H140078   6.045   0.377  14.066  3.2264  1.1244 -0.3817
 6221TIP3    H240079   6.019   0.514  14.009 -1.5198  0.4888 -0.1397
 6222TIP3   OH240080   3.660   0.157  15.217  0.5916 -0.0644 -0.1994
 6222TIP3    H140081   3.734   0.124  15.268 -0.5195 -1.3984  0.6222
 6222TIP3    H240082   3.591   0.170  15.282  0.1152  1.2607 -0.9343
 6223TIP3   OH240083   3.173   4.043   1.826  0.1742  0.0059 -0.2688
 6223TIP3    H140084   3.262   4.026   1.856  0.4803 -1.3744 -1.8104
 6223TIP3    H240085   3.172   4.136   1.804  0.8944  0.2764  0.7504
 6224TIP3   OH240086   6.078   5.067  11.479 -0.3203 -0.1624 -0.2424
 6224TIP3    H140087   6.068   5.160  11.503  0.9749  0.1088 -0.6724
 6224TIP3    H240088   6.006   5.050  11.418 -1.4432  0.1500  0.9458
 6225TIP3   OH240089   6.105   0.628  15.600  0.7266 -0.4551  0.7516
 6225TIP3    H140090   6.014   0.647  15.622  0.6946  2.8437 -1.4910
 6225TIP3    H240091   6.110   0.532  15.600 -2.9287 -0.7856  0.3092
 6226TIP3   OH240092   0.089   0.716   1.333  0.5291  0.3932 -0.5136
 6226TIP3    H140093   0.182   0.691   1.336  0.4684  0.0216 -1.4753
 6226TIP3    H240094   0.058   0.685   1.248 -0.4365  0.6844 -0.2838
 6227TIP3   OH240095   4.029   0.101  12.536 -0.1693 -0.1350 -0.2447
 6227TIP3    H140096   4.004   0.035  12.601 -1.5934 -0.2818 -0.9150
 6227TIP3    H240097   4.028   0.055  12.453 -0.4644  0.5536 -0.6287
 6228TIP3   OH240098   1.644   2.286   1.409  0.0434 -0.2288  0.3529
 6228TIP3    H140099   1.693   2.346   1.353 -1.6162  0.3756 -0.5285
 6228TIP3    H240100   1.639   2.329   1.494  2.5596 -1.1347  1.0268
 6229TIP3   OH240101   0.561   1.841   4.716  0.9532  0.0747  0.2682
 6229TIP3    H140102   0.483   1.888   4.687  1.6075  0.3481 -1.1411
 6229TIP3    H240103   0.633   1.900   4.695  1.8226 -1.5778 -1.7537
 6230TIP3   OH240104   2.230   0.265   1.913  0.2427 -0.3909  1.2110
 6230TIP3    H140105   2.301   0.202   1.927  1.2495  0.5771  0.6652
 6230TIP3    H240106   2.176   0.258   1.992  0.4099 -1.8051  1.2316
 6231TIP3   OH240107   6.217   5.899  12.501 -0.5478  0.4534  0.5696
 6231TIP3    H140108   6.202   5.945  12.583  3.6414  0.5157  1.4913
 6231TIP3    H240109   6.209   5.806  12.524 -0.3564  0.4956  0.8100
 6232TIP3   OH240110   4.868   2.564  12.562 -0.1221  0.1237 -0.1974
 6232TIP3    H140111   4.890   2.548  12.654 -2.0645 -1.3087  0.0792
 6232TIP3    H240112   4.874   2.659  12.552  1.5140  0.1774  1.0097
 6233TIP3   OH240113   0.920   2.929  16.389  0.1133  0.2250 -0.3451
 6233TIP3    H140114   0.930   3.021  16.413  0.5383 -0.0459  0.5748
 6233TIP3    H240115   0.898   2.885  16.471 -1.6198 -0.2866 -1.0387
 6234TIP3   OH240116   1.447   2.567   2.212  0.5250  0.5003 -0.1124
 6234TIP3    H140117   1.457   2.657   2.180  2.5673  1.2279  2.2572
 6234TIP3    H240118   1.524   2.521   2.178  0.4168  0.1398  0.1276
 6235TIP3   OH240119   3.900   3.494  12.218  0.0292  0.0866  0.2837
 6235TIP3    H140120   3.869   3.543  12.294  1.4506  2.5735 -0.6118
 6235TIP3    H240121   3.824   3.491  12.159 -0.3390  0.4560  0.7268
 6236TIP3   OH240122   6.715   0.645  12.671 -0.7762 -0.3288  0.1541
 6236TIP3    H140123   6.740   0.737  12.669  0.4545 -0.5701  1.7995
 6236TIP3    H240124   6.799   0.598  12.674 -1.3159 -1.6157 -2.3691
 6237TIP3   OH240125   2.770   5.201   1.032 -0.0215  0.5637 -0.5780
 6237TIP3    H140126   2.680   5.170   1.037  0.1817  0.1389  1.0858
 6237TIP3    H240127   2.816   5.134   0.982 -0.5022  0.5028 -0.9494
 6238TIP3   OH240128   3.132   1.794   3.525 -0.1970 -0.1732  0.5217
 6238TIP3    H140129   3.226   1.798   3.546 -0.2619  1.2539  0.6306
 6238TIP3    H240130   3.090   1.833   3.601 -0.6200  2.6236 -1.0347
 6239TIP3   OH240131   1.498   2.998   5.887  0.4634  0.1292  0.0004
 6239TIP3    H140132   1.483   2.973   5.979  0.3359 -0.4429 -0.1725
 6239TIP3    H240133   1.524   3.089   5.892  1.0055 -0.0501  0.6562
 6240TIP3   OH240134   2.424   2.549  10.600 -0.4137  0.3417 -0.2553
 6240TIP3    H140135   2.420   2.465  10.554 -0.2500  0.2329 -0.0715
 6240TIP3    H240136   2.361   2.540  10.672 -1.7417  1.0225 -1.2883
 6241TIP3   OH240137   3.485   1.972   4.592 -0.7460 -0.5383  0.2462
 6241TIP3    H140138   3.444   2.004   4.673 -0.3048  0.8712 -0.0570
 6241TIP3    H240139   3.416   1.924   4.547 -1.7884  0.9094  0.2418
 6242TIP3   OH240140   5.325   6.516   0.244  0.2789  0.5870 -0.0994
 6242TIP3    H140141   5.335   6.564   0.327 -0.1016  1.6616 -0.6529
 6242TIP3    H240142   5.233   6.528   0.221 -0.1549 -1.4610  0.3452
 6243TIP3   OH240143   0.970   1.148   4.371  0.1966  0.1786  0.0375
 6243TIP3    H140144   1.038   1.096   4.329 -0.9527 -1.8033  0.4618
 6243TIP3    H240145   1.015   1.225   4.404  2.2177 -1.0196  0.2434
 6244TIP3   OH240146   3.927   0.159   2.587 -0.3980  0.1452  0.1816
 6244TIP3    H140147   3.954   0.247   2.564  1.4986 -0.2139  0.8663
 6244TIP3    H240148   3.851   0.142   2.532  1.4341  0.8271 -2.7979
 6245TIP3   OH240149   3.594   5.214   1.549  0.2021 -0.0002 -0.7631
 6245TIP3    H140150   3.559   5.249   1.467  0.5179  2.7434  0.2080
 6245TIP3    H240151   3.563   5.123   1.550 -2.9941  0.9390 -2.1119
 6246TIP3   OH240152   5.340   3.728   2.685  0.1184 -0.4008 -0.0058
 6246TIP3    H140153   5.305   3.736   2.774 -0.7506 -0.0136 -0.3690
 6246TIP3    H240154   5.432   3.755   2.693  0.0196 -0.2492  0.7495
 6247TIP3   OH240155   2.808   6.769  17.006  0.3388  0.2606 -0.0863
 6247TIP3    H140156   2.883   6.731  16.961  0.3455 -0.2139  0.3140
 6247TIP3    H240157   2.763   6.695  17.045 -0.8166  0.4519 -1.0041
 6248TIP3   OH240158   5.708   4.800   5.160  0.2014  0.0164  0.5270
 6248TIP3    H140159   5.694   4.893   5.142  1.0372  0.3182  1.3982
 6248TIP3    H240160   5.764   4.770   5.089 -0.4054  0.0606  0.0131
 6249TIP3   OH240161   1.420   1.563  16.899 -0.1290 -0.2209  0.0465
 6249TIP3    H140162   1.348   1.605  16.946 -0.9720 -0.9879 -0.5094
 6249TIP3    H240163   1.495   1.572  16.957 -0.9308 -0.3491  1.1404
 6250TIP3   OH240164   2.385   2.806  11.159  0.7811  0.5469 -0.1407
 6250TIP3    H140165   2.353   2.893  11.182 -0.1680  0.2791 -0.4242
 6250TIP3    H240166   2.365   2.796  11.067  0.1067 -0.3056  0.0913
 6251TIP3   OH240167   2.974   1.717  15.449  0.1987 -0.7437  0.1260
 6251TIP3    H140168   2.936   1.720  15.362  0.5936  1.1229 -0.0262
 6251TIP3    H240169   2.987   1.624  15.467 -0.4872 -1.1881 -1.5256
 6252TIP3   OH240170   4.444   1.577  11.307  0.2675  0.1356 -0.3615
 6252TIP3    H140171   4.417   1.648  11.248  0.7549  0.6427  0.0134
 6252TIP3    H240172   4.537   1.564  11.285  0.6541  0.8278  0.7826
 6253TIP3   OH240173   4.661   4.757   3.257 -0.1052  0.1017  0.3301
 6253TIP3    H140174   4.711   4.676   3.253 -2.0785 -1.1171 -2.4319
 6253TIP3    H240175   4.694   4.810   3.185  0.9778  1.7640  1.9336
 6254TIP3   OH240176   5.199   2.711   6.089  0.3125  0.0712 -0.2737
 6254TIP3    H140177   5.279   2.662   6.110  0.5740  0.6921  0.1910
 6254TIP3    H240178   5.150   2.714   6.171 -0.2287 -0.3675 -0.5747
 6255TIP3   OH240179   2.733   1.356   4.860  0.3968  0.6828 -0.0662
 6255TIP3    H140180   2.796   1.407   4.809  0.9002  0.8874  0.7434
 6255TIP3    H240181   2.715   1.410   4.937 -0.2924  0.3416  0.0201
 6256TIP3   OH240182   3.996   6.662   1.224  0.3707 -0.1117 -0.3303
 6256TIP3    H140183   3.959   6.609   1.153 -0.0678  0.6364 -0.6754
 6256TIP3    H240184   4.083   6.624   1.239 -0.3770 -1.6909  0.2632
 6257TIP3   OH240185   3.753   0.928   2.252  0.6322 -0.0071  0.5230
 6257TIP3    H140186   3.698   0.936   2.174  2.6714 -1.3058 -1.1258
 6257TIP3    H240187   3.839   0.960   2.226  1.2027  0.2360  2.4871
 6258TIP3   OH240188   5.726   2.537   1.223  0.0718  0.0281 -0.3506
 6258TIP3    H140189   5.706   2.503   1.310  1.1221 -0.3786 -0.2590
 6258TIP3    H240190   5.719   2.461   1.165  0.7759 -0.0006 -0.4026
 6259TIP3   OH240191   1.707   1.146   5.681 -0.2635 -0.2123 -0.0580
 6259TIP3    H140192   1.633   1.192   5.720 -0.9764 -0.0782 -1.4935
 6259TIP3    H240193   1.783   1.176   5.730 -1.1143 -0.1102  1.2407
 6260TIP3   OH240194   4.258   4.052   1.190 -0.2814  0.3526 -0.2784
 6260TIP3    H140195   4.327   3.987   1.179  0.3768  1.0820 -0.5768
 6260TIP3    H240196   4.240   4.052   1.284  0.1400  0.1651 -0.1945
 6261TIP3   OH240197   2.162   4.820   5.128 -0.9669  0.6137  0.2832
 6261TIP3    H140198   2.098   4.790   5.064 -0.4530 -1.6366  0.7250
 6261TIP3    H240199   2.117   4.811   5.213 -0.2527 -0.6174  0.5610
 6262TIP3   OH240200   4.377   4.556  15.419 -0.0385 -0.1528 -0.2077
 6262TIP3    H140201   4.433   4.497  15.368 -0.7038 -1.6750  0.7697
 6262TIP3    H240202   4.400   4.643  15.387  1.1598 -0.8998 -1.5201
 6263TIP3   OH240203   2.982   5.932  16.225  0.4421  0.2100 -1.2136
 6263TIP3    H140204   3.006   6.019  16.255 -0.9174  0.6362 -1.2986
 6263TIP3    H240205   2.997   5.934  16.130  0.6423  0.2731 -1.1799
 6264TIP3   OH240206   3.452   6.607  11.922  0.6741 -0.3006  0.0232
 6264TIP3    H140207   3.514   6.631  11.853  2.0430  1.7286  1.8403
 6264TIP3    H240208   3.474   6.515  11.942  0.9152 -0.6035 -1.5160
 6265TIP3   OH240209   0.506   0.722  13.384 -0.7314 -0.3948  0.1914
 6265TIP3    H140210   0.524   0.640  13.338  0.8927  0.1394 -0.1899
 6265TIP3    H240211   0.462   0.777  13.318 -1.3878 -0.7761  0.3022
 6266TIP3   OH240212   2.747   2.978  12.741  0.0153 -0.0220  0.4319
 6266TIP3    H140213   2.829   2.945  12.705  0.3595 -0.5081  1.6019
 6266TIP3    H240214   2.683   2.969  12.670  0.6508 -0.9717 -0.0398
 6267TIP3   OH240215   4.401   5.127  11.264  0.0082 -0.7416  0.0691
 6267TIP3    H140216   4.434   5.130  11.174  0.8167 -0.0768  0.3665
 6267TIP3    H240217   4.401   5.219  11.292  0.1982 -0.9807  0.8906
 6268TIP3   OH240218   4.840   1.091   1.252  0.5981 -0.0213 -0.3932
 6268TIP3    H140219   4.759   1.040   1.260 -0.4857  1.6924  0.2007
 6268TIP3    H240220   4.864   1.112   1.342  0.9955  0.5471 -0.6251
 6269TIP3   OH240221   0.508   0.555  16.239  0.4244  0.0741 -0.5993
 6269TIP3    H140222   0.489   0.633  16.187  0.7241  0.7454  0.2774
 6269TIP3    H240223   0.441   0.555  16.308 -0.8377 -1.5679 -1.7321
 6270TIP3   OH240224   4.302   3.078   1.384 -0.1634  0.2975 -0.0101
 6270TIP3    H140225   4.323   3.141   1.453 -0.8385 -0.0655  0.5490
 6270TIP3    H240226   4.308   2.993   1.427  3.2966 -0.2776 -1.3893
 6271TIP3   OH240227   5.496   5.506  16.934 -0.3247 -0.0496  0.1744
 6271TIP3    H140228   5.530   5.595  16.919  1.5772 -0.7332  0.1812
 6271TIP3    H240229   5.424   5.498  16.872  0.7539  0.8353 -1.2723
 6272TIP3   OH240230   1.763   5.192  11.605 -0.2930 -0.0782  0.5083
 6272TIP3    H140231   1.833   5.132  11.581 -0.5014  0.1998 -0.9057
 6272TIP3    H240232   1.781   5.271  11.553 -1.7551 -0.0745 -0.0272
 6273TIP3   OH240233   0.991   0.746  15.800 -0.0618 -0.5137 -0.2310
 6273TIP3    H140234   0.979   0.711  15.888 -0.6146  2.1600  0.8277
 6273TIP3    H240235   0.940   0.827  15.798  1.9102  0.8150 -2.1901
 6274TIP3   OH240236   3.156   5.579   2.171  0.0013  0.0687  0.3908
 6274TIP3    H140237   3.125   5.546   2.255  1.4198  0.7653  1.2185
 6274TIP3    H240238   3.076   5.603   2.124 -0.8208 -0.4773  1.4717
 6275TIP3   OH240239   0.118   4.782   3.959  0.0635 -0.1605 -0.0306
 6275TIP3    H140240   0.209   4.790   3.931 -0.4494  0.7748 -1.5572
 6275TIP3    H240241   0.109   4.847   4.029  0.0805  1.2259 -1.2755
 6276TIP3   OH240242   1.370   1.152   5.022 -0.2026  0.0173 -0.3214
 6276TIP3    H140243   1.353   1.132   5.114 -0.4327  1.0175 -0.1402
 6276TIP3    H240244   1.356   1.068   4.977 -2.4951  0.0218  0.2292
 6277TIP3   OH240245   1.151   4.841  13.566  0.1452 -0.1246 -0.0612
 6277TIP3    H140246   1.164   4.914  13.505 -0.2997 -0.9591 -1.1699
 6277TIP3    H240247   1.227   4.844  13.624  0.3913  0.8926 -0.4192
 6278TIP3   OH240248   2.561   5.117  11.317  0.1167  0.1280  0.3171
 6278TIP3    H140249   2.569   5.034  11.363  0.4016 -0.2204 -0.3614
 6278TIP3    H240250   2.541   5.094  11.227 -0.1876  0.8046  0.2021
 6279TIP3   OH240251   0.423   5.627  16.801  0.0098 -0.0506  0.2233
 6279TIP3    H140252   0.392   5.594  16.716  1.4523  1.3396 -0.8969
 6279TIP3    H240253   0.497   5.570  16.822  1.6386  1.4681 -1.0499
 6280TIP3   OH240254   2.196   2.234  12.871  0.1649 -0.3948  0.4156
 6280TIP3    H140255   2.226   2.272  12.954  1.7705  0.4653 -0.4983
 6280TIP3    H240256   2.114   2.280  12.852 -1.2952 -1.9632  2.4080
 6281TIP3   OH240257   1.732   0.744  14.293  0.5847 -0.4030  0.2785
 6281TIP3    H140258   1.699   0.832  14.315  0.5801 -0.4407  0.4261
 6281TIP3    H240259   1.814   0.737  14.342  0.4147 -0.6105  0.5362
 6282TIP3   OH240260   6.056   6.701   3.050 -0.3291  0.1854  0.1749
 6282TIP3    H140261   6.118   6.630   3.031  1.1447  1.6905 -0.8644
 6282TIP3    H240262   5.993   6.697   2.978 -0.5593 -0.3839  0.4015
 6283TIP3   OH240263   3.785   5.099   4.996  0.0151 -0.8749  0.0230
 6283TIP3    H140264   3.806   5.034   4.929  2.4998 -1.0825  0.8695
 6283TIP3    H240265   3.777   5.181   4.948  0.0073 -1.3007 -0.7214
 6284TIP3   OH240266   1.606   5.276   1.271  0.6447  0.0096 -0.3567
 6284TIP3    H140267   1.534   5.214   1.279 -0.5503  1.5350  5.1834
 6284TIP3    H240268   1.564   5.362   1.262  1.7953  0.7471  0.7945
 6285TIP3   OH240269   4.232   6.156  12.175 -0.0329 -0.4375 -0.1897
 6285TIP3    H140270   4.198   6.212  12.105  0.5725 -0.8695 -0.8338
 6285TIP3    H240271   4.326   6.152  12.160  0.9429  3.0733  3.1961
 6286TIP3   OH240272   4.278   0.388  13.727  0.0537  0.3231 -0.0750
 6286TIP3    H140273   4.254   0.480  13.738 -0.6721  0.3806 -1.8779
 6286TIP3    H240274   4.371   0.390  13.704 -0.0782  0.6291 -0.5732
 6287TIP3   OH240275   5.234   2.112  11.908 -0.1157 -0.3026 -0.0289
 6287TIP3    H140276   5.153   2.111  11.959 -0.1662  1.1874 -0.0476
 6287TIP3    H240277   5.216   2.057  11.832 -1.1503  0.0950 -0.0852
 6288TIP3   OH240278   3.882   0.664   6.017 -0.0896 -0.0066 -0.2836
 6288TIP3    H140279   3.870   0.658   6.111  1.0845  0.7910 -0.0696
 6288TIP3    H240280   3.966   0.707   6.005  0.2040 -0.8766 -1.6981
 6289TIP3   OH240281   1.217   4.105  16.214  0.0151 -0.1407 -0.4739
 6289TIP3    H140282   1.196   4.164  16.287 -1.4635 -1.6940  0.4290
 6289TIP3    H240283   1.174   4.145  16.139 -0.2329  0.3851 -0.0642
 6290TIP3   OH240284   0.769   2.145   2.912  0.0687 -0.7219 -0.6396
 6290TIP3    H140285   0.819   2.174   2.988 -2.4235  0.0999  0.8148
 6290TIP3    H240286   0.830   2.090   2.862  2.3293  0.1640  0.9967
 6291TIP3   OH240287   4.795   2.739  17.325  0.1727 -0.3808  0.3014
 6291TIP3    H140288   4.741   2.814  17.350 -1.4650 -1.3741 -0.0896
 6291TIP3    H240289   4.835   2.710  17.407  0.0983  0.3574  0.6064
 6292TIP3   OH240290   2.579   1.489  12.697 -0.0360 -0.0989 -0.3498
 6292TIP3    H140291   2.503   1.514  12.644  1.4373  1.4777 -1.8530
 6292TIP3    H240292   2.649   1.476  12.633  1.3591 -0.0143  1.0994
 6293TIP3   OH240293   6.742   4.269  16.659  0.3258  0.0746  0.2864
 6293TIP3    H140294   6.726   4.201  16.725 -0.8798  2.0692  2.1839
 6293TIP3    H240295   6.837   4.277  16.656  0.7911 -3.6746 -2.2676
 6294TIP3   OH240296   4.847   3.886   4.561  0.3791 -0.6827 -0.2310
 6294TIP3    H140297   4.783   3.837   4.612  0.0992 -2.1433 -1.8955
 6294TIP3    H240298   4.926   3.833   4.564  1.6777  1.2157  1.9967
 6295TIP3   OH240299   0.670   0.992  11.677 -0.4583 -0.5508  0.3928
 6295TIP3    H140300   0.600   1.024  11.620 -1.1918 -2.4044  0.1944
 6295TIP3    H240301   0.639   1.011  11.765 -1.1520 -1.1655  0.2971
 6296TIP3   OH240302   5.891   1.191   3.330 -0.2727 -0.1883 -0.0076
 6296TIP3    H140303   5.910   1.100   3.307  1.5297  0.0835  0.2209
 6296TIP3    H240304   5.908   1.240   3.250  4.0719  0.5119  1.0391
 6297TIP3   OH240305   6.194   4.658  15.892 -0.6710  0.3989 -0.1958
 6297TIP3    H140306   6.159   4.705  15.967 -1.5348 -1.6175  0.7520
 6297TIP3    H240307   6.155   4.571  15.898 -2.5313  0.7228 -4.2017
 6298TIP3   OH240308   5.695   2.126  13.127 -0.1914  0.3659 -0.1149
 6298TIP3    H140309   5.617   2.169  13.092 -1.5070  0.3096  2.4628
 6298TIP3    H240310   5.769   2.170  13.084 -1.5859  0.5780 -2.4678
 6299TIP3   OH240311   0.901   0.312   4.226 -0.1180 -0.2503 -0.0479
 6299TIP3    H140312   0.937   0.375   4.163 -1.4739 -0.4363 -1.0743
 6299TIP3    H240313   0.954   0.234   4.215 -0.3701 -0.3019 -1.0489
 6300TIP3   OH240314   3.440   5.825  14.420 -0.3055  0.2820 -0.1334
 6300TIP3    H140315   3.479   5.778  14.494 -2.0527 -0.7362  0.2113
 6300TIP3    H240316   3.485   5.909  14.418  1.1198 -0.4119  0.8734
 6301TIP3   OH240317   5.280   0.643   5.883 -0.2778 -0.1668 -0.3285
 6301TIP3    H140318   5.306   0.588   5.810  0.9706  1.7636 -1.4377
 6301TIP3    H240319   5.362   0.663   5.928 -0.7621  0.3298  0.3588
 6302TIP3   OH240320   0.156   2.047  13.201  0.4073  0.0879 -0.6884
 6302TIP3    H140321   0.120   2.135  13.188 -1.9770 -1.0487 -2.4293
 6302TIP3    H240322   0.082   1.994  13.230  1.8825 -1.3250  0.7676
 6303TIP3   OH240323   2.949   0.738   4.109  0.0754 -0.9230  0.4248
 6303TIP3    H140324   2.895   0.769   4.037  1.5736  0.2737 -0.2330
 6303TIP3    H240325   2.991   0.659   4.075 -0.7410 -1.4985  0.7186
 6304TIP3   OH240326   1.662   6.273   0.468 -0.6284  0.1289  0.4986
 6304TIP3    H140327   1.678   6.348   0.526  1.6528  0.5495 -0.5845
 6304TIP3    H240328   1.579   6.236   0.499 -2.6750  3.9488  0.1699
 6305TIP3   OH240329   1.129   2.343   4.119 -0.1357  0.8023  0.2443
 6305TIP3    H140330   1.198   2.283   4.090 -1.1290 -0.3980  0.2575
 6305TIP3    H240331   1.146   2.424   4.071  0.6213  0.1611 -0.6219
 6306TIP3   OH240332   2.193   0.434   3.683  0.0480  0.5332 -0.0280
 6306TIP3    H140333   2.108   0.406   3.650  0.2932 -1.6028  0.9428
 6306TIP3    H240334   2.174   0.476   3.767 -0.1406  1.0481 -0.3304
 6307TIP3   OH240335   1.091   1.799   0.620 -0.3387 -0.3843  0.5202
 6307TIP3    H140336   1.028   1.728   0.627  0.5951 -1.3266 -0.2088
 6307TIP3    H240337   1.128   1.809   0.708 -1.2885  0.0053  0.8908
 6308TIP3   OH240338   5.000   5.598   2.981 -0.4716 -0.1768  0.0352
 6308TIP3    H140339   5.024   5.523   2.927  0.7706 -0.2118  0.6004
 6308TIP3    H240340   5.004   5.565   3.071 -0.6888  0.3581  0.2449
 6309TIP3   OH240341   5.970   6.432  14.400  0.4965 -0.0066 -0.1338
 6309TIP3    H140342   6.004   6.500  14.458 -0.7521 -1.3699  2.3498
 6309TIP3    H240343   5.910   6.478  14.341  0.2920  1.1628  0.9571
 6310TIP3   OH240344   2.325   1.154  13.061 -0.3422 -0.5635 -0.5776
 6310TIP3    H140345   2.280   1.111  12.989 -0.1040 -0.4138 -0.8203
 6310TIP3    H240346   2.391   1.209  13.018 -1.1351  0.6261 -0.3245
 6311TIP3   OH240347   3.437   2.470  16.708  0.1083  0.7171  0.5933
 6311TIP3    H140348   3.342   2.467  16.693 -0.1875 -1.2205  2.4430
 6311TIP3    H240349   3.464   2.379  16.714  1.6522  1.2255  2.5728
 6312TIP3   OH240350   2.347   6.433  12.504 -0.1355  0.8589  0.5292
 6312TIP3    H140351   2.307   6.503  12.556 -0.5144 -0.6378  2.3557
 6312TIP3    H240352   2.368   6.475  12.420 -1.4328  2.8380  1.1140
 6313TIP3   OH240353   2.622   0.397   1.623 -0.3609  0.5647 -0.1782
 6313TIP3    H140354   2.619   0.484   1.663  1.5769  0.2932  0.6476
 6313TIP3    H240355   2.696   0.400   1.562  0.4591 -0.8167  0.6926
 6314TIP3   OH240356   5.513   3.699  16.519  0.4472  0.0223 -0.0309
 6314TIP3    H140357   5.433   3.647  16.525 -0.1154  0.8852  0.2721
 6314TIP3    H240358   5.570   3.664  16.587 -0.2137  0.2752  0.6678
 6315TIP3   OH240359   3.625   3.855   3.363 -0.0639  0.1887  0.7360
 6315TIP3    H140360   3.531   3.873   3.360 -0.0253  0.3806  0.6332
 6315TIP3    H240361   3.632   3.760   3.356 -0.2360  0.1997  0.3923
 6316TIP3   OH240362   3.706   2.328   4.212  0.3277 -0.0621 -0.6189
 6316TIP3    H140363   3.726   2.236   4.194  1.0386  0.0978 -0.6961
 6316TIP3    H240364   3.615   2.328   4.240  0.3537 -0.8076 -0.5109
 6317TIP3   OH240365   1.049   1.372  15.936 -0.1648  0.0733 -0.0540
 6317TIP3    H140366   0.975   1.355  15.877  0.8373 -0.6958 -1.1312
 6317TIP3    H240367   1.051   1.467  15.945 -0.6070  0.1738 -0.9285
 6318TIP3   OH240368   2.685   4.658   2.707 -1.1161 -0.0100 -0.2109
 6318TIP3    H140369   2.737   4.587   2.747 -0.2942  0.8944  0.3669
 6318TIP3    H240370   2.595   4.639   2.735 -1.7114 -3.1648 -3.4407
 6319TIP3   OH240371   6.651   3.659  14.413  0.0294 -0.2016  0.0265
 6319TIP3    H140372   6.730   3.686  14.460  0.2104  1.1188 -0.9914
 6319TIP3    H240373   6.647   3.564  14.427  2.4344 -0.4985 -0.8254
 6320TIP3   OH240374   1.988   5.891   2.412  0.3856 -0.1410  0.2805
 6320TIP3    H140375   1.895   5.875   2.425 -0.1319  1.1314 -1.4071
 6320TIP3    H240376   2.029   5.804   2.418 -0.7281 -0.5952  2.0152
 6321TIP3   OH240377   3.641   5.461  12.600  0.6310  0.8388  0.3650
 6321TIP3    H140378   3.630   5.556  12.602  1.8051  0.9764  0.5439
 6321TIP3    H240379   3.700   5.445  12.527  1.1409  0.3252  0.8788
 6322TIP3   OH240380   5.329   1.088  16.915 -0.5587 -0.0891 -0.0257
 6322TIP3    H140381   5.303   1.011  16.964 -2.2178  0.0241 -0.6546
 6322TIP3    H240382   5.370   1.146  16.980 -0.0457 -1.1374  0.6004
 6323TIP3   OH240383   0.848   5.856  17.295  0.3400 -0.0771 -0.4978
 6323TIP3    H140384   0.777   5.903  17.252  0.8908  0.3147 -0.9834
 6323TIP3    H240385   0.906   5.924  17.329  0.8242 -0.3922 -0.6745
 6324TIP3   OH240386   2.523   5.734  16.270 -0.3803  0.3576  0.2836
 6324TIP3    H140387   2.553   5.678  16.341  0.7075 -0.5035 -0.8073
 6324TIP3    H240388   2.458   5.681  16.224 -0.8651  0.7994  0.4457
 6325TIP3   OH240389   0.431   4.444   3.605 -0.8513  0.0380 -0.6455
 6325TIP3    H140390   0.355   4.503   3.604 -1.9964 -1.3900 -1.3816
 6325TIP3    H240391   0.402   4.369   3.657  1.0009  0.5846  1.3082
 6326TIP3   OH240392   3.147   2.642   2.684  0.4041  0.0836 -0.2555
 6326TIP3    H140393   3.210   2.700   2.726  2.2506 -1.7341 -0.3395
 6326TIP3    H240394   3.131   2.574   2.749 -0.5286 -0.1400 -0.7047
 6327TIP3   OH240395   0.002   4.081   2.990  1.0490  0.6084  0.3931
 6327TIP3    H140396   0.082   4.114   3.032  1.6114  0.3531 -0.4387
 6327TIP3    H240397  -0.002   3.989   3.015  1.4065  0.4459 -0.1218
 6328TIP3   OH240398   5.855   5.151   1.512  0.5097 -0.4885  0.2227
 6328TIP3    H140399   5.849   5.163   1.607  0.3758 -0.8691  0.2642
 6328TIP3    H240400   5.841   5.239   1.476 -1.6961 -0.6582  0.4789
 6329TIP3   OH240401   0.932   0.577  13.830 -0.3428  0.6343  0.6638
 6329TIP3    H140402   0.961   0.666  13.808  0.0411  0.1142 -1.1674
 6329TIP3    H240403   0.841   0.574  13.801 -0.4420  0.5122  0.9863
 6330TIP3   OH240404   2.120   5.695  14.580  0.3474  0.1177  0.3375
 6330TIP3    H140405   2.056   5.758  14.546  1.5748  0.9833 -0.4503
 6330TIP3    H240406   2.203   5.743  14.582  0.9715 -0.9284  1.4759
 6331TIP3   OH240407   5.742   5.743   4.034  0.0863  0.3069  0.1881
 6331TIP3    H140408   5.773   5.653   4.031 -0.1865  0.1180  1.8439
 6331TIP3    H240409   5.653   5.737   4.069 -0.4371  1.1320 -0.9285
 6332TIP3   OH240410   2.783   2.222   2.926  0.5212  0.1299  0.1556
 6332TIP3    H140411   2.707   2.269   2.959 -0.1414 -0.4408 -0.5134
 6332TIP3    H240412   2.769   2.131   2.954  0.3921 -0.1919 -0.9217
 6333TIP3   OH240413   1.298   5.327  12.820  0.1277 -0.1885  0.1797
 6333TIP3    H140414   1.344   5.396  12.867  0.9247 -1.0001  0.6304
 6333TIP3    H240415   1.205   5.349  12.829  0.3613  0.6546  0.5748
 6334TIP3   OH240416   4.795   6.240  11.177  0.7287  0.3046 -0.2696
 6334TIP3    H140417   4.774   6.332  11.161 -0.6405 -0.0027 -0.3534
 6334TIP3    H240418   4.838   6.211  11.097 -0.4067  0.4249 -0.9391
 6335TIP3   OH240419   2.664   5.606  13.257  0.1805  0.1734  0.2120
 6335TIP3    H140420   2.690   5.620  13.348  1.5843  1.2785 -0.3295
 6335TIP3    H240421   2.724   5.660  13.206 -0.6272 -0.3697 -1.3787
 6336TIP3   OH240422   6.181   0.873  11.269  0.5526 -0.1153 -0.0452
 6336TIP3    H140423   6.232   0.877  11.350  2.6097 -2.4493 -1.1055
 6336TIP3    H240424   6.159   0.965  11.251 -1.4222  0.4324  3.9013
 6337TIP3   OH240425   5.645   2.312   2.282 -0.0057 -0.4349 -0.0768
 6337TIP3    H140426   5.588   2.248   2.240 -0.5623  1.4971 -2.4926
 6337TIP3    H240427   5.733   2.290   2.253 -0.0342 -0.8884  0.1793
 6338TIP3   OH240428   5.371   0.392  12.810  0.4469  0.3531  0.1467
 6338TIP3    H140429   5.376   0.420  12.718  0.2840  0.5259  0.1902
 6338TIP3    H240430   5.438   0.444  12.854  2.1349 -1.3518 -0.2806
 6339TIP3   OH240431   6.439   2.280  13.976  0.0731 -0.6946 -0.8920
 6339TIP3    H140432   6.361   2.315  14.020  0.3475 -2.0108  0.7583
 6339TIP3    H240433   6.496   2.356  13.963 -0.1717 -0.1871  0.7558
 6340TIP3   OH240434   0.641   3.391  12.692 -0.1551 -0.7639 -0.0419
 6340TIP3    H140435   0.729   3.420  12.717  0.0030 -1.6753  0.5142
 6340TIP3    H240436   0.643   3.296  12.702 -1.1530 -0.8155 -0.1931
 6341TIP3   OH240437   0.954   2.887  14.270 -0.6453  0.2219  0.2003
 6341TIP3    H140438   0.918   2.860  14.354  0.5203  1.2861  1.0862
 6341TIP3    H240439   0.880   2.925  14.223 -1.6450 -1.7228  0.1036
 6342TIP3   OH240440   4.964   1.235  17.220  0.1460 -0.4078  0.4596
 6342TIP3    H140441   4.975   1.164  17.157  0.4260 -0.6430  0.7686
 6342TIP3    H240442   4.994   1.198  17.303  2.5819  0.7910  0.1970
 6343TIP3   OH240443   3.662   6.592  12.276 -0.2595  0.3504 -0.6691
 6343TIP3    H140444   3.654   6.666  12.216  0.7405  1.3701  0.3972
 6343TIP3    H240445   3.692   6.631  12.359  1.1142 -1.3257 -0.3029
 6344TIP3   OH240446   6.242   5.155  16.375  0.7319 -0.7751 -0.0888
 6344TIP3    H140447   6.298   5.094  16.423  1.3707 -0.7874 -0.8363
 6344TIP3    H240448   6.280   5.241  16.392  0.7623 -0.7459 -0.2986
 6345TIP3   OH240449   2.097   0.330  13.843 -0.0851 -0.1135  0.7622
 6345TIP3    H140450   2.048   0.369  13.915  1.8211  1.4639  1.2841
 6345TIP3    H240451   2.158   0.398  13.814  0.1451 -1.1593 -1.4655
 6346TIP3   OH240452   0.862   6.590   4.895 -0.1922  0.4049  0.2229
 6346TIP3    H140453   0.878   6.571   4.802 -2.0226 -6.1467  0.7335
 6346TIP3    H240454   0.949   6.602   4.932  0.7905  0.5696 -1.9586
 6347TIP3   OH240455   4.589   0.271  11.211  0.3030 -0.3021 -0.0954
 6347TIP3    H140456   4.669   0.254  11.162  0.1524  0.1576 -0.5079
 6347TIP3    H240457   4.611   0.249  11.302  0.7168 -0.7338 -0.2943
 6348TIP3   OH240458   4.887   2.338   0.061  0.5555 -0.3343 -0.0061
 6348TIP3    H140459   4.876   2.293  -0.023 -0.8830 -1.1902  0.5853
 6348TIP3    H240460   4.852   2.276   0.125  0.0170  0.9999  1.0313
 6349TIP3   OH240461   3.784   6.543  13.478 -0.0025  0.2528 -0.1624
 6349TIP3    H140462   3.837   6.491  13.539 -1.5839 -0.9539  0.2466
 6349TIP3    H240463   3.775   6.628  13.520  0.9515  0.2191  0.1247
 6350TIP3   OH240464   3.943   2.285  16.387 -0.0781 -0.4704 -0.1169
 6350TIP3    H140465   3.946   2.205  16.335  1.9899 -0.6818  0.2528
 6350TIP3    H240466   3.955   2.255  16.478 -5.0636 -0.2962  0.9139
 6351TIP3   OH240467   6.334   6.369   3.403 -0.0775  0.5348  0.3325
 6351TIP3    H140468   6.280   6.357   3.325 -0.4952  1.1482  0.5233
 6351TIP3    H240469   6.323   6.287   3.451  0.7357 -0.1328 -0.5762
 6352TIP3   OH240470   1.235   3.756  14.260 -0.3672 -0.0679 -0.0147
 6352TIP3    H140471   1.325   3.778  14.282 -0.4117  0.2716 -0.1685
 6352TIP3    H240472   1.197   3.838  14.229 -0.7088 -0.2254 -0.0169
 6353TIP3   OH240473   0.596   4.444   5.715  0.6535  0.4262  0.0594
 6353TIP3    H140474   0.620   4.482   5.799 -0.8759 -2.4148  1.9405
 6353TIP3    H240475   0.511   4.483   5.694  0.0368 -0.4050  0.9513
 6354TIP3   OH240476   6.673   5.734  16.353 -0.0721  0.3121 -0.1846
 6354TIP3    H140477   6.666   5.677  16.277  1.3056  1.7659 -1.4870
 6354TIP3    H240478   6.710   5.679  16.422  1.3519 -0.3514 -1.4323
 6355TIP3   OH240479   3.127   0.838   4.374  0.1083 -0.2645 -0.0987
 6355TIP3    H140480   3.189   0.825   4.302 -0.3735 -1.6269 -0.2941
 6355TIP3    H240481   3.159   0.782   4.444 -0.3790 -0.2624  0.1316
 6356TIP3   OH240482   5.396   6.333  16.450 -0.3637 -0.5246  0.2020
 6356TIP3    H140483   5.357   6.418  16.471 -0.2159 -0.0819 -1.1825
 6356TIP3    H240484   5.490   6.347  16.455 -0.3340 -0.5240 -0.2840
 6357TIP3   OH240485   6.547   6.119   0.861  0.2464 -0.2676  0.5197
 6357TIP3    H140486   6.637   6.123   0.895  1.2119  0.6106 -1.9098
 6357TIP3    H240487   6.492   6.116   0.939  2.1755  3.4555  2.2614
 6358TIP3   OH240488   0.908   4.500  12.699  0.6703 -0.0177  0.7241
 6358TIP3    H140489   0.893   4.415  12.657 -0.7568  0.6197 -0.1112
 6358TIP3    H240490   0.859   4.563  12.646  0.2330  1.0782  2.3479
 6359TIP3   OH240491   4.625   5.881  11.461  0.0255  0.0813 -0.3503
 6359TIP3    H140492   4.660   5.957  11.508  1.1441  0.5571 -1.8698
 6359TIP3    H240493   4.586   5.918  11.382 -2.0090 -0.6857  0.2359
 6360TIP3   OH240494   1.639   4.552  14.974  0.1050  0.2223 -0.2510
 6360TIP3    H140495   1.547   4.581  14.973 -0.2946 -0.8951  1.0113
 6360TIP3    H240496   1.648   4.501  14.894 -0.2852  0.6120 -0.5509
 6361TIP3   OH240497   4.552   6.174  14.117 -0.5616 -0.0474  0.3584
 6361TIP3    H140498   4.536   6.084  14.089  0.4085 -0.3282  0.6418
 6361TIP3    H240499   4.598   6.165  14.201  0.7233  0.6576 -0.2373
 6362TIP3   OH240500   2.834   2.826   0.001  0.1404  0.6885  0.5988
 6362TIP3    H140501   2.794   2.845  -0.084  1.5305 -2.4691 -0.9087
 6362TIP3    H240502   2.765   2.781   0.051 -0.1861  1.1256  0.5444
 6363TIP3   OH240503   4.084   4.779  11.424  0.3849 -0.1056 -0.2889
 6363TIP3    H140504   4.081   4.834  11.346 -0.1610  0.1087 -0.1194
 6363TIP3    H240505   4.142   4.825  11.485 -2.1070  1.7033  0.9027
 6364TIP3   OH240506   3.878   3.164  16.064  0.5704  0.1645 -0.0165
 6364TIP3    H140507   3.841   3.246  16.031 -2.6610 -1.4213 -0.7132
 6364TIP3    H240508   3.828   3.145  16.143  0.1657 -1.8548 -0.7021
 6365TIP3   OH240509   2.687   6.453   1.073  0.5541  0.2093  0.3793
 6365TIP3    H140510   2.704   6.545   1.093 -0.1471  0.6219 -0.8021
 6365TIP3    H240511   2.606   6.434   1.121 -0.6492  0.9455 -1.2614
 6366TIP3   OH240512   2.942   1.641   6.168 -0.1505  0.5192  0.5234
 6366TIP3    H140513   2.969   1.557   6.206  1.7052  1.8575  2.4376
 6366TIP3    H240514   3.019   1.697   6.179 -2.2284  3.3366  2.0817
 6367TIP3   OH240515   2.575   1.452  11.327 -0.2316  0.1318 -0.1204
 6367TIP3    H140516   2.670   1.439  11.334 -0.3047 -0.2024  0.2700
 6367TIP3    H240517   2.565   1.517  11.257  0.3186  0.6175  0.2411
 6368TIP3   OH240518   1.011   0.286   6.651  0.1947 -0.4677 -0.6085
 6368TIP3    H140519   1.053   0.342   6.585  1.8826  0.4138  1.1256
 6368TIP3    H240520   1.082   0.234   6.688 -0.9532 -1.9737 -0.4122
 6369TIP3   OH240521   3.858   1.433   6.312 -0.1967  0.1475 -0.1686
 6369TIP3    H140522   3.861   1.507   6.372  0.4232 -1.7922  2.3165
 6369TIP3    H240523   3.764   1.415   6.300 -0.3157  0.2623  0.5963
 6370TIP3   OH240524   2.661   5.235  16.032  0.5651  0.2742 -0.5000
 6370TIP3    H140525   2.607   5.300  15.988 -0.5201 -0.2973 -0.0601
 6370TIP3    H240526   2.750   5.268  16.024  0.0232  1.8941 -0.1158
 6371TIP3   OH240527   3.010   2.493   2.308 -0.2909 -0.8308  0.2439
 6371TIP3    H140528   2.942   2.485   2.376 -1.4289 -0.8169 -0.8548
 6371TIP3    H240529   2.968   2.461   2.228  0.8602 -0.3826 -0.5682
 6372TIP3   OH240530   1.378   4.905  15.801 -0.2054  0.1408  0.0892
 6372TIP3    H140531   1.315   4.848  15.844  1.1650 -1.7853 -0.3056
 6372TIP3    H240532   1.379   4.875  15.710  0.2532  1.0906 -0.2347
 6373TIP3   OH240533   1.242   2.155  11.741  0.5565 -0.0176 -0.1903
 6373TIP3    H140534   1.306   2.094  11.779 -1.7801 -1.1874  2.1178
 6373TIP3    H240535   1.242   2.230  11.800 -0.1462  0.0154 -0.2314
 6374TIP3   OH240536   1.979   5.163   5.200  0.0591 -0.2435 -0.1889
 6374TIP3    H140537   1.975   5.194   5.110 -0.4017  0.4059  0.0434
 6374TIP3    H240538   1.980   5.068   5.193 -0.9307 -0.2208 -0.8619
 6375TIP3   OH240539   2.322   1.524   2.208  0.8801  0.2365  0.0460
 6375TIP3    H140540   2.298   1.585   2.139 -0.0210 -0.1034  0.0429
 6375TIP3    H240541   2.248   1.463   2.213  2.0431 -1.2772 -0.4383
 6376TIP3   OH240542   4.757   4.214  12.261  0.8553 -0.1747  0.2593
 6376TIP3    H140543   4.815   4.151  12.305 -1.2783 -2.1158  0.4992
 6376TIP3    H240544   4.669   4.181  12.278 -0.2641  1.5308 -1.7449
 6377TIP3   OH240545   4.766   2.059   1.638  0.7701 -0.4916  0.2071
 6377TIP3    H140546   4.770   1.988   1.574 -0.9400 -1.1714  0.7743
 6377TIP3    H240547   4.809   2.133   1.595 -0.4361 -0.8697 -1.7850
 6378TIP3   OH240548   4.199   6.110   2.175  0.4668  0.4064  0.3000
 6378TIP3    H140549   4.199   6.198   2.212 -0.0813  0.4185  0.2896
 6378TIP3    H240550   4.269   6.110   2.110  1.2502  0.4769  1.1267
 6379TIP3   OH240551   6.405   5.328   0.028 -0.7388 -0.0159  0.3147
 6379TIP3    H140552   6.327   5.277   0.048 -1.5683  1.0561 -0.0860
 6379TIP3    H240553   6.439   5.355   0.113  0.1052 -1.7485  0.5760
 6380TIP3   OH240554   4.365   1.182   4.554  0.2330 -0.0107 -0.8373
 6380TIP3    H140555   4.408   1.197   4.470 -1.5628 -0.3154 -1.8784
 6380TIP3    H240556   4.274   1.210   4.539 -0.4042 -1.1270  0.6547
 6381TIP3   OH240557   2.903   5.105   4.233  0.3012  0.0872  0.0188
 6381TIP3    H140558   2.891   5.096   4.138 -2.8409  0.5493  0.2607
 6381TIP3    H240559   2.929   5.197   4.244 -1.2035  0.5822 -0.3214
 6382TIP3   OH240560   4.827   3.373   6.171  0.9181 -0.0671 -0.0364
 6382TIP3    H140561   4.916   3.365   6.204  0.9138 -0.1375 -0.0436
 6382TIP3    H240562   4.791   3.285   6.173  0.4924  0.1157  0.9416
 6383TIP3   OH240563   4.251   3.635  13.043 -0.8761 -0.5088 -0.6284
 6383TIP3    H140564   4.190   3.564  13.064  0.8528 -1.9723 -0.3808
 6383TIP3    H240565   4.277   3.669  13.129 -0.5864 -0.5338 -0.7079
 6384TIP3   OH240566   3.366   3.709  14.126 -0.2507 -0.1256  0.5095
 6384TIP3    H140567   3.272   3.726  14.124 -0.6487 -1.3541  3.4847
 6384TIP3    H240568   3.405   3.794  14.150 -0.8104 -0.1038  1.3606
 6385TIP3   OH240569   5.595   2.575   3.931  0.1394  0.2724 -0.4766
 6385TIP3    H140570   5.629   2.513   3.867  0.9355 -0.3160  0.4941
 6385TIP3    H240571   5.592   2.527   4.013 -1.4964  0.8191 -0.1750
 6386TIP3   OH240572   0.214   3.201  14.992 -0.2113  0.1907 -0.3026
 6386TIP3    H140573   0.257   3.149  15.060 -0.5485 -0.3593 -0.5051
 6386TIP3    H240574   0.283   3.259  14.960  0.1025  0.0500  0.1027
 6387TIP3   OH240575   4.000   3.301  11.880 -0.4560 -0.0146  0.9086
 6387TIP3    H140576   3.949   3.363  11.827  1.2578  0.6679 -0.0359
 6387TIP3    H240577   4.030   3.353  11.955 -2.0669 -0.7265  2.0988
 6388TIP3   OH240578   6.055   5.856  14.708  0.1398  0.2682  0.3887
 6388TIP3    H140579   5.961   5.851  14.726 -0.2840  3.2150 -0.3363
 6388TIP3    H240580   6.062   5.850  14.613  0.8486 -1.0328  0.4991
 6389TIP3   OH240581   2.300   3.733   0.201 -0.3527 -0.0510  0.2625
 6389TIP3    H140582   2.362   3.670   0.163 -0.3598  0.9444 -1.5240
 6389TIP3    H240583   2.354   3.808   0.225 -0.6886  0.3347 -0.1647
 6390TIP3   OH240584   3.206   1.759   4.205  0.2573  0.4338 -0.1192
 6390TIP3    H140585   3.256   1.833   4.172 -0.7796  0.7409 -1.0698
 6390TIP3    H240586   3.118   1.793   4.218 -0.3719 -0.7372 -1.0982
 6391TIP3   OH240587   4.471   2.159  11.265 -0.1258 -0.1016  0.2520
 6391TIP3    H140588   4.433   2.133  11.181  0.4000 -1.9524  0.5357
 6391TIP3    H240589   4.478   2.254  11.260 -2.4451  0.0779 -0.7775
 6392TIP3   OH240590   3.116   4.211  14.664 -0.2859  0.0727 -0.2617
 6392TIP3    H140591   3.033   4.187  14.623  0.3656  0.4133 -1.8524
 6392TIP3    H240592   3.183   4.169  14.610  0.5962  0.0394  0.8188
 6393TIP3   OH240593   4.936   6.136  12.472  0.2189 -0.0236 -0.4615
 6393TIP3    H140594   4.935   6.106  12.563 -2.0904 -1.4662 -0.8971
 6393TIP3    H240595   4.947   6.231  12.478 -0.6186 -0.0054  1.3543
 6394TIP3   OH240596   1.577   3.478  14.625  0.1533  0.0905  0.7594
 6394TIP3    H140597   1.641   3.549  14.625 -0.2355  0.4463  0.7673
 6394TIP3    H240598   1.493   3.522  14.641  0.1754 -0.6033  3.1590
 6395TIP3   OH240599   3.807   1.397  11.058 -0.5541 -0.5007 -0.4005
 6395TIP3    H140600   3.820   1.391  11.153 -2.2945  0.4887 -0.0464
 6395TIP3    H240601   3.743   1.328  11.039 -0.7212 -0.2586 -0.7269
 6396TIP3   OH240602   3.224   5.897   5.437  0.1088  0.1252  0.3284
 6396TIP3    H140603   3.159   5.837   5.403 -0.0531  0.4955 -0.0225
 6396TIP3    H240604   3.281   5.843   5.491 -0.5792 -0.1683  0.7626
 6397TIP3   OH240605   3.664   3.876  16.245 -0.1916  0.4160 -0.2060
 6397TIP3    H140606   3.650   3.916  16.159 -0.3975 -1.6318 -1.1866
 6397TIP3    H240607   3.759   3.876  16.256 -0.0956 -0.2814 -0.9466
 6398TIP3   OH240608   0.616   4.956  15.930  0.0494  0.3910 -0.4194
 6398TIP3    H140609   0.624   4.865  15.903 -1.3773 -0.3863  1.5313
 6398TIP3    H240610   0.646   4.956  16.021  1.0707  2.1198 -0.7085
 6399TIP3   OH240611   1.156   4.845  16.294  0.8313  0.3486  0.1351
 6399TIP3    H140612   1.176   4.769  16.349 -0.5220  0.0593  0.2736
 6399TIP3    H240613   1.152   4.918  16.355 -3.9033 -0.4449  1.1781
 6400TIP3   OH240614   5.075   1.175   0.149 -0.0912 -0.1800  0.4546
 6400TIP3    H140615   5.076   1.160   0.243  1.2735  1.0158  0.6734
 6400TIP3    H240616   5.155   1.133   0.117 -0.5655 -0.6197 -0.1970
 6401TIP3   OH240617   2.418   0.047   5.692  0.1496  0.0525 -0.3211
 6401TIP3    H140618   2.435   0.004   5.608 -0.2128 -1.6676  0.4439
 6401TIP3    H240619   2.462   0.132   5.685  3.1406 -1.4388 -0.9465
 6402TIP3   OH240620   2.721   3.490  16.863  0.0862 -0.2435  0.7235
 6402TIP3    H140621   2.630   3.486  16.894  0.1301 -2.0737  0.7374
 6402TIP3    H240622   2.714   3.492  16.767  0.0032 -1.0116  0.7007
 6403TIP3   OH240623   6.130   3.653   1.813 -0.2228 -0.2209  0.2186
 6403TIP3    H140624   6.173   3.735   1.839 -0.5949 -0.0804  0.3947
 6403TIP3    H240625   6.084   3.675   1.732  1.4161 -0.8087 -0.9332
 6404TIP3   OH240626   0.618   2.881  16.939 -0.2311  0.5038  0.1091
 6404TIP3    H140627   0.608   2.975  16.957  0.2589  0.4035  0.9564
 6404TIP3    H240628   0.531   2.844  16.955 -0.8376  1.0183 -1.7205
 6405TIP3   OH240629   1.261   5.898  14.519  0.0535  0.4482 -0.2317
 6405TIP3    H140630   1.272   5.893  14.614  2.5731  1.1786 -0.4101
 6405TIP3    H240631   1.221   5.815  14.495 -1.1817  0.4872  1.5111
 6406TIP3   OH240632   5.798   1.578  17.223 -0.2660 -0.0728  0.0446
 6406TIP3    H140633   5.847   1.499  17.203  1.5170  0.0810  3.1550
 6406TIP3    H240634   5.718   1.547  17.265  0.5613 -0.3128  1.5245
 6407TIP3   OH240635   1.473   5.780  15.426  0.7471 -0.1131 -0.4436
 6407TIP3    H140636   1.385   5.783  15.461  0.2408 -0.6171 -1.6228
 6407TIP3    H240637   1.524   5.837  15.484 -0.1354 -0.5403  0.7933
 6408TIP3   OH240638   4.194   3.675  15.867 -0.0527 -0.6172  0.3508
 6408TIP3    H140639   4.222   3.591  15.831  0.9000 -0.5054  0.7901
 6408TIP3    H240640   4.275   3.717  15.895 -0.6138 -0.0116  1.1208
 6409TIP3   OH240641   5.992   0.520   1.448  0.1282 -0.9480  0.2139
 6409TIP3    H140642   5.913   0.574   1.454 -0.0663 -1.2644  0.5818
 6409TIP3    H240643   5.961   0.431   1.463  0.6696 -0.9807  1.2526
 6410TIP3   OH240644   4.122   1.526  16.385  0.1619  0.3911  0.0118
 6410TIP3    H140645   4.217   1.538  16.383  0.0417  1.5745  0.4509
 6410TIP3    H240646   4.095   1.563  16.469 -0.6175 -0.5412  0.1822
 6411TIP3   OH240647   3.279   4.468   1.075  0.3593  0.0711  0.1125
 6411TIP3    H140648   3.338   4.484   1.148  1.1307  0.9775 -0.6754
 6411TIP3    H240649   3.192   4.460   1.115  0.7084  0.9210  1.0876
 6412TIP3   OH240650   1.006   3.087  10.888  0.5172 -0.7704  0.1874
 6412TIP3    H140651   1.089   3.067  10.844  0.3933  1.6135 -1.2891
 6412TIP3    H240652   1.021   3.172  10.928 -1.1844 -0.3731  0.0290
 6413TIP3   OH240653   4.055   4.717  14.812  0.2047 -0.2130  0.0846
 6413TIP3    H140654   4.128   4.677  14.766 -0.0096  0.2493 -0.6746
 6413TIP3    H240655   4.067   4.811  14.800 -0.1057 -0.1023  0.5930
 6414TIP3   OH240656   5.211   5.167  16.846 -0.1015  0.5369  0.3806
 6414TIP3    H140657   5.292   5.146  16.800  0.1149  1.2926  0.4131
 6414TIP3    H240658   5.144   5.114  16.801  0.0724  1.3717 -0.9131
 6415TIP3   OH240659   0.742   6.698   4.210 -0.7822  0.1242 -0.2238
 6415TIP3    H140660   0.805   6.690   4.282  0.3028  1.9566 -0.9075
 6415TIP3    H240661   0.662   6.730   4.251 -0.4422  0.3330  0.2839
 6416TIP3   OH240662   0.762   1.930   3.388 -0.3482  0.2417 -1.0069
 6416TIP3    H140663   0.680   1.980   3.379 -0.9840 -0.1986  1.5853
 6416TIP3    H240664   0.808   1.973   3.460  0.7639 -0.7495 -1.1015
 6417TIP3   OH240665   2.360   5.020   1.271 -0.1205  0.1060  0.1061
 6417TIP3    H140666   2.379   4.936   1.230 -0.4218 -0.1723  0.5211
 6417TIP3    H240667   2.271   5.010   1.306  0.0471  0.4026  0.6302
 6418TIP3   OH240668   0.138   0.100  13.359  0.3260 -0.0608  0.5091
 6418TIP3    H140669   0.216   0.081  13.412 -0.0338 -0.5388  0.8730
 6418TIP3    H240670   0.160   0.180  13.313  1.5014 -0.8175 -0.3052
 6419TIP3   OH240671   2.863   1.977  12.132  0.6300 -0.2625  0.3622
 6419TIP3    H140672   2.893   2.066  12.150  0.6783  0.2690 -2.0745
 6419TIP3    H240673   2.798   1.986  12.062  1.3142 -2.1978 -0.6028
 6420TIP3   OH240674   4.983   6.414  15.577  0.2960 -0.2782 -0.7681
 6420TIP3    H140675   4.980   6.428  15.671  0.6067 -2.2949 -0.4165
 6420TIP3    H240676   4.970   6.320  15.566  1.1208 -0.2189 -2.6822
 6421TIP3   OH240677   4.261   5.094  13.272  0.3194 -0.5133 -0.3242
 6421TIP3    H140678   4.237   5.125  13.360  1.4638  1.2236 -0.5677
 6421TIP3    H240679   4.327   5.027  13.287 -0.3124 -1.0416  0.1592
 6422TIP3   OH240680   5.065   3.402   2.976 -0.3264 -0.0161 -0.4881
 6422TIP3    H140681   5.050   3.308   2.982  0.8733 -0.1575  0.8114
 6422TIP3    H240682   4.992   3.442   3.022 -0.3743 -0.3509 -0.2723
 6423TIP3   OH240683   5.036   6.323  15.124 -0.5572 -0.1168  0.1288
 6423TIP3    H140684   5.094   6.332  15.200 -0.5362  0.1147  0.0862
 6423TIP3    H240685   5.030   6.229  15.109 -1.0360 -0.2053  0.7936
 6424TIP3   OH240686   6.535   5.742  11.017 -0.3197 -0.1917  0.6030
 6424TIP3    H140687   6.479   5.795  11.073 -0.6405 -0.4121  0.4956
 6424TIP3    H240688   6.564   5.802  10.948 -0.0026  0.0541  0.9493
 6425TIP3   OH240689   1.059   6.768  11.470  0.3278 -0.1197  0.0817
 6425TIP3    H140690   1.007   6.780  11.390 -0.2139  1.9770  0.7058
 6425TIP3    H240691   0.999   6.786  11.541  1.3589  0.1649  0.9047
 6426TIP3   OH240692   3.856   3.473  10.759  0.3963 -0.1774  0.1429
 6426TIP3    H140693   3.779   3.487  10.814  0.4267  0.8881 -0.0633
 6426TIP3    H240694   3.929   3.466  10.820  0.2991  0.0282  0.2822
 6427TIP3   OH240695   3.960   6.283   0.512 -0.2585 -0.2697  0.4870
 6427TIP3    H140696   3.909   6.266   0.591  1.4747  0.1798  1.7518
 6427TIP3    H240697   4.043   6.239   0.526 -0.4203 -1.5024 -1.7988
 6428TIP3   OH240698   3.478   6.109   3.346 -0.0192  1.2453  0.3324
 6428TIP3    H140699   3.438   6.144   3.425 -0.2559 -1.1518  1.3403
 6428TIP3    H240700   3.406   6.069   3.297  0.5080  0.4314  0.1922
 6429TIP3   OH240701   3.761   0.493   5.188  0.4377  0.0402 -0.2632
 6429TIP3    H140702   3.789   0.581   5.214  3.0526 -0.4785 -1.0856
 6429TIP3    H240703   3.717   0.458   5.266 -0.0294  1.7802  0.3081
 6430TIP3   OH240704   4.690   4.430   6.153  0.0522  0.1768  0.5522
 6430TIP3    H140705   4.671   4.348   6.107  0.1352  0.1676  0.5342
 6430TIP3    H240706   4.621   4.437   6.219  0.1322  0.0138  0.6555
 6431TIP3   OH240707   3.540   3.437  15.179 -0.0567  0.0035 -0.6714
 6431TIP3    H140708   3.591   3.440  15.260 -0.9806  0.0599 -0.0887
 6431TIP3    H240709   3.513   3.528  15.164 -1.2969 -0.2627 -0.1323
 6432TIP3   OH240710   5.163   4.932  16.073 -0.3247 -0.2547 -0.0750
 6432TIP3    H140711   5.101   4.960  16.006  1.6859 -0.6474 -2.2307
 6432TIP3    H240712   5.121   4.857  16.115 -1.3002 -0.5584 -1.5020
 6433TIP3   OH240713   3.201   2.221  12.315  0.0760  0.0824 -0.0827
 6433TIP3    H140714   3.274   2.283  12.319 -0.1823  0.3838 -0.0633
 6433TIP3    H240715   3.167   2.228  12.226 -0.1371  0.1830  0.0048
 6434TIP3   OH240716   6.009   2.149   4.657  0.0898 -0.4300  0.6305
 6434TIP3    H140717   6.010   2.071   4.712  3.8213 -0.9823  0.0778
 6434TIP3    H240718   6.032   2.220   4.716 -0.5814 -0.1990  0.6202
 6435TIP3   OH240719   5.707   0.371  15.101  0.0295  0.0105 -1.0569
 6435TIP3    H140720   5.677   0.462  15.111  1.0246  0.4068 -1.5875
 6435TIP3    H240721   5.801   0.378  15.087  0.5111 -1.2506  1.1910
 6436TIP3   OH240722   0.902   2.453   0.994  0.1117  0.0617 -0.4975
 6436TIP3    H140723   0.848   2.510   0.941 -0.1737  0.6504  0.4002
 6436TIP3    H240724   0.881   2.364   0.964 -1.9502  0.2156  0.3408
 6437TIP3   OH240725   5.326   2.290   4.381 -0.5044  0.3366  0.2743
 6437TIP3    H140726   5.411   2.258   4.349  0.0560  2.5997 -0.6905
 6437TIP3    H240727   5.348   2.359   4.443 -1.6183  1.6095 -0.6993
 6438TIP3   OH240728   4.829   2.854   5.573 -0.0794 -0.3126  0.2984
 6438TIP3    H140729   4.923   2.866   5.583  0.1438 -1.4227 -0.2332
 6438TIP3    H240730   4.820   2.797   5.496 -1.1319 -0.8249  0.7742
 6439TIP3   OH240731   3.094   5.420  13.355 -0.4563  0.8086  0.2963
 6439TIP3    H140732   3.109   5.358  13.426 -1.2833 -1.9742 -1.7706
 6439TIP3    H240733   3.051   5.368  13.286  0.7885  3.1540 -2.4815
 6440TIP3   OH240734   5.199   4.426   3.318  0.5166  0.7925  0.1351
 6440TIP3    H140735   5.186   4.335   3.344  2.8143  0.5273  0.5921
 6440TIP3    H240736   5.147   4.477   3.381 -1.3733 -0.1723 -0.5698
 6441TIP3   OH240737   4.465   4.942   5.480 -0.4724 -0.7831 -0.1752
 6441TIP3    H140738   4.546   4.939   5.530  0.0200 -0.1753 -0.9079
 6441TIP3    H240739   4.487   4.903   5.395 -1.3905 -2.1321  0.1880
 6442TIP3   OH240740   1.851   0.857  11.081 -0.3848  0.5277  0.1562
 6442TIP3    H140741   1.757   0.868  11.066 -0.1587  2.6093 -0.0132
 6442TIP3    H240742   1.877   0.788  11.020 -2.3312 -2.6004  2.5625
 6443TIP3   OH240743   4.943   1.722   6.556  0.4997 -0.2438 -0.4525
 6443TIP3    H140744   4.908   1.701   6.643 -0.6087  1.0624 -0.5409
 6443TIP3    H240745   5.003   1.650   6.536  1.3430 -0.1987  1.6926
 6444TIP3   OH240746   1.108   1.983  14.521 -0.0842  0.7343  0.3425
 6444TIP3    H140747   1.061   2.060  14.553 -0.1428  1.5114 -1.5139
 6444TIP3    H240748   1.139   2.008  14.434 -0.3601 -1.4525 -0.4429
 6445TIP3   OH240749   2.855   4.742   4.840 -0.5143 -0.2051 -0.0434
 6445TIP3    H140750   2.911   4.698   4.904  2.0566  0.4086 -1.7292
 6445TIP3    H240751   2.802   4.803   4.891  0.3394 -0.8375  1.6471
 6446TIP3   OH240752   6.201   1.406   5.086  0.5891 -1.1359  0.6266
 6446TIP3    H140753   6.293   1.434   5.085  0.3236 -0.2299  0.5630
 6446TIP3    H240754   6.181   1.388   4.994 -0.2814  2.1171  0.0762
 6447TIP3   OH240755   3.500   1.992  13.537 -0.1905 -0.2661  0.2374
 6447TIP3    H140756   3.416   2.012  13.577  1.1102  1.2146  2.4759
 6447TIP3    H240757   3.505   2.049  13.460 -0.2927  1.4606  1.4508
 6448TIP3   OH240758   5.153   3.138  15.688 -0.5963 -0.4195 -0.2141
 6448TIP3    H140759   5.083   3.075  15.702 -0.0770 -0.9921 -0.1264
 6448TIP3    H240760   5.137   3.173  15.601 -0.0993 -1.7356 -0.8726
 6449TIP3   OH240761   3.495   1.659   0.582 -0.0769 -0.3113  0.2373
 6449TIP3    H140762   3.553   1.688   0.653  0.7098  0.8195 -0.8241
 6449TIP3    H240763   3.501   1.564   0.584 -0.1541 -0.3174  1.7421
 6450TIP3   OH240764   6.334   3.832  15.993 -0.1428 -0.0052 -0.2602
 6450TIP3    H140765   6.289   3.832  16.077 -0.0060  2.6384 -0.1174
 6450TIP3    H240766   6.304   3.751  15.950 -1.9636 -0.2790  1.3862
 6451TIP3   OH240767   4.737   2.951   3.536 -0.1233  0.0410  0.2097
 6451TIP3    H140768   4.812   2.951   3.477  0.7345 -1.0374  1.2462
 6451TIP3    H240769   4.736   2.862   3.573 -2.1345 -0.0962 -0.0529
 6452TIP3   OH240770   4.771   4.187   1.190  0.6000 -0.4758  0.4880
 6452TIP3    H140771   4.724   4.143   1.118 -0.0842 -0.4554  0.9125
 6452TIP3    H240772   4.754   4.280   1.175  1.7466 -0.3647 -0.2019
 6453TIP3   OH240773   2.627   3.982  13.239  0.3031  0.1904 -0.2872
 6453TIP3    H140774   2.665   4.054  13.188  0.0506  0.7287  0.2806
 6453TIP3    H240775   2.696   3.915  13.241  0.9652  0.8697  0.1256
 6454TIP3   OH240776   5.258   6.180  12.615 -0.3778  0.1615  0.0342
 6454TIP3    H140777   5.238   6.213  12.702 -2.2476  0.9879 -0.6435
 6454TIP3    H240778   5.296   6.255  12.569 -0.4824  0.0800 -0.1905
 6455TIP3   OH240779   3.007   2.931  14.230 -0.7644 -0.3314  0.1484
 6455TIP3    H140780   2.981   2.935  14.322 -0.9049  2.2541  0.0559
 6455TIP3    H240781   3.098   2.960  14.229 -0.9368  0.2025 -0.5710
 6456TIP3   OH240782   0.626   3.092   1.198  0.6127  0.0838 -0.6538
 6456TIP3    H140783   0.642   3.186   1.195  0.2865  0.1804  0.3929
 6456TIP3    H240784   0.572   3.079   1.276  0.6693 -0.9757 -0.7767
 6457TIP3   OH240785   1.840   1.270   2.587  0.1258 -0.3981  0.2379
 6457TIP3    H140786   1.787   1.344   2.559 -0.1098 -0.6079  0.1239
 6457TIP3    H240787   1.785   1.224   2.650  0.1825 -0.5984  0.1411
 6458TIP3   OH240788   4.717   4.131   3.077 -0.2093 -0.0949  0.3744
 6458TIP3    H140789   4.632   4.144   3.121  0.3021 -0.8317  1.6526
 6458TIP3    H240790   4.702   4.056   3.020 -0.3175 -0.5162  0.9400
 6459TIP3   OH240791   2.336   1.815   6.306  0.1075 -0.0452  0.1009
 6459TIP3    H140792   2.356   1.903   6.337  1.4062 -0.0692 -0.6114
 6459TIP3    H240793   2.344   1.760   6.384  0.0033  0.3510  0.3962
 6460TIP3   OH240794   3.617   4.888  11.134  0.1160  0.5265  0.0964
 6460TIP3    H140795   3.522   4.877  11.140  0.2544 -0.6668  0.3809
 6460TIP3    H240796   3.649   4.866  11.221  0.6521  1.0677  0.0420
 6461TIP3   OH240797   0.249   4.632  17.268 -0.7211  0.1489 -0.8064
 6461TIP3    H140798   0.304   4.694  17.315  0.8093 -0.0710 -2.1825
 6461TIP3    H240799   0.202   4.685  17.203  0.1300 -0.0085 -1.5783
 6462TIP3   OH240800   1.592   5.333   4.234  0.0709 -0.2929  0.1672
 6462TIP3    H140801   1.613   5.258   4.290  1.8245 -0.8390 -1.1243
 6462TIP3    H240802   1.659   5.398   4.255  0.0248 -0.0450 -0.4358
 6463TIP3   OH240803   4.550   6.165  16.428 -0.1095 -0.1173  1.3065
 6463TIP3    H140804   4.570   6.094  16.367  0.9776  0.5703  0.8496
 6463TIP3    H240805   4.497   6.123  16.496  0.1495 -1.2720  0.8205
 6464TIP3   OH240806   5.872   4.760   1.091 -0.1551 -0.1409 -0.1815
 6464TIP3    H140807   5.948   4.706   1.112 -0.1061  0.1446  0.3683
 6464TIP3    H240808   5.826   4.710   1.024  1.6039  0.6115 -2.0730
 6465TIP3   OH240809   5.173   3.220   4.607 -0.5557 -0.0210 -0.2371
 6465TIP3    H140810   5.128   3.138   4.628  0.6636 -0.9039 -0.9254
 6465TIP3    H240811   5.232   3.197   4.535 -0.4102  1.5448 -0.6501
 6466TIP3   OH240812   2.464   5.513  13.535  0.0534 -0.3773 -0.1821
 6466TIP3    H140813   2.538   5.572  13.551 -0.5148  0.2004  0.3736
 6466TIP3    H240814   2.405   5.563  13.478 -1.4873  0.5237  2.0551
 6467TIP3   OH240815   0.203   1.432  11.587  0.2007 -0.3720  0.4503
 6467TIP3    H140816   0.135   1.367  11.569 -1.3665  1.0175  1.0641
 6467TIP3    H240817   0.175   1.510  11.540  0.3950  0.7855  2.1574
 6468TIP3   OH240818   2.361   3.063   1.467 -0.1438 -0.5875  0.3683
 6468TIP3    H140819   2.268   3.068   1.445 -0.0614  2.0105  0.3281
 6468TIP3    H240820   2.362   3.037   1.559 -0.9268 -0.4445  0.4261
 6469TIP3   OH240821   1.857   0.174   4.357  0.0668  0.1154  0.5961
 6469TIP3    H140822   1.919   0.120   4.307 -0.5256  0.0483 -0.0860
 6469TIP3    H240823   1.862   0.260   4.316 -1.3473 -0.2557 -0.4445
 6470TIP3   OH240824   5.325   4.753  16.802  0.0231  0.3475 -0.2875
 6470TIP3    H140825   5.395   4.691  16.823  0.2587  0.2517 -1.3076
 6470TIP3    H240826   5.334   4.768  16.708 -1.2639  0.4184 -0.4154
 6471TIP3   OH240827   2.590   1.871   5.363 -0.2235  0.6593 -1.3655
 6471TIP3    H140828   2.677   1.847   5.330 -0.3189  0.7771 -1.7042
 6471TIP3    H240829   2.541   1.789   5.363 -0.0265  0.5343 -0.8927
 6472TIP3   OH240830   3.396   4.571  17.250 -0.0632 -0.1164 -0.1128
 6472TIP3    H140831   3.468   4.607  17.197  0.0802 -0.2115  0.0164
 6472TIP3    H240832   3.331   4.544  17.186 -0.2301  0.4908 -0.2057
 6473TIP3   OH240833   1.570   5.912  14.594 -0.3584 -0.0078  0.1828
 6473TIP3    H140834   1.493   5.856  14.596  0.3295 -0.9506  1.1397
 6473TIP3    H240835   1.644   5.852  14.585  0.2791  0.8752 -0.6570
 6474TIP3   OH240836   4.551   2.361   1.394 -0.2732  0.0269 -0.0797
 6474TIP3    H140837   4.561   2.448   1.355  0.2807 -0.6293 -1.4597
 6474TIP3    H240838   4.536   2.303   1.320  0.5272 -1.2321  0.7079
 6475TIP3   OH240839   3.055   0.081  11.661  0.1508  0.4250 -0.1318
 6475TIP3    H140840   3.067   0.004  11.716 -2.6622 -0.1366 -0.2016
 6475TIP3    H240841   3.068   0.049  11.572 -0.2274  0.2106 -0.1104
 6476TIP3   OH240842   1.564   3.980   5.984  0.2240  0.2364 -0.3719
 6476TIP3    H140843   1.606   3.910   5.935 -1.4990 -0.4471 -0.9515
 6476TIP3    H240844   1.602   3.973   6.072 -0.3609 -1.8902 -0.2240
 6477TIP3   OH240845   1.574   4.505   4.400 -0.1485 -0.2052  0.5457
 6477TIP3    H140846   1.528   4.448   4.338  1.3786 -0.7482 -0.1412
 6477TIP3    H240847   1.617   4.445   4.460  0.2515  0.2738  0.7406
 6478TIP3   OH240848   5.842   0.510   2.126 -0.0538  0.4019 -0.4483
 6478TIP3    H140849   5.904   0.452   2.081  0.0201  1.0835 -1.2528
 6478TIP3    H240850   5.756   0.478   2.098 -0.0896 -0.5813  0.7148
 6479TIP3   OH240851   1.177   5.004  15.560  0.4472 -0.5361 -0.2618
 6479TIP3    H140852   1.156   5.059  15.483  1.2966  0.9771  0.5336
 6479TIP3    H240853   1.115   5.033  15.627 -0.3834 -1.9508 -0.3797
 6480TIP3   OH240854   3.403   4.012   2.546  0.2166  0.1691  0.0212
 6480TIP3    H140855   3.354   4.010   2.464  2.5427 -1.6836 -1.4625
 6480TIP3    H240856   3.489   3.977   2.524  1.0000 -0.3221  3.2642
 6481TIP3   OH240857   1.429   4.941   1.912  0.0167  0.4738  0.7183
 6481TIP3    H140858   1.499   5.005   1.903  0.6696 -0.1429  1.3236
 6481TIP3    H240859   1.416   4.907   1.824  1.3288 -0.2872  0.8048
 6482TIP3   OH240860   4.519   5.984   3.658 -0.7423  0.5788 -0.0858
 6482TIP3    H140861   4.479   5.946   3.580 -0.6425  0.4298 -0.0638
 6482TIP3    H240862   4.513   5.915   3.724 -0.2832  0.4922 -0.1329
 6483TIP3   OH240863   5.459   6.683   0.845 -0.1212  0.3005 -0.7735
 6483TIP3    H140864   5.519   6.634   0.789 -0.3311 -0.3804 -0.4157
 6483TIP3    H240865   5.467   6.642   0.931  1.8775  2.7179  0.3450
 6484TIP3   OH240866   5.642   5.994  17.128  0.2517 -0.0206 -0.2128
 6484TIP3    H140867   5.638   6.045  17.209  2.1922 -0.6039  0.3023
 6484TIP3    H240868   5.551   5.980  17.104 -0.3516  1.7276  0.8649
 6485TIP3   OH240869   0.792   0.002   0.954  0.0591  0.1991 -0.3638
 6485TIP3    H140870   0.722   0.017   1.017  0.8138 -1.9285  1.1044
 6485TIP3    H240871   0.751  -0.047   0.883  0.0463 -1.2228  0.5873
 6486TIP3   OH240872   1.372   4.038  11.992 -0.1589  0.0886 -0.0030
 6486TIP3    H140873   1.421   4.074  12.066  2.3088  1.0634 -1.9747
 6486TIP3    H240874   1.280   4.045  12.019  0.3882  3.8090  1.6053
 6487TIP3   OH240875   3.472   5.105   3.886  0.3994  0.2161  0.5616
 6487TIP3    H140876   3.515   5.189   3.899 -0.3610  0.9620 -1.3751
 6487TIP3    H240877   3.543   5.044   3.866  0.9202  0.4604  1.5942
 6488TIP3   OH240878   3.987   3.245  16.892 -0.3619  0.4236  0.3145
 6488TIP3    H140879   3.982   3.152  16.916 -1.3998 -0.0849 -1.5995
 6488TIP3    H240880   4.079   3.260  16.873 -0.3685 -0.6263 -0.6943
 6489TIP3   OH240881   6.648   6.516  16.968 -0.1086  0.1527  0.6888
 6489TIP3    H140882   6.742   6.507  16.952 -0.0292  0.4610  0.9688
 6489TIP3    H240883   6.638   6.503  17.062 -0.6275 -2.1014  0.3862
 6490TIP3   OH240884   6.652   4.506  11.515  0.2233  0.5416 -0.2581
 6490TIP3    H140885   6.616   4.588  11.548  1.0444  0.8181 -0.0176
 6490TIP3    H240886   6.575   4.452  11.495 -0.3217  1.3435 -0.3688
 6491TIP3   OH240887   3.065   3.633   2.500  0.2553  0.0784 -0.1650
 6491TIP3    H140888   3.023   3.648   2.415  2.3952 -0.8361 -1.4719
 6491TIP3    H240889   2.998   3.657   2.564 -0.3339  4.3716 -1.9980
 6492TIP3   OH240890   5.352   1.126   0.600 -0.1370 -0.1715 -0.3532
 6492TIP3    H140891   5.275   1.074   0.623 -1.0417  0.7886 -1.1349
 6492TIP3    H240892   5.381   1.164   0.683  1.0414 -2.5006  0.3884
 6493TIP3   OH240893   5.145   0.972   5.648 -0.0119 -0.2623  0.0956
 6493TIP3    H140894   5.163   1.036   5.579  0.0427 -0.0177  0.3330
 6493TIP3    H240895   5.188   0.892   5.619 -0.9451 -0.4938 -0.7068
 6494TIP3   OH240896   3.975   2.122  13.264  0.3337 -0.0512 -0.2260
 6494TIP3    H140897   3.976   2.166  13.349 -0.7762  0.8001 -0.6311
 6494TIP3    H240898   4.015   2.036  13.281  0.9196  0.4303  0.9528
 6495TIP3   OH240899   0.846   3.979   3.998 -0.2452 -0.0614  0.1599
 6495TIP3    H140900   0.899   3.949   3.925  0.4123  2.1650 -0.3599
 6495TIP3    H240901   0.758   3.945   3.980  0.8194 -3.5195  0.8674
 6496TIP3   OH240902   4.622   6.282  17.320  0.4714  0.3759 -0.3012
 6496TIP3    H140903   4.618   6.347  17.390  0.0808  0.4690 -0.4058
 6496TIP3    H240904   4.551   6.221  17.340  0.4934  0.2845 -0.4987
 6497TIP3   OH240905   1.783   2.014   3.927  0.0746  0.2999  0.2048
 6497TIP3    H140906   1.721   2.038   3.996 -0.1336  0.4290 -0.0257
 6497TIP3    H240907   1.868   2.012   3.971 -0.2439 -1.1357  0.8219
 6498TIP3   OH240908   0.468   5.496   0.715 -0.1646  0.1327 -0.3103
 6498TIP3    H140909   0.380   5.524   0.742  0.1348 -0.4401  1.3708
 6498TIP3    H240910   0.459   5.403   0.698  0.2620 -0.0757  0.5730
 6499TIP3   OH240911   2.231   5.622   0.256  0.1097  0.0912 -0.3848
 6499TIP3    H140912   2.167   5.556   0.231  2.3123 -1.6353 -1.8604
 6499TIP3    H240913   2.286   5.578   0.321 -0.5177  1.7533  1.3473
 6500TIP3   OH240914   2.014   6.400   6.733  0.0567  0.0139 -0.0366
 6500TIP3    H140915   2.084   6.463   6.750  0.0374 -0.4882  2.3365
 6500TIP3    H240916   2.060   6.317   6.719 -0.0058  0.0200 -0.2743
 6501TIP3   OH240917   5.805   0.976   3.041  0.5368 -0.1379 -0.3769
 6501TIP3    H140918   5.789   0.987   2.947  0.3534 -0.9902 -0.4588
 6501TIP3    H240919   5.718   0.969   3.079  0.5753 -2.8690 -0.5704
 6502TIP3   OH240920   3.309   1.162   5.519 -0.0800  0.5131 -0.7385
 6502TIP3    H140921   3.222   1.131   5.495  1.2619 -2.3681 -2.4944
 6502TIP3    H240922   3.366   1.129   5.449  2.1766  4.3058 -0.9686
 6503TIP3   OH240923   0.107   5.055  15.991  0.1481 -0.5412 -0.0178
 6503TIP3    H140924   0.152   5.100  15.920 -1.2735 -1.9247 -1.9019
 6503TIP3    H240925   0.177   5.029  16.052  1.2440  1.8300 -0.1877
 6504TIP3   OH240926   4.030   2.692   4.575 -0.7773  0.3018  0.2898
 6504TIP3    H140927   4.011   2.601   4.597 -0.9037  0.5533  1.2729
 6504TIP3    H240928   4.074   2.688   4.490  0.4019 -0.7867  0.9124
 6505TIP3   OH240929   4.318   6.687  13.660  0.0273  0.1098  0.2231
 6505TIP3    H140930   4.339   6.696  13.753  1.2847  0.0597 -0.0333
 6505TIP3    H240931   4.274   6.602  13.654  0.3398 -0.0963  0.7186
 6506TIP3   OH240932   4.078   6.380   1.969  0.1289  0.1750  0.6019
 6506TIP3    H140933   4.056   6.353   1.880 -1.2737 -1.7960  1.4794
 6506TIP3    H240934   4.164   6.342   1.985 -0.9310 -2.1428  1.0932
 6507TIP3   OH240935   3.753   5.927   5.374 -0.3924  0.0691  0.4845
 6507TIP3    H140936   3.812   5.890   5.440  0.0349  2.2960  1.4647
 6507TIP3    H240937   3.674   5.949   5.423  0.0711  2.0981  0.3973
 6508TIP3   OH240938   1.165   2.421   5.387  0.1395 -0.1920 -0.0010
 6508TIP3    H140939   1.097   2.374   5.339 -0.7198  1.3990 -0.4398
 6508TIP3    H240940   1.205   2.478   5.322  0.4768  0.3809  0.6946
 6509TIP3   OH240941   5.954   0.270   3.324  0.2331 -0.4353 -0.1820
 6509TIP3    H140942   5.876   0.227   3.288 -0.9682  0.7847  0.8140
 6509TIP3    H240943   5.943   0.263   3.419  1.4470 -0.4060 -0.0309
 6510TIP3   OH240944   5.126   2.603  10.913 -0.3957 -0.5887  0.3260
 6510TIP3    H140945   5.173   2.533  10.960  0.9942  0.0773 -0.0101
 6510TIP3    H240946   5.061   2.557  10.861 -0.2259 -1.5516  0.9270
 6511TIP3   OH240947   2.652   2.876   3.857 -1.1521 -0.4063 -0.3713
 6511TIP3    H140948   2.650   2.781   3.845 -0.1485 -0.3501 -1.0957
 6511TIP3    H240949   2.602   2.910   3.783 -1.4310 -0.3686 -0.1644
 6512TIP3   OH240950   2.758   0.990  16.033 -0.1973  0.1711  0.4773
 6512TIP3    H140951   2.665   1.002  16.050 -0.0141  0.5483  1.2462
 6512TIP3    H240952   2.769   1.015  15.942 -1.1621 -1.6274 -0.1967
 6513TIP3   OH240953   3.217   2.608  11.717  0.0919  0.5516 -0.4627
 6513TIP3    H140954   3.244   2.699  11.708  0.0028  0.7623  1.1715
 6513TIP3    H240955   3.294   2.564  11.753 -0.5199  0.4209  0.7330
 6514TIP3   OH240956   3.988   5.550   5.243  0.0238  0.5148  0.1848
 6514TIP3    H140957   3.984   5.457   5.221 -1.3558  0.8857 -1.3773
 6514TIP3    H240958   4.039   5.554   5.324 -0.0348 -1.5980  0.3748
 6515TIP3   OH240959   3.014   3.344   3.492 -0.3459 -0.0270  0.6091
 6515TIP3    H140960   3.105   3.315   3.495 -0.0902  0.8103  1.0896
 6515TIP3    H240961   2.968   3.273   3.447  0.6540 -0.1544 -0.2489
 6516TIP3   OH240962   2.066   2.249  12.239 -0.6544  0.5941  0.0806
 6516TIP3    H140963   2.081   2.332  12.283 -1.0223  1.8576 -2.0568
 6516TIP3    H240964   2.055   2.186  12.310 -3.0501  2.8080  1.8760
 6517TIP3   OH240965   0.968   1.219  14.281 -0.0626  0.2339 -0.0688
 6517TIP3    H140966   0.945   1.308  14.255  1.0187  0.8086  0.8011
 6517TIP3    H240967   1.042   1.231  14.341 -0.4231 -1.2032  0.7076
 6518TIP3   OH240968   5.249   5.896  11.884 -0.0696 -0.1400  0.0642
 6518TIP3    H140969   5.269   5.890  11.791 -1.6585  1.0235 -0.4004
 6518TIP3    H240970   5.154   5.885  11.889  0.0181 -0.3921  1.5779
 6519TIP3   OH240971   2.762   3.452  10.477  0.2301  0.2905 -0.3984
 6519TIP3    H140972   2.845   3.406  10.489  0.9507  1.2204 -1.5632
 6519TIP3    H240973   2.718   3.405  10.407  0.5992  0.8652 -1.0254
 6520TIP3   OH240974   0.808   5.455  15.067 -0.0339 -0.2325  0.2285
 6520TIP3    H140975   0.858   5.435  15.146 -0.7925  0.6988  0.9689
 6520TIP3    H240976   0.798   5.550  15.067 -2.2879 -0.4038  0.4560
 6521TIP3   OH240977   5.846   3.253  13.167 -0.0380 -0.3803 -0.0664
 6521TIP3    H140978   5.866   3.248  13.074 -1.1568  1.4360 -0.4418
 6521TIP3    H240979   5.917   3.306  13.204 -1.0141  1.2102 -0.3964
 6522TIP3   OH240980   5.781   3.384   5.041  0.0659 -0.6251  0.1952
 6522TIP3    H140981   5.768   3.477   5.056  0.0358 -0.1397 -2.4647
 6522TIP3    H240982   5.700   3.354   5.001  0.6878 -1.4010 -0.5310
 6523TIP3   OH240983   3.626   0.708  11.068 -0.5635 -0.3050  0.1537
 6523TIP3    H140984   3.546   0.724  11.018 -1.0562 -0.6583  0.8087
 6523TIP3    H240985   3.640   0.614  11.061 -1.6740 -0.6753  2.1480
 6524TIP3   OH240986   2.397   4.721   6.038  0.1689  0.2530 -0.0756
 6524TIP3    H140987   2.475   4.776   6.047 -0.6170  1.3780  0.1192
 6524TIP3    H240988   2.335   4.758   6.101 -0.6252 -0.4460 -0.4309
 6525TIP3   OH240989   0.511   5.976   2.127 -0.4480 -0.6545  0.1448
 6525TIP3    H140990   0.580   6.021   2.177  0.1161 -2.3159  0.9389
 6525TIP3    H240991   0.436   6.036   2.130  0.9839  1.3162 -0.9252
 6526TIP3   OH240992   1.813   5.944  17.324 -0.1461 -0.4978  0.2186
 6526TIP3    H140993   1.805   6.035  17.352 -1.1794 -0.8467  1.1286
 6526TIP3    H240994   1.901   5.937  17.287 -0.9702  1.5928 -2.5093
 6527TIP3   OH240995   2.576   5.897   0.637 -0.0094  0.1377 -0.3130
 6527TIP3    H140996   2.499   5.940   0.673  1.3080  0.8244  1.8505
 6527TIP3    H240997   2.646   5.962   0.644  0.5349  0.0923 -3.6435
 6528TIP3   OH240998   1.785   2.635   2.403  0.4599 -0.1664 -0.2873
 6528TIP3    H140999   1.801   2.704   2.339 -0.1975  0.9148  0.6828
 6528TIP3    H241000   1.763   2.558   2.351 -1.5788  1.0776 -1.3572
 6529TIP3   OH241001   1.319   2.225   2.075  0.1834  0.3003 -0.1040
 6529TIP3    H141002   1.405   2.190   2.097  0.0426  0.5744  0.9577
 6529TIP3    H241003   1.331   2.269   1.991  1.0122  0.1012 -0.0948
 6530TIP3   OH241004   4.033   5.498   1.349 -0.3237 -0.1574 -0.0566
 6530TIP3    H141005   3.997   5.443   1.279  0.1370 -0.1467 -0.3032
 6530TIP3    H241006   4.012   5.587   1.323 -0.7474 -0.1891  0.1605
 6531TIP3   OH241007   3.161   0.762   5.555  0.4448  0.0001 -0.2066
 6531TIP3    H141008   3.082   0.799   5.596 -1.0025 -3.1984  0.1392
 6531TIP3    H241009   3.145   0.771   5.461 -0.9627 -1.6565 -0.1745
 6532TIP3   OH241010   1.332   4.858  12.708 -0.4427  0.1985 -0.3109
 6532TIP3    H141011   1.400   4.804  12.749 -0.0618  0.1833 -0.9523
 6532TIP3    H241012   1.337   4.941  12.754  1.6503  1.0429 -1.8833
 6533TIP3   OH241013   3.681   2.490   5.106 -0.2899 -0.1643  0.1509
 6533TIP3    H141014   3.631   2.440   5.041 -0.4693  0.4386 -0.1818
 6533TIP3    H241015   3.729   2.555   5.054  0.2444 -0.2410  0.5414
 6534TIP3   OH241016   1.259   5.502   5.757  0.5151  0.3151  0.3214
 6534TIP3    H141017   1.262   5.465   5.845  1.1204 -0.5739 -0.0583
 6534TIP3    H241018   1.339   5.553   5.749  0.4123  0.4761  0.3235
 6535TIP3   OH241019   3.438   2.341   1.737 -0.1388  0.4960 -0.2979
 6535TIP3    H141020   3.389   2.313   1.660  0.4993 -0.9910 -0.1905
 6535TIP3    H241021   3.519   2.378   1.702 -0.6176  1.4989 -0.3970
 6536TIP3   OH241022   3.740   4.295  16.294 -0.0342  0.0861 -0.6205
 6536TIP3    H141023   3.757   4.298  16.200 -0.3214 -0.9452 -0.7158
 6536TIP3    H241024   3.653   4.335  16.304  0.3743  1.0261 -0.6716
 6537TIP3   OH241025   3.973   6.534  10.505 -0.8340  0.1270  0.4415
 6537TIP3    H141026   3.905   6.594  10.535  0.8185  1.2919  2.1479
 6537TIP3    H241027   3.957   6.524  10.411 -1.6546  2.6750  0.2323
 6538TIP3   OH241028   4.545   4.008  14.712 -0.3033  0.4539  0.1108
 6538TIP3    H141029   4.451   4.022  14.716 -0.0612  2.1098  0.8904
 6538TIP3    H241030   4.565   4.003  14.619 -1.4706 -2.8453 -0.1191
 6539TIP3   OH241031   2.854   6.039  16.734 -0.3644  0.0785  0.1298
 6539TIP3    H141032   2.823   6.068  16.648  3.0679  0.0852 -1.2605
 6539TIP3    H241033   2.839   5.945  16.735 -0.9112  0.1560 -0.2258
 6540TIP3   OH241034   2.959   6.457  16.955  0.7579 -0.3159 -0.1507
 6540TIP3    H141035   2.982   6.445  17.047 -0.4766  0.5489  0.3082
 6540TIP3    H241036   3.042   6.451  16.908  1.4421 -0.5374  1.0394
 6541TIP3   OH241037   2.798   4.137  12.741  0.4037  0.2193  0.1339
 6541TIP3    H141038   2.812   4.217  12.791  0.4783  0.0405  0.4037
 6541TIP3    H241039   2.703   4.132  12.729  0.4106  0.4185 -0.0007
 6542TIP3   OH241040   5.546   5.985  11.673 -0.0828 -0.1306 -0.3092
 6542TIP3    H141041   5.494   5.959  11.597 -2.6250 -0.1680  1.3190
 6542TIP3    H241042   5.601   5.908  11.692 -0.6432 -0.7444 -1.1169
 6543TIP3   OH241043   5.696   4.846  17.005  0.1198  0.1769  0.1029
 6543TIP3    H141044   5.787   4.854  16.977 -0.1962  0.2265 -0.9503
 6543TIP3    H241045   5.648   4.906  16.948 -0.8552 -1.4045 -0.8153
 6544TIP3   OH241046   1.179   5.862  12.059 -0.2849 -0.5451 -0.2724
 6544TIP3    H141047   1.236   5.863  12.136  0.8812  1.5216 -1.0713
 6544TIP3    H241048   1.091   5.872  12.094  0.3052  1.5333  0.8186
 6545TIP3   OH241049   6.166   0.427   0.965  0.7071 -0.3863  0.2817
 6545TIP3    H141050   6.219   0.481   1.024  1.3920 -0.6776 -0.0541
 6545TIP3    H241051   6.212   0.431   0.881 -0.2533  0.0150 -0.2375
 6546TIP3   OH241052   2.224   2.470  10.773  0.4356 -0.2065 -0.0113
 6546TIP3    H141053   2.208   2.400  10.838  1.8537 -0.5731 -0.0254
 6546TIP3    H241054   2.179   2.440  10.694  0.2367 -0.6424  0.2627
 6547TIP3   OH241055   2.138   0.055  14.115 -0.0667 -0.4051 -0.0476
 6547TIP3    H141056   2.097   0.007  14.043 -0.5912 -1.0514  0.6624
 6547TIP3    H241057   2.091   0.025  14.193  2.5278 -2.1718  0.9767
 6548TIP3   OH241058   3.855   6.260  14.969 -0.0850  0.6355  0.4432
 6548TIP3    H141059   3.931   6.207  14.945  0.3517  1.2097  0.5245
 6548TIP3    H241060   3.871   6.286  15.060 -0.7603  0.1193  0.7157
 6549TIP3   OH241061   0.640   4.262   1.915 -0.3133 -0.2416  0.3481
 6549TIP3    H141062   0.645   4.357   1.916  0.1615 -0.0660 -3.5479
 6549TIP3    H241063   0.724   4.234   1.878 -1.1713 -2.0168 -0.3851
 6550TIP3   OH241064   5.159   2.853   5.329 -0.1872  0.1994  0.2064
 6550TIP3    H141065   5.253   2.871   5.322 -0.4595  2.1110  0.9778
 6550TIP3    H241066   5.130   2.845   5.238  0.4367  1.2918 -0.1133
 6551TIP3   OH241067   3.087   5.122   2.840  0.2423 -0.2040 -0.1583
 6551TIP3    H141068   3.100   5.217   2.846  0.3944 -0.2067 -0.4300
 6551TIP3    H241069   3.175   5.086   2.833  0.1420 -0.1655 -2.8386
 6552TIP3   OH241070   0.566   6.210  15.957  0.6505 -0.0084 -0.1911
 6552TIP3    H141071   0.568   6.302  15.932 -1.2622 -0.1216 -0.8862
 6552TIP3    H241072   0.556   6.212  16.052  0.0154  0.5183 -0.2591
 6553TIP3   OH241073   2.515   5.681   5.534  0.6555  0.1280  0.6031
 6553TIP3    H141074   2.500   5.698   5.441 -1.0981  0.3115  0.8784
 6553TIP3    H241075   2.428   5.665   5.570  1.3234 -0.2178  2.1737
 6554TIP3   OH241076   3.374   1.105   3.007  0.3149  0.3085 -0.2082
 6554TIP3    H141077   3.288   1.136   2.978  0.6845  0.6775 -0.9406
 6554TIP3    H241078   3.401   1.043   2.939  0.3199 -0.3720  0.3910
 6555TIP3   OH241079   1.123   0.041   0.469 -0.6621  0.3977 -0.7705
 6555TIP3    H141080   1.152   0.089   0.546  2.6158  0.0927 -1.6609
 6555TIP3    H241081   1.096   0.109   0.407  0.6650  0.9201 -0.7995
 6556TIP3   OH241082   4.792   6.688  15.019 -0.2418  0.2580 -0.4515
 6556TIP3    H141083   4.744   6.710  15.099 -0.5796 -0.3110 -0.4858
 6556TIP3    H241084   4.881   6.717  15.035 -0.0035 -0.9901  0.6473
 6557TIP3   OH241085   4.410   1.379   1.710 -0.2626  0.9788 -0.3019
 6557TIP3    H141086   4.481   1.419   1.760 -0.3063  1.0305 -0.2822
 6557TIP3    H241087   4.406   1.430   1.629  1.6224 -0.7398 -1.5963
 6558TIP3   OH241088   3.103   5.865   4.962  0.3714 -0.5997  0.3721
 6558TIP3    H141089   3.152   5.914   4.896  2.2902 -0.5351  1.7656
 6558TIP3    H241090   3.170   5.821   5.014 -1.1063 -1.1255  1.9256
 6559TIP3   OH241091   4.700   3.279  15.101  0.4569 -0.1767 -0.5082
 6559TIP3    H141092   4.763   3.308  15.035  1.2244  0.8950  0.6318
 6559TIP3    H241093   4.645   3.356  15.116 -0.8022 -0.9401 -1.1081
 6560TIP3   OH241094   3.858   3.970   3.267  0.3120  0.3291  0.1029
 6560TIP3    H141095   3.765   3.946   3.274  0.0481  1.4813  0.7674
 6560TIP3    H241096   3.904   3.905   3.319 -0.1312 -0.1578 -0.1019
 6561TIP3   OH241097   0.435   4.452  10.234  0.1144  0.0669  0.0868
 6561TIP3    H141098   0.422   4.374  10.287 -0.2225 -0.3251 -0.5603
 6561TIP3    H241099   0.457   4.521  10.297  0.7917 -0.6280  0.6360
 6562TIP3   OH241100   0.688   0.381  15.165 -0.1687 -0.6442 -0.5774
 6562TIP3    H141101   0.637   0.413  15.239 -0.6879 -0.7337 -0.8865
 6562TIP3    H241102   0.677   0.285  15.168 -0.3826 -0.6332 -0.8948
 6563TIP3   OH241103   2.708   6.334  11.896 -0.2842 -0.6518  0.2606
 6563TIP3    H141104   2.652   6.321  11.972  1.0356 -0.3702  1.3081
 6563TIP3    H241105   2.745   6.422  11.908 -0.2468 -0.4923 -0.8459
 6564TIP3   OH241106   5.736   4.857  14.690  0.1224 -0.2898  0.1933
 6564TIP3    H141107   5.731   4.952  14.690 -3.8796 -0.3249  0.4086
 6564TIP3    H241108   5.769   4.835  14.602 -0.5812  1.3270 -0.5193
 6565TIP3   OH241109   6.308   1.812   5.913  0.2023  0.6142 -0.0068
 6565TIP3    H141110   6.269   1.795   5.999 -0.1513  1.8092  0.0776
 6565TIP3    H241111   6.234   1.818   5.853  0.5085 -2.1663 -0.8074
 6566TIP3   OH241112   6.228   1.992   0.018  0.7349 -0.0542  0.1297
 6566TIP3    H141113   6.315   2.008  -0.019  0.3144 -1.7658 -1.7442
 6566TIP3    H241114   6.171   2.055  -0.027  0.4445 -1.2997 -1.3412
 6567TIP3   OH241115   1.983   0.075   1.060  0.1376 -0.1464 -0.2501
 6567TIP3    H141116   1.950   0.127   1.134 -0.9944  0.1027 -0.9023
 6567TIP3    H241117   2.077   0.068   1.076 -0.0041  0.3437  0.9387
 6568TIP3   OH241118   3.852   1.033   4.614  0.0089  0.2639  0.2032
 6568TIP3    H141119   3.899   1.037   4.697 -0.1452  2.2667  0.2589
 6568TIP3    H241120   3.913   1.072   4.550 -1.5354  3.2429  0.3392
 6569TIP3   OH241121   6.058   1.250   1.379 -0.8387 -0.0181 -0.4426
 6569TIP3    H141122   6.006   1.329   1.368  0.8724  1.2538  0.0545
 6569TIP3    H241123   6.055   1.207   1.294  0.1609  1.9043 -1.5261
 6570TIP3   OH241124   2.261   5.201   1.969 -0.3727  0.4170  0.3899
 6570TIP3    H141125   2.331   5.255   2.007  0.2519  0.9294 -1.3982
 6570TIP3    H241126   2.186   5.216   2.026  0.8498  0.1187  2.1709
 6571TIP3   OH241127   5.726   2.962  12.984  0.3230 -0.4166 -0.8312
 6571TIP3    H141128   5.802   2.906  12.998 -0.7970 -1.3585  2.5747
 6571TIP3    H241129   5.653   2.901  12.974 -0.8835  0.1838  2.6822
 6572TIP3   OH241130   0.754   3.575  12.984  0.1035  0.2183 -0.2382
 6572TIP3    H141131   0.804   3.551  12.907 -1.4760  0.8235 -1.4967
 6572TIP3    H241132   0.791   3.658  13.013  0.3640  0.2442 -0.6546
 6573TIP3   OH241133   5.412   4.194  16.114  0.1240 -0.6233 -0.1209
 6573TIP3    H141134   5.498   4.156  16.095 -0.0354 -1.1330  0.1769
 6573TIP3    H241135   5.429   4.258  16.183  0.0438 -1.7687  0.9894
 6574TIP3   OH241136   3.973   2.886   0.847 -0.3824  0.6492 -0.6377
 6574TIP3    H141137   3.936   2.970   0.873 -1.7306  0.6609 -2.4182
 6574TIP3    H241138   3.973   2.887   0.752  1.0904 -0.7554 -0.7175
 6575TIP3   OH241139   0.337   4.982  17.026  0.0469  0.3209  0.4874
 6575TIP3    H141140   0.274   5.036  16.977  0.1704 -0.5100 -0.6268
 6575TIP3    H241141   0.287   4.904  17.051 -0.0337  0.7612  1.7845
 6576TIP3   OH241142   4.295   0.733   5.560 -0.9188  0.5827 -0.0396
 6576TIP3    H141143   4.302   0.772   5.473 -0.0861 -0.6948 -0.5827
 6576TIP3    H241144   4.283   0.807   5.619 -0.8085  1.5282 -1.1701
 6577TIP3   OH241145   4.816   5.862   5.184 -0.1156  0.3897 -0.2943
 6577TIP3    H141146   4.732   5.900   5.212  0.2038  0.3185  0.8099
 6577TIP3    H241147   4.849   5.923   5.118 -0.5028  1.0248  0.0889
 6578TIP3   OH241148   0.286   4.062  11.641  0.6134  0.5322 -0.4339
 6578TIP3    H141149   0.273   4.086  11.549  3.7913 -1.4951 -1.5798
 6578TIP3    H241150   0.302   4.145  11.685 -0.5979  1.5133 -1.7247
 6579TIP3   OH241151   5.045   6.369  13.525 -0.0778  0.3077  0.0300
 6579TIP3    H141152   4.974   6.389  13.586 -0.6380 -0.9256 -0.1895
 6579TIP3    H241153   5.121   6.413  13.561 -0.8543  1.3171  0.4935
 6580TIP3   OH241154   2.663   4.218   0.159 -0.5837 -0.4456 -0.3076
 6580TIP3    H141155   2.699   4.144   0.208 -0.0344 -1.1475 -1.7116
 6580TIP3    H241156   2.680   4.196   0.067  1.0803  2.1474 -0.7324
 6581TIP3   OH241157   3.801   2.039   4.192  0.3359  0.2471  0.4607
 6581TIP3    H141158   3.894   2.055   4.207 -0.1432  2.2718  1.7176
 6581TIP3    H241159   3.770   2.002   4.275 -0.3041  1.2841  0.6970
 6582TIP3   OH241160   3.300   3.401  16.831 -0.4044 -0.3478 -0.0656
 6582TIP3    H141161   3.332   3.312  16.842 -2.3718 -1.1042  0.0563
 6582TIP3    H241162   3.265   3.403  16.741  1.2862  0.9085 -0.7448
 6583TIP3   OH241163   2.788   3.083   1.660  0.4194  0.9070 -0.1037
 6583TIP3    H141164   2.805   3.168   1.700 -0.6580  1.5503 -0.9689
 6583TIP3    H241165   2.874   3.051   1.634  1.2215  0.3503  2.8330
 6584TIP3   OH241166   1.420   2.224   4.389  0.5530  0.0181  0.4620
 6584TIP3    H141167   1.344   2.175   4.357  0.5571  0.2500  0.0820
 6584TIP3    H241168   1.495   2.170   4.362  0.4859 -1.0708  2.3263
 6585TIP3   OH241169   4.116   0.161  10.726 -0.1723 -0.4204 -0.7923
 6585TIP3    H141170   4.181   0.134  10.790 -1.5569  0.4843  1.0815
 6585TIP3    H241171   4.033   0.127  10.760 -1.3909  2.5366 -0.4823
 6586TIP3   OH241172   3.174   4.116  12.094 -0.3167  0.1032  0.2463
 6586TIP3    H141173   3.097   4.165  12.124  0.5998 -0.2508  3.6178
 6586TIP3    H241174   3.249   4.166  12.128  1.2113  1.2365 -4.1276
 6587TIP3   OH241175   5.556   1.350  13.451  0.1833  0.1459  0.4820
 6587TIP3    H141176   5.547   1.280  13.516  1.9808 -0.0693  0.5532
 6587TIP3    H241177   5.646   1.341  13.418 -0.2798  1.0282 -1.1449
 6588TIP3   OH241178   2.575   5.610   5.889 -0.3846  0.2454 -0.0220
 6588TIP3    H141179   2.517   5.678   5.925  1.2266  2.5607 -1.4679
 6588TIP3    H241180   2.529   5.579   5.811 -0.8715  0.1300  0.3089
 6589TIP3   OH241181   5.743   4.681  11.448 -0.1505 -0.1418  0.6485
 6589TIP3    H141182   5.794   4.696  11.528 -0.5357  1.0480  0.6880
 6589TIP3    H241183   5.712   4.768  11.422  1.5542 -0.1478 -1.8751
 6590TIP3   OH241184   0.887   5.187  12.754 -0.6195 -0.3590 -0.1053
 6590TIP3    H141185   0.893   5.119  12.821 -1.9746 -0.2990  0.1061
 6590TIP3    H241186   0.797   5.218  12.759 -1.0840 -1.0622 -2.6374
 6591TIP3   OH241187   3.996   4.969   0.190  0.3635  0.0985  0.1344
 6591TIP3    H141188   3.948   4.951   0.271 -0.1389  2.4782  0.4630
 6591TIP3    H241189   4.025   5.060   0.200  0.1929  0.4954 -2.3918
 6592TIP3   OH241190   1.754   5.531   0.454  0.0940  0.3312  0.0808
 6592TIP3    H141191   1.725   5.578   0.531  2.3090 -0.4419  1.4812
 6592TIP3    H241192   1.752   5.438   0.480 -0.1182 -0.0341 -1.1551
 6593TIP3   OH241193   2.623   5.004   4.217 -0.2652 -0.5584 -0.3989
 6593TIP3    H141194   2.705   5.050   4.234 -0.6136 -1.2162  4.8442
 6593TIP3    H241195   2.637   4.916   4.250 -2.8676 -0.7886  0.3665
 6594TIP3   OH241196   3.553   4.363   1.658  0.4244  0.4763 -0.4604
 6594TIP3    H141197   3.609   4.303   1.610 -1.3655 -1.6219 -0.0804
 6594TIP3    H241198   3.497   4.307   1.712 -0.5247  2.5448  0.8670
 6595TIP3   OH241199   6.065   0.926  14.577  0.2183 -0.5182  0.1050
 6595TIP3    H141200   5.977   0.909  14.544  0.3691 -0.9489 -0.0790
 6595TIP3    H241201   6.110   0.842  14.570  1.3391  0.1968 -1.9332
 6596TIP3   OH241202   4.578   0.454   5.699  0.1342  0.0039 -0.3684
 6596TIP3    H141203   4.543   0.368   5.674 -1.6984 -0.3778  2.8405
 6596TIP3    H241204   4.619   0.488   5.620 -0.7081 -3.0219 -2.2700
 6597TIP3   OH241205   0.620   1.839  16.418 -0.2682 -0.0306 -0.6122
 6597TIP3    H141206   0.651   1.928  16.437 -1.3306  1.0237 -3.3765
 6597TIP3    H241207   0.538   1.852  16.370 -0.2325 -2.4923 -1.4528
 6598TIP3   OH241208   5.376   4.440   3.547  0.0643 -0.2217  0.0507
 6598TIP3    H141209   5.423   4.365   3.511  0.0141 -0.5663  0.6950
 6598TIP3    H241210   5.287   4.408   3.563 -0.3909  0.4163 -1.1227
 6599TIP3   OH241211   2.191   2.084  16.317  0.1821  0.0035 -0.1102
 6599TIP3    H141212   2.278   2.110  16.349 -0.7154  2.6865  0.3891
 6599TIP3    H241213   2.183   2.126  16.231 -0.6892 -0.0993 -0.0906
 6600TIP3   OH241214   6.648   6.739  13.577 -0.0498 -0.1251 -0.5623
 6600TIP3    H141215   6.687   6.655  13.600 -2.2220 -0.9534  0.3562
 6600TIP3    H241216   6.645   6.739  13.481 -2.1179 -2.2322 -0.6051
 6601TIP3   OH241217   5.018   4.838   2.739  0.3748 -0.4572 -0.0517
 6601TIP3    H141218   5.009   4.752   2.699 -1.8196  0.7078 -2.3856
 6601TIP3    H241219   5.096   4.876   2.698  1.4686 -1.3500  1.1416
 6602TIP3   OH241220   2.538   6.179   2.090 -0.2302 -0.2845 -0.8163
 6602TIP3    H141221   2.524   6.224   2.007  3.5011  0.7812 -1.0709
 6602TIP3    H241222   2.546   6.248   2.155 -4.3705 -1.1308  0.8934
 6603TIP3   OH241223   1.780   4.721   6.311 -0.3518  0.5679 -0.5226
 6603TIP3    H141224   1.784   4.645   6.254 -1.8031  1.5140 -1.9650
 6603TIP3    H241225   1.693   4.758   6.296  0.1352  2.2383  0.4907
 6604TIP3   OH241226   5.570   1.091   3.684 -0.3536  0.7398  0.2054
 6604TIP3    H141227   5.497   1.033   3.664 -0.3213  0.2199  1.5196
 6604TIP3    H241228   5.643   1.056   3.632 -0.6771  0.4115 -0.0307
 6605TIP3   OH241229   3.760   2.454  15.414 -0.1103  0.0293 -0.4021
 6605TIP3    H141230   3.760   2.467  15.319 -0.3032 -0.7396 -0.5122
 6605TIP3    H241231   3.693   2.515  15.447 -0.4339 -0.0993 -0.8154
 6606TIP3   OH241232   1.198   1.786   5.953 -0.3399 -0.2631  0.2708
 6606TIP3    H141233   1.253   1.709   5.937 -2.9788 -1.7608 -2.5334
 6606TIP3    H241234   1.260   1.853   5.983  3.0161 -1.9052 -2.2795
 6607TIP3   OH241235   1.587   0.143   4.408  0.0488 -0.0640  0.8967
 6607TIP3    H141236   1.682   0.158   4.413 -0.1178  0.7994  1.5954
 6607TIP3    H241237   1.548   0.225   4.435 -0.9025 -0.9246  2.2624
 6608TIP3   OH241238   4.799   6.325  13.144 -0.0334 -0.3019  0.2496
 6608TIP3    H141239   4.768   6.382  13.214  0.2724  0.3903 -0.1738
 6608TIP3    H241240   4.729   6.260  13.134 -1.2664  1.0792 -0.5184
 6609TIP3   OH241241   3.694   4.474   0.512  0.5404 -0.2104 -0.1670
 6609TIP3    H141242   3.730   4.555   0.476 -0.3915 -0.6826 -2.3276
 6609TIP3    H241243   3.730   4.405   0.455  1.7936 -1.4395  1.9827
 6610TIP3   OH241244   4.559   1.036  13.433 -0.1624 -0.0387 -0.4684
 6610TIP3    H141245   4.531   1.119  13.471 -0.4573  0.4734 -1.7526
 6610TIP3    H241246   4.515   1.033  13.348 -0.4084 -1.6585 -0.3174
 6611TIP3   OH241247   2.916   3.421   4.878 -0.1702 -0.4015 -0.2399
 6611TIP3    H141248   2.833   3.467   4.888  0.0994  0.0600 -0.1079
 6611TIP3    H241249   2.983   3.488   4.889  0.3214 -1.2081  2.4218
 6612TIP3   OH241250   3.066   0.404  16.836 -0.3806 -0.0021 -0.3833
 6612TIP3    H141251   3.091   0.385  16.926 -0.8091  1.7059  0.1175
 6612TIP3    H241252   2.983   0.357  16.824 -1.7015  1.8518  1.0063
 6613TIP3   OH241253   6.203   6.471   2.998  0.0198 -0.0425 -0.4157
 6613TIP3    H141254   6.260   6.414   3.050 -0.5249 -1.2055 -1.0404
 6613TIP3    H241255   6.144   6.410   2.953 -0.7139  1.0443 -0.9584
 6614TIP3   OH241256   4.974   0.328  14.920  0.9832 -0.2840 -0.9127
 6614TIP3    H141257   4.900   0.293  14.969  1.0694  2.1468  1.1667
 6614TIP3    H241258   4.953   0.310  14.828 -1.9631 -0.0447 -0.3774
 6615TIP3   OH241259   2.995   0.258   5.728  0.3586  0.1937 -0.5499
 6615TIP3    H141260   2.999   0.273   5.822 -1.1804  1.0284 -0.5985
 6615TIP3    H241261   3.031   0.170   5.717  1.6154  0.5078  0.6702
 6616TIP3   OH241262   0.845   2.018   5.456 -0.0240  0.3321  0.1283
 6616TIP3    H141263   0.787   2.079   5.411  1.0919  0.7254 -0.8182
 6616TIP3    H241264   0.796   1.993   5.535 -1.9098 -0.1400 -1.1095
 6617TIP3   OH241265   3.886   6.278  12.469 -0.4220 -0.5544 -0.0228
 6617TIP3    H141266   3.838   6.288  12.551  0.5207  0.5749  0.4233
 6617TIP3    H241267   3.977   6.268  12.495  0.2594  2.2335 -0.9072
 6618TIP3   OH241268   2.460   0.930   4.854  0.3524 -0.2702  0.0665
 6618TIP3    H141269   2.491   1.013   4.818 -1.1879  0.7777  1.0569
 6618TIP3    H241270   2.530   0.868   4.834  2.2010  1.5537  0.5782
 6619TIP3   OH241271   4.634   3.532   1.434 -0.2578 -0.5007 -0.0457
 6619TIP3    H141272   4.542   3.516   1.413 -0.6840  2.0134 -0.4114
 6619TIP3    H241273   4.637   3.533   1.530 -0.6096 -0.5969 -0.0334
 6620TIP3   OH241274   5.530   2.845  15.103  0.1178 -0.5329 -0.4392
 6620TIP3    H141275   5.508   2.936  15.087 -0.4551 -0.5403  0.2497
 6620TIP3    H241276   5.447   2.803  15.125  0.7179 -0.6114  2.0047
 6621TIP3   OH241277   4.330   0.408  14.020 -0.1075  0.3644 -0.4559
 6621TIP3    H141278   4.379   0.332  14.052 -2.8625 -1.4429 -0.2074
 6621TIP3    H241279   4.365   0.424  13.933  0.4746 -1.2778 -0.5565
 6622TIP3   OH241280   5.416   2.443  16.454 -0.3249  0.2839 -0.1412
 6622TIP3    H141281   5.381   2.379  16.392 -1.4423 -0.3274  1.0729
 6622TIP3    H241282   5.394   2.528  16.415 -0.9138 -0.0856 -0.6317
 6623TIP3   OH241283   4.197   6.539   1.384 -0.1151  0.2693  0.3215
 6623TIP3    H141284   4.234   6.538   1.472 -1.3930 -1.8205  0.8972
 6623TIP3    H241285   4.232   6.460   1.343 -0.3019  0.7130 -0.7196
 6624TIP3   OH241286   2.464   0.887  15.656  0.2520 -0.3527 -0.2165
 6624TIP3    H141287   2.374   0.920  15.659  0.0593 -0.9260  1.1005
 6624TIP3    H241288   2.467   0.832  15.578 -0.6692 -0.6706 -0.0388
 6625TIP3   OH241289   1.091   4.118  14.104 -0.2042  0.0361  0.0469
 6625TIP3    H141290   1.168   4.065  14.085 -1.1089 -0.7749 -1.6066
 6625TIP3    H241291   1.092   4.129  14.199  1.0875 -1.2861  0.2220
 6626TIP3   OH241292   6.393   0.111  17.070 -0.6291  0.4976 -0.5468
 6626TIP3    H141293   6.354   0.098  17.157 -0.2351  0.6738 -0.3406
 6626TIP3    H241294   6.323   0.089  17.009 -1.3772  1.8002 -0.1838
 6627TIP3   OH241295   3.294   0.511  12.280 -0.1343 -0.1856  0.5776
 6627TIP3    H141296   3.379   0.502  12.322  0.7808 -1.1269 -1.3089
 6627TIP3    H241297   3.268   0.602  12.295  1.4190  0.2356  0.8221
 6628TIP3   OH241298   2.172   4.951  13.111  0.0394  0.6521 -0.1420
 6628TIP3    H141299   2.094   4.930  13.059  1.2798  0.8886 -2.2038
 6628TIP3    H241300   2.138   4.969  13.198 -2.0705 -0.5482 -0.6379
 6629TIP3   OH241301   2.105   4.933   4.692  0.3035  0.3381 -0.7311
 6629TIP3    H141302   2.076   5.023   4.701  0.9590  0.3097  3.5448
 6629TIP3    H241303   2.172   4.922   4.759  2.0314 -2.7313 -2.6762
 6630TIP3   OH241304   0.082   3.622  12.066  0.4615 -0.3817  0.4003
 6630TIP3    H141305   0.053   3.683  12.134  0.2815 -1.4416  1.2953
 6630TIP3    H241306   0.072   3.536  12.105 -0.8729 -1.1157 -1.4329
 6631TIP3   OH241307   0.928   0.351  16.725  0.2641 -0.2514  0.1015
 6631TIP3    H141308   0.938   0.416  16.795  0.3954 -0.2037  0.0385
 6631TIP3    H241309   0.994   0.375  16.661 -0.3106  0.1247 -0.3622
 6632TIP3   OH241310   5.187   1.563  13.308  0.0641  0.1238  0.4274
 6632TIP3    H141311   5.186   1.617  13.229  0.7633 -0.3032  0.1138
 6632TIP3    H241312   5.098   1.569  13.343 -0.2938  0.1917 -0.4816
 6633TIP3   OH241313   3.920   2.443   4.073  0.0814 -1.0893  0.0099
 6633TIP3    H141314   3.943   2.523   4.120 -0.8475  0.2831 -1.7565
 6633TIP3    H241315   3.846   2.407   4.121  1.9840 -2.3140  2.2465
 6634TIP3   OH241316   4.725   1.904   1.420 -0.1547 -0.5967 -0.4217
 6634TIP3    H141317   4.649   1.850   1.401  1.4805 -3.1366 -0.1999
 6634TIP3    H241318   4.752   1.938   1.335 -0.4502 -1.2043 -0.7649
 6635TIP3   OH241319   2.949   4.641   4.061  0.2781 -0.2640 -0.3315
 6635TIP3    H141320   3.044   4.650   4.061  0.2859 -0.2418  0.7710
 6635TIP3    H241321   2.927   4.619   3.970  1.4549 -1.4835 -0.3541
 6636TIP3   OH241322   3.464   4.048  11.081 -0.7216  0.1562  0.1548
 6636TIP3    H141323   3.531   4.064  11.015  0.1826 -2.5325  0.2810
 6636TIP3    H241324   3.513   4.019  11.158 -1.9104  0.6937  1.1462
 6637TIP3   OH241325   1.122   3.207  15.233 -0.2184  0.8518 -0.4638
 6637TIP3    H141326   1.109   3.261  15.155 -0.5220  1.2413 -0.1461
 6637TIP3    H241327   1.112   3.267  15.306  0.5221  0.5854 -0.1250
 6638TIP3   OH241328   1.695   0.409  12.877 -0.1850 -0.1794 -0.4343
 6638TIP3    H141329   1.625   0.355  12.839  1.0389 -2.0130 -0.2193
 6638TIP3    H241330   1.661   0.436  12.962 -0.0152 -2.5395  0.4502
 6639TIP3   OH241331   2.946   2.371  13.124  0.0472 -0.9264  0.1580
 6639TIP3    H141332   2.949   2.383  13.219 -0.3913 -0.7613  0.1562
 6639TIP3    H241333   2.858   2.400  13.099  1.0383  1.6428 -0.6671
 6640TIP3   OH241334   4.869   5.256  11.882 -0.3678 -0.8490 -0.1246
 6640TIP3    H141335   4.840   5.278  11.971 -0.0249  1.0377 -0.4356
 6640TIP3    H241336   4.788   5.253  11.831 -0.3655  0.7199 -0.2539
 6641TIP3   OH241337   6.309   2.510  15.939 -0.6570 -0.1508  0.4648
 6641TIP3    H141338   6.304   2.592  15.891  0.6143  0.3386  1.1324
 6641TIP3    H241339   6.223   2.500  15.980 -0.6818  1.0671  0.7279
 6642TIP3   OH241340   6.025   4.154   4.699 -0.3164  0.6368 -0.1971
 6642TIP3    H141341   6.119   4.153   4.680 -0.1149  0.8329  0.7641
 6642TIP3    H241342   5.995   4.066   4.677 -0.1516  0.9106 -1.6369
 6643TIP3   OH241343   5.001   0.752  14.021  0.2950  0.1878 -0.4259
 6643TIP3    H141344   4.915   0.781  13.990  0.6147  0.1136 -1.4490
 6643TIP3    H241345   5.018   0.806  14.098 -0.2694  0.8581 -0.7558
 6644TIP3   OH241346   1.058   4.251  10.451  0.3897 -0.1044 -0.2421
 6644TIP3    H141347   1.038   4.284  10.539 -0.2332 -0.0289 -0.4083
 6644TIP3    H241348   0.978   4.207  10.423  0.4611  0.1733 -0.9087
 6645TIP3   OH241349   4.303   0.020   1.338  0.8611  0.2203  0.5797
 6645TIP3    H141350   4.380  -0.036   1.343 -0.0739 -1.2070 -0.1017
 6645TIP3    H241351   4.230  -0.039   1.355 -0.1608  1.3023  0.1084
 6646TIP3   OH241352   5.906   3.526  15.967  0.0871  0.2430  0.1524
 6646TIP3    H141353   5.921   3.466  16.039 -1.8719 -1.4407 -0.7496
 6646TIP3    H241354   5.839   3.587  15.998 -0.6169 -0.3646 -0.1341
 6647TIP3   OH241355   5.028   2.684  13.939  0.1864  0.8870  0.0514
 6647TIP3    H141356   5.062   2.667  14.027  0.8421 -1.4096 -0.5872
 6647TIP3    H241357   4.934   2.663  13.945  0.7787 -2.5465 -0.4611
 6648TIP3   OH241358   5.313   3.373   1.472 -0.5729 -0.1511 -0.3103
 6648TIP3    H141359   5.288   3.288   1.508 -0.0050 -0.5475 -0.8461
 6648TIP3    H241360   5.406   3.382   1.491 -1.0141  1.2444  1.5065
 6649TIP3   OH241361   3.582   2.297  11.891 -0.1051  0.0711  0.1989
 6649TIP3    H141362   3.569   2.360  11.961  0.7262  0.8601 -0.3335
 6649TIP3    H241363   3.544   2.215  11.924  0.8350  0.2611  1.8174
 6650TIP3   OH241364   4.146   6.163   2.473  0.2403  0.0847 -0.0540
 6650TIP3    H141365   4.216   6.150   2.537  0.1389  0.6899  0.1891
 6650TIP3    H241366   4.099   6.241   2.504 -0.2178 -0.0045 -0.5023
 6651TIP3   OH241367   3.128   5.347  13.627 -0.0958  0.3900  0.4686
 6651TIP3    H141368   3.149   5.334  13.720  0.2187  1.0043  0.4942
 6651TIP3    H241369   3.036   5.373  13.627 -0.0174  0.6758  0.6379
 6652TIP3   OH241370   5.396   6.076   4.850 -0.1549 -0.0541 -1.0197
 6652TIP3    H141371   5.383   6.008   4.916 -1.1740  0.6032 -0.5242
 6652TIP3    H241372   5.475   6.122   4.879  0.7774 -1.2306 -1.5708
 6653TIP3   OH241373   1.503   1.374   5.228  0.0846 -0.1393  0.4438
 6653TIP3    H141374   1.560   1.401   5.157  1.4145 -1.8782  0.7767
 6653TIP3    H241375   1.546   1.406   5.307 -0.9444  1.0508  0.5447
 6654TIP3   OH241376   0.600   2.369   2.562 -0.3840 -0.1326 -0.1805
 6654TIP3    H141377   0.571   2.308   2.630  0.5652  0.1744  0.5178
 6654TIP3    H241378   0.527   2.429   2.551 -0.7000 -0.4231  0.2872
 6655TIP3   OH241379   5.965   4.133   5.106  0.2181  0.2578  0.5762
 6655TIP3    H141380   6.031   4.073   5.140  0.3872  1.2732  2.1658
 6655TIP3    H241381   6.009   4.181   5.036  0.1839 -1.1982 -0.4755
 6656TIP3   OH241382   2.042   0.428  14.828 -0.4616  0.1960  0.0645
 6656TIP3    H141383   2.101   0.476  14.769 -1.1413  0.4400 -0.4260
 6656TIP3    H241384   1.961   0.418  14.778 -0.8061 -0.2277  0.6967
 6657TIP3   OH241385   2.955   0.894  11.436  0.1631  0.2509  0.1600
 6657TIP3    H141386   2.928   0.945  11.360  1.1686  0.1497 -0.2727
 6657TIP3    H241387   2.875   0.850  11.465 -0.3617  0.8017 -0.4423
 6658TIP3   OH241388   6.593   1.593  12.288  0.1999 -0.1758  0.1296
 6658TIP3    H141389   6.573   1.517  12.343  2.6495 -0.4616  0.7564
 6658TIP3    H241390   6.689   1.593  12.282  0.1939  2.1700 -0.8656
 6659TIP3   OH241391   5.072   3.295  11.638 -0.0892 -0.7487 -0.1053
 6659TIP3    H141392   5.098   3.310  11.547  0.4965 -1.4981 -0.0748
 6659TIP3    H241393   5.146   3.246  11.676  0.3459  0.7880  1.1718
 6660TIP3   OH241394   1.072   2.267   3.711 -0.2909  0.1817  0.4733
 6660TIP3    H141395   1.025   2.343   3.747 -0.5448  0.6501 -0.8033
 6660TIP3    H241396   1.124   2.302   3.640 -2.1942 -1.1323 -1.7108
 6661TIP3   OH241397   2.613   6.725   1.122  0.2942 -0.0488 -0.1244
 6661TIP3    H141398   2.688   6.766   1.164  0.3562  1.0167 -1.2328
 6661TIP3    H241399   2.539   6.747   1.179  0.5863  0.1769  0.1723
 6662TIP3   OH241400   3.488   2.961  14.624  0.0177 -0.4562  0.3719
 6662TIP3    H141401   3.410   2.973  14.679  1.6182  0.3552  2.6385
 6662TIP3    H241402   3.557   3.009  14.670  1.4878  0.4586 -2.5022
 6663TIP3   OH241403   6.613   3.204   0.007  0.2416  1.0017  0.6093
 6663TIP3    H141404   6.629   3.110  -0.006  1.1309  1.1183  0.7643
 6663TIP3    H241405   6.676   3.229   0.075  1.4806  2.1322 -0.8913
 6664TIP3   OH241406   5.148   0.719   3.833 -0.0047  0.1688 -0.0683
 6664TIP3    H141407   5.202   0.758   3.902  1.7574 -0.3824 -1.0533
 6664TIP3    H241408   5.128   0.631   3.865  2.6269 -0.8919 -1.0517
 6665TIP3   OH241409   0.786   1.319   1.734  0.3710 -0.0244 -0.2582
 6665TIP3    H141410   0.709   1.375   1.740  0.4531  0.0267  0.3745
 6665TIP3    H241411   0.818   1.332   1.645 -0.2066  0.1422 -0.4444
 6666TIP3   OH241412   1.013   6.354  16.429 -0.3996  0.0102  0.3879
 6666TIP3    H141413   0.944   6.310  16.479 -0.5486 -0.0844  0.0990
 6666TIP3    H241414   0.983   6.444  16.419 -1.7590 -0.6139 -1.9878
 6667TIP3   OH241415   6.242   0.826   4.282 -0.2763  0.2516 -0.1602
 6667TIP3    H141416   6.202   0.779   4.355  0.2583 -0.3396 -0.2413
 6667TIP3    H241417   6.336   0.826   4.303 -0.1479  0.2815 -0.7294
 6668TIP3   OH241418   4.909   5.256  12.877 -0.5357 -0.0854  0.7260
 6668TIP3    H141419   4.953   5.270  12.960 -2.1783 -0.3990  1.6992
 6668TIP3    H241420   4.958   5.310  12.814  1.9820 -1.4157  1.4201
 6669TIP3   OH241421   1.499   0.186  14.471  1.3737 -0.9174 -0.7996
 6669TIP3    H141422   1.433   0.182  14.540  0.7716  3.1800 -0.9180
 6669TIP3    H241423   1.457   0.147  14.395 -0.7050  0.8785 -0.6582
 6670TIP3   OH241424   4.922   4.987   2.201 -0.2617  0.1569  0.0408
 6670TIP3    H141425   4.945   4.894   2.205 -0.7264  0.0237 -0.2509
 6670TIP3    H241426   4.879   5.004   2.285  0.2991  0.2444  0.3151
 6671TIP3   OH241427   3.450   2.939   3.658 -0.7095 -0.3017  0.2103
 6671TIP3    H141428   3.432   2.995   3.734 -0.7273  0.4300 -0.3255
 6671TIP3    H241429   3.364   2.924   3.618 -0.5939  0.0857 -0.1926
 6672TIP3   OH241430   4.025   2.090  15.568  0.4567  0.0176  0.9667
 6672TIP3    H141431   3.931   2.083  15.585 -0.1598  3.8295 -0.0245
 6672TIP3    H241432   4.036   2.058  15.479  0.0043  0.0920  0.8835
 6673TIP3   OH241433   3.678   2.750  10.787 -0.0024 -0.5356  0.2519
 6673TIP3    H141434   3.633   2.718  10.709 -1.2552  0.3806  0.5614
 6673TIP3    H241435   3.745   2.809  10.754  0.5498 -1.3973 -0.1914
 6674TIP3   OH241436   6.610   1.479   5.216  0.0137  0.0089 -0.3750
 6674TIP3    H141437   6.685   1.520   5.173 -0.7462  1.5845 -0.3050
 6674TIP3    H241438   6.553   1.553   5.238 -0.7441 -0.9823  1.1507
 6675TIP3   OH241439   5.940   3.221  14.813 -0.4675  0.0370 -0.0637
 6675TIP3    H141440   6.017   3.277  14.809 -1.3210  1.2875  0.4206
 6675TIP3    H241441   5.917   3.218  14.906  1.6838 -4.1851  0.5460
 6676TIP3   OH241442   3.147   1.630   1.624  0.8038  0.3525 -0.3667
 6676TIP3    H141443   3.222   1.645   1.682  2.0874 -0.9619 -1.5692
 6676TIP3    H241444   3.187   1.613   1.538 -0.8803 -0.3992 -1.0429
 6677TIP3   OH241445   0.113   5.445   2.786  0.4070 -0.1685  0.1325
 6677TIP3    H141446   0.201   5.428   2.752  0.5538 -0.9989  0.8844
 6677TIP3    H241447   0.106   5.540   2.789  1.1162 -0.0958 -0.3506
 6678TIP3   OH241448   4.421   0.824  11.935 -0.2066 -0.4899 -0.1036
 6678TIP3    H141449   4.408   0.842  11.841 -0.1064 -0.7105 -0.1589
 6678TIP3    H241450   4.334   0.800  11.967 -0.4222  0.4307  0.0475
 6679TIP3   OH241451   4.826   3.687   0.627  0.7220  0.2445 -0.2248
 6679TIP3    H141452   4.774   3.725   0.556  1.0004  0.1271 -0.4982
 6679TIP3    H241453   4.768   3.624   0.668  0.0938  1.2821  0.5298
 6680TIP3   OH241454   6.200   1.396   3.617  0.9829  0.3988 -0.7945
 6680TIP3    H141455   6.199   1.361   3.528  0.5823  2.8394 -1.8305
 6680TIP3    H241456   6.126   1.457   3.620  1.6879  1.2321  0.8253
 6681TIP3   OH241457   6.346   3.172  12.995  0.4204 -0.1440 -0.2512
 6681TIP3    H141458   6.350   3.267  13.008  0.3992 -0.2067  0.2092
 6681TIP3    H241459   6.370   3.134  13.079 -0.8140 -0.5375 -0.0549
 6682TIP3   OH241460   0.615   2.330  15.211 -0.2648 -0.1475  0.5516
 6682TIP3    H141461   0.564   2.310  15.133 -0.7531  3.3155 -0.1831
 6682TIP3    H241462   0.693   2.274  15.204 -1.5322 -1.8280 -0.9661
 6683TIP3   OH241463   5.099   3.650   2.599 -0.4836 -0.0077 -0.0906
 6683TIP3    H141464   5.190   3.667   2.623 -0.3483 -0.3678 -0.3459
 6683TIP3    H241465   5.051   3.727   2.630  0.1620  1.0387 -1.5569
 6684TIP3   OH241466   2.059   4.466  11.523  0.1611 -0.1292  0.1527
 6684TIP3    H141467   2.014   4.383  11.510  0.8387 -0.1871 -2.3877
 6684TIP3    H241468   2.129   4.447  11.586  0.7007 -1.6607 -0.8653
 6685TIP3   OH241469   1.739   0.138   6.585 -0.6719  0.6965  0.1239
 6685TIP3    H141470   1.650   0.101   6.582  0.1265 -1.3913  0.3938
 6685TIP3    H241471   1.759   0.159   6.493 -1.8190  2.2705  0.1879
 6686TIP3   OH241472   3.912   5.762  16.598 -0.0060 -0.3037  0.5941
 6686TIP3    H141473   3.826   5.739  16.562  0.6284  1.6577 -2.5931
 6686TIP3    H241474   3.971   5.694  16.565  0.2627  0.4883 -0.6299
 6687TIP3   OH241475   2.081   5.006   1.852  0.5781  0.2672  0.4037
 6687TIP3    H141476   2.156   5.057   1.883  1.2359 -0.1819 -0.4074
 6687TIP3    H241477   2.050   4.959   1.929  1.2710  0.2969  0.7091
 6688TIP3   OH241478   6.359   4.489  17.303 -0.0179  0.0183  0.2269
 6688TIP3    H141479   6.382   4.415  17.359 -1.3697 -0.1672  0.5552
 6688TIP3    H241480   6.264   4.491  17.302 -0.0257  0.6368 -1.2650
 6689TIP3   OH241481   3.606   1.038   1.328 -0.4896  0.1870  0.2857
 6689TIP3    H141482   3.510   1.037   1.327 -0.5055 -1.1339 -1.5597
 6689TIP3    H241483   3.632   0.946   1.316  1.0375  0.4089  1.5063
 6690TIP3   OH241484   5.917   3.269  10.638  0.3019  0.1554  0.2227
 6690TIP3    H141485   5.828   3.244  10.616  0.4117  1.1041 -1.4828
 6690TIP3    H241486   5.965   3.261  10.555  1.5903  0.4980  0.9155
 6691TIP3   OH241487   5.799   0.709   2.325  0.4324  0.1225 -0.0199
 6691TIP3    H141488   5.881   0.758   2.329  1.1229 -1.0639  2.7759
 6691TIP3    H241489   5.817   0.637   2.264  1.5654 -0.1926  0.6533
 6692TIP3   OH241490   3.856   5.081  13.205  0.6914  0.2011  0.0997
 6692TIP3    H141491   3.906   5.018  13.258  1.4631 -0.8649 -1.8068
 6692TIP3    H241492   3.895   5.075  13.118 -0.5947  1.8466 -0.6381
 6693TIP3   OH241493   0.987   4.809   6.646  0.1785 -0.5700  0.7260
 6693TIP3    H141494   0.919   4.849   6.700 -1.3627 -0.9319 -0.8414
 6693TIP3    H241495   1.068   4.852   6.674 -0.7424  0.2221  2.3307
 6694TIP3   OH241496   2.281   3.768  14.711  0.3744  0.0218 -0.4761
 6694TIP3    H141497   2.206   3.726  14.753 -0.6224  1.5289 -0.6645
 6694TIP3    H241498   2.305   3.710  14.639 -1.8222  0.3760 -1.5666
 6695TIP3   OH241499   1.707   0.023   1.653 -0.2631  0.1797  0.0156
 6695TIP3    H141500   1.770   0.004   1.583  2.7174 -2.0807  3.0149
 6695TIP3    H241501   1.641  -0.046   1.645  0.7472 -0.8378  0.0975
 6696TIP3   OH241502   1.610   6.208  13.022  0.4846 -0.1456  0.3226
 6696TIP3    H141503   1.529   6.173  13.060  0.5396  0.2613  0.8226
 6696TIP3    H241504   1.617   6.297  13.058 -0.2226  0.8072 -1.7392
 6697TIP3   OH241505   2.472   0.015   5.410  0.3131 -0.0788 -0.3179
 6697TIP3    H141506   2.526  -0.034   5.348  0.4131 -0.4133  0.0281
 6697TIP3    H241507   2.509   0.103   5.411  1.7216 -0.6383  0.9165
 6698TIP3   OH241508   6.637   2.683   2.386  0.1533  0.1219  0.4081
 6698TIP3    H141509   6.560   2.687   2.329  0.5628  1.5991 -0.1083
 6698TIP3    H241510   6.602   2.691   2.474 -0.2312  3.1450  0.0921
 6699TIP3   OH241511   2.558   5.441  13.938 -0.2889 -0.1127  0.2346
 6699TIP3    H141512   2.653   5.434  13.923 -0.1760 -0.7998  1.1481
 6699TIP3    H241513   2.551   5.502  14.012 -0.5150 -0.5275  0.5592
 6700TIP3   OH241514   0.816   0.361  11.035 -0.0028  0.2169 -1.2124
 6700TIP3    H141515   0.868   0.385  11.111 -0.5805 -0.7650 -0.4772
 6700TIP3    H241516   0.875   0.305  10.983 -0.6151 -1.8654  0.1970
 6701TIP3   OH241517   1.349   0.788   0.731 -0.6998  0.4668  0.3096
 6701TIP3    H141518   1.259   0.808   0.708 -0.8694  0.1831  0.7249
 6701TIP3    H241519   1.354   0.692   0.730 -0.1998  0.4875 -0.4920
 6702TIP3   OH241520   6.613   6.704   3.949  0.0598 -0.3768  0.1453
 6702TIP3    H141521   6.673   6.738   4.016  1.3885  0.7618 -1.4983
 6702TIP3    H241522   6.669   6.651   3.892 -0.2768  1.1713 -1.7620
 6703TIP3   OH241523   1.156   4.472   0.825  0.8229  0.3938 -0.6521
 6703TIP3    H141524   1.225   4.408   0.809 -0.2468 -0.2777 -2.8961
 6703TIP3    H241525   1.201   4.556   0.827  1.9529 -0.2143  0.0446
 6704TIP3   OH241526   0.292   4.264   4.590 -0.3008 -0.5459 -0.3734
 6704TIP3    H141527   0.234   4.191   4.611  0.6677 -0.9764  0.9555
 6704TIP3    H241528   0.378   4.236   4.622 -0.4291  2.3887  3.1565
 6705TIP3   OH241529   6.664   4.013   1.310 -0.6133  0.4165 -0.0113
 6705TIP3    H141530   6.621   3.940   1.264  0.9202  0.1120 -1.0482
 6705TIP3    H241531   6.662   3.988   1.402 -2.2574  0.2279 -0.0624
 6706TIP3   OH241532   4.342   3.330   3.701  0.7889 -0.6477  0.2159
 6706TIP3    H141533   4.350   3.242   3.665  1.6853 -0.2519 -0.5868
 6706TIP3    H241534   4.280   3.374   3.644  1.0714 -0.4686  0.0474
 6707TIP3   OH241535   6.587   0.887   1.098  0.2823  0.4121  0.9989
 6707TIP3    H141536   6.627   0.929   1.174  0.2340 -0.0859  1.3062
 6707TIP3    H241537   6.555   0.803   1.131 -1.6855  1.0988  0.9546
 6708TIP3   OH241538   0.777   6.739   2.561 -0.2007  0.1922 -0.2386
 6708TIP3    H141539   0.853   6.764   2.508 -0.6091  1.4546 -0.2820
 6708TIP3    H241540   0.772   6.807   2.628 -2.5070  1.3942 -1.4893
 6709TIP3   OH241541   3.933   5.601  14.004  0.0816  0.2479  0.1458
 6709TIP3    H141542   3.950   5.507  14.002  0.6888  0.3615 -0.6188
 6709TIP3    H241543   3.845   5.609  14.041  0.0621 -0.6123  0.3019
 6710TIP3   OH241544   0.467   3.399  13.057  0.3181  0.2741 -0.3952
 6710TIP3    H141545   0.456   3.348  13.137  0.7926  0.0798 -0.4535
 6710TIP3    H241546   0.403   3.362  12.997 -1.3623  1.6271  0.4670
 6711TIP3   OH241547   4.676   4.597   2.681  0.0320 -0.6703  0.2051
 6711TIP3    H141548   4.581   4.584   2.678 -0.0790  0.0835  0.2828
 6711TIP3    H241549   4.691   4.643   2.764  0.3572  0.0509 -0.2478
 6712TIP3   OH241550   0.698   1.225  16.978 -0.0189  0.1426  0.2363
 6712TIP3    H141551   0.757   1.201  16.907  1.2079  1.2259  0.8346
 6712TIP3    H241552   0.636   1.286  16.939 -0.2822 -0.4167 -0.2282
 6713TIP3   OH241553   1.788   2.554  10.420  0.2502 -0.2003 -0.1731
 6713TIP3    H141554   1.747   2.469  10.431  0.7407 -0.3425  0.6288
 6713TIP3    H241555   1.720   2.609  10.380 -0.8373 -0.3362  1.4078
 6714TIP3   OH241556   2.955   2.787   3.268 -0.2064 -0.3940 -0.4238
 6714TIP3    H141557   2.933   2.767   3.359 -0.8904  0.9429 -0.2671
 6714TIP3    H241558   2.995   2.707   3.235  0.4851 -0.7568  1.1870
 6715TIP3   OH241559   2.107   1.745   0.678  0.0413  0.8849 -0.6782
 6715TIP3    H141560   2.169   1.673   0.668 -0.8880 -0.0025 -0.2265
 6715TIP3    H241561   2.157   1.823   0.654  1.0306  0.0833 -1.3195
 6716TIP3   OH241562   0.108   4.206  16.138 -0.2399  0.2232 -0.3864
 6716TIP3    H141563   0.056   4.164  16.070 -0.2420 -1.1437  0.4304
 6716TIP3    H241564   0.092   4.300  16.127 -0.8369 -0.0339 -1.7649
 6717TIP3   OH241565   5.678   5.246   4.071  0.0124  0.5375 -0.7102
 6717TIP3    H141566   5.748   5.310   4.057  0.2800  0.7421  1.2433
 6717TIP3    H241567   5.711   5.191   4.142 -1.8128  0.6547  0.2812
 6718TIP3   OH241568   4.991   2.659   4.902 -0.6348  0.1117  0.2465
 6718TIP3    H141569   5.048   2.638   4.828 -0.0932  0.1691  0.6374
 6718TIP3    H241570   4.903   2.645   4.869 -0.4368  0.8115 -0.6369
 6719TIP3   OH241571   4.151   2.264  16.608  0.1077 -0.8851 -0.3329
 6719TIP3    H141572   4.202   2.342  16.588 -0.2764 -0.8936 -1.4573
 6719TIP3    H241573   4.104   2.286  16.689  0.4036 -0.1485 -0.3523
 6720TIP3   OH241574   2.026   4.181  13.198  0.0103  0.0079 -0.4247
 6720TIP3    H141575   2.078   4.185  13.118  1.0463  2.0809  0.2653
 6720TIP3    H241576   1.938   4.206  13.170  0.4349  1.0521 -0.8966
 6721TIP3   OH241577   0.239   3.316  14.501  0.0375 -0.0905  0.1900
 6721TIP3    H141578   0.152   3.340  14.535  0.4471  2.4965 -0.3621
 6721TIP3    H241579   0.230   3.324  14.406  0.7171 -0.4490  0.0961
 6722TIP3   OH241580   1.565   0.891  14.946  0.0298 -0.1266  0.2050
 6722TIP3    H141581   1.523   0.806  14.927 -0.8388  0.4449 -0.5379
 6722TIP3    H241582   1.656   0.879  14.920  0.1100 -1.0859  0.8785
 6723TIP3   OH241583   3.706   0.570  16.827  0.6504 -0.5360 -0.1498
 6723TIP3    H141584   3.794   0.592  16.797  0.8466 -0.1063  0.7017
 6723TIP3    H241585   3.719   0.530  16.913 -0.1000  1.6364  1.0539
 6724TIP3   OH241586   0.540   0.622  15.565 -0.0955  0.2459  0.4433
 6724TIP3    H141587   0.528   0.698  15.622  0.3249  1.8585 -1.5035
 6724TIP3    H241588   0.630   0.629  15.533 -0.6185  0.0125 -1.2048
 6725TIP3   OH241589   2.990   0.342   1.071  0.2928  0.3759  0.2282
 6725TIP3    H141590   2.903   0.307   1.093  0.9963 -1.6597 -0.0539
 6725TIP3    H241591   2.977   0.386   0.987 -0.0936 -1.6636 -0.8281
 6726TIP3   OH241592   5.581   1.060   4.575 -0.2993  0.4185  0.4458
 6726TIP3    H141593   5.499   1.095   4.540 -0.1869  0.7571  0.5121
 6726TIP3    H241594   5.566   1.056   4.670 -0.0120  1.1205  0.5340
 6727TIP3   OH241595   2.159   0.749  17.276  0.5833  0.1569 -0.7423
 6727TIP3    H141596   2.128   0.717  17.361  0.6566  1.3417 -0.2370
 6727TIP3    H241597   2.246   0.711  17.266  0.2060 -0.7323 -0.7326
 6728TIP3   OH241598   5.459   6.215   4.625  0.1827  0.6023  0.4072
 6728TIP3    H141599   5.473   6.160   4.702  2.1842 -1.3286 -1.1813
 6728TIP3    H241600   5.543   6.258   4.611  0.4530 -0.4351 -1.5990
 6729TIP3   OH241601   3.371   4.121   1.208 -0.3631  0.0888  0.1099
 6729TIP3    H141602   3.296   4.175   1.184 -1.3780 -1.5804 -0.7007
 6729TIP3    H241603   3.346   4.032   1.181  1.6552 -0.6223  0.3869
 6730TIP3   OH241604   4.925   0.847  13.673  0.5043 -0.2625  0.1454
 6730TIP3    H141605   4.853   0.815  13.727  1.0363  1.2454  1.8195
 6730TIP3    H241606   5.003   0.808  13.712  0.9315  1.1585  0.7687
 6731TIP3   OH241607   0.363   3.202  16.096  0.3343 -0.2253 -0.3214
 6731TIP3    H141608   0.417   3.127  16.074 -0.5535 -0.4854 -1.7068
 6731TIP3    H241609   0.396   3.273  16.041  0.1732 -0.0143 -0.1492
 6732TIP3   OH241610   6.211   6.574  11.217  0.3387  0.1403 -0.2631
 6732TIP3    H141611   6.266   6.633  11.164 -2.5261  3.3029 -0.0668
 6732TIP3    H241612   6.182   6.507  11.156  0.6554  1.1594 -1.5900
 6733TIP3   OH241613   6.173   0.438  13.661  1.2204  0.0380 -0.7189
 6733TIP3    H141614   6.194   0.369  13.724 -1.7359  0.2338  0.6350
 6733TIP3    H241615   6.217   0.516  13.696 -0.6354  0.2239  1.4057
 6734TIP3   OH241616   2.644   0.450   0.638 -0.0954  0.3062 -0.0539
 6734TIP3    H141617   2.617   0.541   0.652 -1.3205 -0.1707  0.8888
 6734TIP3    H241618   2.570   0.410   0.592 -0.6977 -0.8101  1.7600
 6735TIP3   OH241619   6.069   3.328   3.338 -0.3032 -0.2148  0.2398
 6735TIP3    H141620   6.057   3.319   3.433  0.0024 -2.5906  0.1164
 6735TIP3    H241621   6.039   3.245   3.302 -1.0666  0.8885 -1.8561
 6736TIP3   OH241622   1.525   3.281  12.345 -0.6062 -0.3342 -0.5355
 6736TIP3    H141623   1.455   3.279  12.279 -1.0193  0.3561 -0.1333
 6736TIP3    H241624   1.489   3.231  12.418 -0.5545 -0.2516 -0.4534
 6737TIP3   OH241625   3.303   3.923  16.120  0.2927 -0.3018 -0.0648
 6737TIP3    H141626   3.353   3.979  16.180 -0.6306 -0.1067  0.5527
 6737TIP3    H241627   3.254   3.864  16.178  1.5181 -2.0260 -0.7060
 6738TIP3   OH241628   6.261   6.445  16.818 -0.2497  0.5149 -0.1227
 6738TIP3    H141629   6.194   6.427  16.753 -0.1200  0.0924 -0.1396
 6738TIP3    H241630   6.217   6.432  16.902 -0.3318  0.7598 -0.1259
 6739TIP3   OH241631   2.754   4.354  13.715 -0.1775 -1.0848 -0.8984
 6739TIP3    H141632   2.847   4.351  13.691  0.1636 -0.7566  0.3004
 6739TIP3    H241633   2.733   4.448  13.717  0.4125 -0.9169  2.1128
 6740TIP3   OH241634   2.418   0.200   4.293  0.1472 -0.2022 -0.0019
 6740TIP3    H141635   2.387   0.121   4.248  1.5866  0.0974 -1.5942
 6740TIP3    H241636   2.388   0.272   4.238 -2.0405  0.5277  1.9528
 6741TIP3   OH241637   0.638   1.621   2.206  0.1793  0.0789 -0.1572
 6741TIP3    H141638   0.703   1.691   2.204  0.6479 -0.3660 -0.6122
 6741TIP3    H241639   0.594   1.626   2.121  0.7055 -0.6369 -0.4773
 6742TIP3   OH241640   4.167   3.757  12.523 -0.6327  0.5131  0.5834
 6742TIP3    H141641   4.154   3.753  12.618 -0.2798 -0.9075  0.5993
 6742TIP3    H241642   4.173   3.665  12.496  4.8095  0.6697 -0.0072
 6743TIP3   OH241643   1.113   4.377  16.016 -0.1239  0.3206  0.7496
 6743TIP3    H141644   1.029   4.330  16.019 -1.8569  3.1857  1.2174
 6743TIP3    H241645   1.088   4.470  16.011  3.0630  1.2380 -0.5253
 6744TIP3   OH241646   3.881   4.041  15.204 -0.5764 -0.2414  0.1201
 6744TIP3    H141647   3.888   4.136  15.214  2.5142  0.1396 -3.4073
 6744TIP3    H241648   3.968   4.009  15.226 -1.1203 -2.0836 -0.2750
 6745TIP3   OH241649   5.167   4.422  10.711 -0.0375 -0.5026  0.3071
 6745TIP3    H141650   5.254   4.462  10.714  0.1282 -0.7747 -0.5604
 6745TIP3    H241651   5.108   4.488  10.747  0.2745  0.4179 -0.8220
 6746TIP3   OH241652   0.119   3.485   3.447  0.3281  0.3720 -0.0271
 6746TIP3    H141653   0.125   3.414   3.384  1.5971 -0.9921  1.5574
 6746TIP3    H241654   0.031   3.476   3.485  0.7592 -0.9031  0.7335
 6747TIP3   OH241655   4.431   2.115  17.208 -0.2135  0.4004  0.0397
 6747TIP3    H141656   4.348   2.077  17.182 -0.9289  1.6838  0.3513
 6747TIP3    H241657   4.466   2.154  17.127  0.9379 -1.5769 -0.4806
 6748TIP3   OH241658   4.996   0.849   0.016  0.6389 -0.4665  0.4726
 6748TIP3    H141659   5.015   0.779   0.079  0.6653 -1.0365 -0.1525
 6748TIP3    H241660   4.900   0.856   0.017  0.7028  0.9661  2.0827
 6749TIP3   OH241661   5.932   5.921  11.685 -0.1858 -0.0972  0.2629
 6749TIP3    H141662   5.880   5.847  11.717  2.2739 -2.2097 -0.2832
 6749TIP3    H241663   5.943   5.904  11.591 -0.9467  1.9143 -0.2378
 6750TIP3   OH241664   3.860   3.537  15.298 -0.5647  0.3300  0.2884
 6750TIP3    H141665   3.842   3.621  15.257  0.1759  0.1483 -0.4334
 6750TIP3    H241666   3.777   3.511  15.339 -1.2056  0.7139 -0.7388
 6751TIP3   OH241667   4.935   3.537   1.654 -0.0792 -0.4832  0.6870
 6751TIP3    H141668   4.987   3.559   1.732  0.0004 -1.0288  0.7859
 6751TIP3    H241669   4.946   3.613   1.596  0.0127 -0.1537  1.1268
 6752TIP3   OH241670   0.809   1.942  15.657 -0.1592 -0.1756  0.3083
 6752TIP3    H141671   0.736   1.965  15.715 -1.1829 -0.3380 -0.8795
 6752TIP3    H241672   0.857   2.023  15.644 -0.6910  0.1485  0.3455
 6753TIP3   OH241673   5.997   2.428  12.157 -1.0235 -0.4574 -0.0896
 6753TIP3    H141674   5.995   2.414  12.062 -0.8958 -0.4239 -0.0966
 6753TIP3    H241675   6.018   2.342  12.194 -0.8853 -0.4279 -0.1007
 6754TIP3   OH241676   4.394   4.383   1.747 -0.9144 -0.4104  0.3381
 6754TIP3    H141677   4.310   4.390   1.701  0.2218 -0.7420 -1.9435
 6754TIP3    H241678   4.374   4.333   1.827 -3.1971  1.1670  0.8473
 6755TIP3   OH241679   2.560   4.141  16.880  0.5401 -0.1381  0.3302
 6755TIP3    H141680   2.569   4.150  16.785  0.1442 -0.3936  0.2682
 6755TIP3    H241681   2.647   4.113  16.909  0.3862 -1.0828 -0.0830
 6756TIP3   OH241682   4.781   5.622  16.855 -0.4718  0.3879  0.4432
 6756TIP3    H141683   4.757   5.708  16.888 -0.9438  0.5357 -0.2520
 6756TIP3    H241684   4.877   5.622  16.855 -0.4710  0.7405  0.8795
 6757TIP3   OH241685   1.733   6.256   6.331 -0.5371 -0.2508  0.1755
 6757TIP3    H141686   1.752   6.264   6.238 -0.5656  1.5920  0.3034
 6757TIP3    H241687   1.783   6.179   6.359  0.7346  0.1000 -1.0426
 6758TIP3   OH241688   1.176   5.407  14.116  0.6559  0.7576  0.3252
 6758TIP3    H141689   1.175   5.501  14.133  0.3292  0.9653 -0.7262
 6758TIP3    H241690   1.167   5.400  14.021  3.1695 -0.2855  0.0853
 6759TIP3   OH241691   5.611   5.376  12.266 -0.0350 -0.4546  0.5108
 6759TIP3    H141692   5.524   5.415  12.261 -0.9550 -2.2666  1.5749
 6759TIP3    H241693   5.602   5.291  12.223  1.2050 -0.6796  0.6626
 6760TIP3   OH241694   6.149   5.067   0.733 -0.3568 -0.3774 -0.4600
 6760TIP3    H141695   6.170   5.060   0.826  0.4975 -2.3488 -0.7552
 6760TIP3    H241696   6.126   5.159   0.721 -2.3619 -0.4343  2.0577
 6761TIP3   OH241697   5.170   2.135   4.575 -0.9146  0.3434 -0.4970
 6761TIP3    H141698   5.144   2.198   4.642 -2.6581  0.0297 -0.8422
 6761TIP3    H241699   5.217   2.187   4.510 -1.9596  1.2251 -0.5671
 6762TIP3   OH241700   1.918   3.277  10.978  0.0221 -0.1205 -0.5046
 6762TIP3    H141701   1.831   3.254  11.008 -0.0763 -0.0594 -0.7409
 6762TIP3    H241702   1.918   3.372  10.973  0.8178  0.0361  1.6488
 6763TIP3   OH241703   4.662   3.481   0.674  0.2259 -0.0681  0.6507
 6763TIP3    H141704   4.651   3.511   0.764  0.7285 -1.3792  1.1751
 6763TIP3    H241705   4.580   3.435   0.653  0.3426 -0.2877  0.6654
 6764TIP3   OH241706   5.981   1.547   3.494 -0.3338 -0.4008 -0.0721
 6764TIP3    H141707   5.890   1.546   3.462  0.1693 -0.7162 -1.5709
 6764TIP3    H241708   6.031   1.584   3.422  0.9318 -1.5565  0.1902
 6765TIP3   OH241709   3.382   1.828  11.782 -0.2886  0.3371 -0.4193
 6765TIP3    H141710   3.348   1.778  11.708 -1.8333 -1.0351  1.1225
 6765TIP3    H241711   3.468   1.789  11.800  0.0366  0.5964 -1.3927
 6766TIP3   OH241712   1.384   6.200  12.721  0.2462 -0.1154  0.2140
 6766TIP3    H141713   1.474   6.175  12.738 -0.0205 -3.6040 -2.5259
 6766TIP3    H241714   1.386   6.244  12.636 -0.6111  0.0459  0.2658
 6767TIP3   OH241715   5.994   4.868   0.672 -0.2053 -0.6204 -0.3394
 6767TIP3    H141716   6.042   4.793   0.705  0.2738  0.5469  1.7680
 6767TIP3    H241717   6.050   4.943   0.691 -1.5671  0.4766 -0.4983
 6768TIP3   OH241718   5.642   0.816  13.002 -0.2419  0.2750 -0.0115
 6768TIP3    H141719   5.642   0.881  13.071 -0.9669  0.7292 -0.4267
 6768TIP3    H241720   5.732   0.782  13.000 -0.0535  0.7212  0.7032
 6769TIP3   OH241721   4.117   0.306  14.439 -0.6297  0.0467 -0.0159
 6769TIP3    H141722   4.140   0.247  14.512  1.3699  0.9661  0.1757
 6769TIP3    H241723   4.122   0.250  14.361  0.9691 -0.1595  0.1887
 6770TIP3   OH241724   0.854   4.248  10.658  0.0652  0.1618  0.5679
 6770TIP3    H141725   0.842   4.157  10.685 -2.3821  0.2043 -0.1324
 6770TIP3    H241726   0.778   4.267  10.602  0.4498  2.6650  0.7585
 6771TIP3   OH241727   5.330   1.418  15.622 -0.7601  0.4547 -0.0211
 6771TIP3    H141728   5.253   1.465  15.655 -1.2756 -0.7458  0.5304
 6771TIP3    H241729   5.398   1.435  15.687 -0.6677  1.1472 -0.2804
 6772TIP3   OH241730   3.191   4.491  15.681  0.5710 -0.5663 -0.3502
 6772TIP3    H141731   3.107   4.447  15.692 -0.5650  2.0076  2.5348
 6772TIP3    H241732   3.172   4.564  15.622  0.2525  1.0502  1.6630
 6773TIP3   OH241733   5.855   3.197   5.748 -0.0789 -0.1812 -0.0976
 6773TIP3    H141734   5.806   3.135   5.695 -1.9807  1.0917  0.0650
 6773TIP3    H241735   5.903   3.251   5.685 -0.7434  0.0355 -0.4239
 6774TIP3   OH241736   2.169   3.868  13.855  0.1539 -0.0849  0.0559
 6774TIP3    H141737   2.079   3.849  13.829 -0.2088  2.1121 -0.4849
 6774TIP3    H241738   2.214   3.887  13.772  1.3450 -1.8277  0.2427
 6775TIP3   OH241739   1.182   4.710  12.983  0.4163  0.0943 -0.5260
 6775TIP3    H141740   1.096   4.708  12.941  0.3232 -2.1356 -0.3349
 6775TIP3    H241741   1.209   4.802  12.977 -2.4501  1.1267  0.4363
 6776TIP3   OH241742   2.014   1.159   4.881  0.1420 -0.6077  0.0287
 6776TIP3    H141743   2.106   1.155   4.855  0.5553  0.4527  1.2468
 6776TIP3    H241744   1.981   1.070   4.864  1.5706 -1.2070  0.2267
 6777TIP3   OH241745   5.584   2.494  11.968 -0.4296  0.0730 -0.0026
 6777TIP3    H141746   5.541   2.520  11.886 -1.9350 -1.7848  0.1154
 6777TIP3    H241747   5.631   2.414  11.945 -1.9845 -1.2381  1.1983
 6778TIP3   OH241748   1.772   6.721   3.557  0.1992 -0.4880 -0.3259
 6778TIP3    H141749   1.840   6.653   3.551 -0.7900 -1.4836 -0.7652
 6778TIP3    H241750   1.694   6.679   3.520 -0.6157  0.6783  0.0282
 6779TIP3   OH241751   0.034   0.994   1.205 -0.2749  0.3094 -0.0067
 6779TIP3    H141752   0.045   1.049   1.282 -0.8938  0.7929 -0.2579
 6779TIP3    H241753   0.112   0.939   1.203 -0.0234  0.6376  0.6844
 6780TIP3   OH241754   2.185   6.727  16.160  0.0527 -0.0021 -0.1873
 6780TIP3    H141755   2.167   6.638  16.191 -0.6701  0.6393  1.3615
 6780TIP3    H241756   2.101   6.758  16.127  0.3170  0.0889 -0.7801
 6781TIP3   OH241757   2.104   6.474   4.286  0.1995  0.2619 -0.4124
 6781TIP3    H141758   2.023   6.478   4.237 -0.0856  1.3592  0.1242
 6781TIP3    H241759   2.170   6.511   4.228 -0.3659  2.7685  0.4248
 6782TIP3   OH241760   2.753   4.421   1.237  0.1174  0.5093 -0.1560
 6782TIP3    H141761   2.748   4.393   1.145  2.5564  2.2559 -0.9162
 6782TIP3    H241762   2.678   4.380   1.278 -0.8025 -0.7287 -2.8336
 6783TIP3   OH241763   1.184   2.020  11.241 -0.0141  0.0130  0.1236
 6783TIP3    H141764   1.199   2.054  11.329  1.4733 -1.3845  0.4578
 6783TIP3    H241765   1.242   2.071  11.185  0.6941 -0.5660  0.3135
 6784TIP3   OH241766   4.814   5.763  14.843  0.2594  0.0701 -0.2383
 6784TIP3    H141767   4.802   5.798  14.755 -0.6656  0.4445  0.0256
 6784TIP3    H241768   4.894   5.805  14.875  0.0466  0.6964 -0.5263
 6785TIP3   OH241769   0.458   3.761  13.800  0.3936 -0.0019  0.4910
 6785TIP3    H141770   0.412   3.844  13.801 -0.2326 -0.2474 -1.6502
 6785TIP3    H241771   0.418   3.710  13.871 -0.5018  0.8810  0.6399
 6786TIP3   OH241772   3.402   0.907   2.576  0.9657  0.0401 -0.1057
 6786TIP3    H141773   3.401   0.897   2.671 -0.4699  0.5231 -0.0568
 6786TIP3    H241774   3.495   0.904   2.553  1.2402 -3.3175  0.9393
 6787TIP3   OH241775   5.536   1.499  15.784 -0.7152  0.3886 -0.0234
 6787TIP3    H141776   5.561   1.587  15.813  2.7256  0.0636 -1.5687
 6787TIP3    H241777   5.609   1.443  15.809 -0.0575 -0.9041 -4.0767
 6788TIP3   OH241778   1.317   5.702  13.384  0.3875  0.2769 -0.2432
 6788TIP3    H141779   1.363   5.759  13.445  0.0832  0.1837  0.0760
 6788TIP3    H241780   1.234   5.747  13.366 -1.0450 -1.2495  2.0507
 6789TIP3   OH241781   0.043   6.272  13.241 -0.0458  0.0083 -0.2678
 6789TIP3    H141782   0.004   6.191  13.274 -1.3777  0.9751  0.6332
 6789TIP3    H241783   0.077   6.316  13.319  0.5508  0.3987 -0.7331
 6790TIP3   OH241784   3.897   4.258   5.398  0.3010 -0.2278 -0.3787
 6790TIP3    H141785   3.943   4.185   5.441  1.4541  0.9676  0.4947
 6790TIP3    H241786   3.833   4.287   5.463  0.4289  0.0705 -0.3841
 6791TIP3   OH241787   1.395   0.893  10.948 -0.2796 -0.3878  0.3855
 6791TIP3    H141788   1.440   0.886  10.864  3.6489  0.9898  2.0956
 6791TIP3    H241789   1.374   0.986  10.956 -2.1715 -0.7789  0.2973
 6792TIP3   OH241790   0.730   4.300   0.641 -0.9129 -0.1727 -0.1203
 6792TIP3    H141791   0.711   4.326   0.550 -1.0601  1.1334  0.2652
 6792TIP3    H241792   0.823   4.323   0.653 -0.3429 -2.1297 -0.5170
 6793TIP3   OH241793   4.883   0.716   3.283 -0.3066  0.5188 -0.3527
 6793TIP3    H141794   4.939   0.701   3.206  3.0970  0.8339  1.8308
 6793TIP3    H241795   4.932   0.779   3.336 -1.3928 -1.2577  3.0676
 6794TIP3   OH241796   4.073   1.909   0.324  0.4678 -0.2610 -0.3658
 6794TIP3    H141797   4.140   1.977   0.319 -0.6745  1.1145  1.7706
 6794TIP3    H241798   3.993   1.951   0.294 -0.0968 -0.8937  0.2065
 6795TIP3   OH241799   5.843   3.091   0.207 -0.1832 -0.0569 -0.2374
 6795TIP3    H141800   5.782   3.154   0.169  0.1138 -0.3705 -1.2686
 6795TIP3    H241801   5.907   3.145   0.255  0.7033  0.5486 -2.0157
 6796TIP3   OH241802   3.494   0.429  13.172  0.5152  0.0042  0.0004
 6796TIP3    H141803   3.399   0.416  13.175  0.5887 -0.4185  0.7769
 6796TIP3    H241804   3.505   0.522  13.191  0.2319  0.1520 -0.5523
 6797TIP3   OH241805   0.088   0.298   4.507 -0.6718  0.5826  0.1099
 6797TIP3    H141806   0.045   0.213   4.503 -1.5916  0.9257  1.8440
 6797TIP3    H241807   0.127   0.310   4.420 -1.3421 -1.1680 -0.4578
 6798TIP3   OH241808   4.508   1.652  11.653 -0.6129 -0.1929  0.4480
 6798TIP3    H141809   4.420   1.616  11.641 -0.1154 -1.2357 -0.2630
 6798TIP3    H241810   4.566   1.580  11.627  0.4509  0.3478  1.2715
 6799TIP3   OH241811   4.125   5.811   3.336 -0.8581  0.1971 -0.4308
 6799TIP3    H141812   4.069   5.736   3.318 -0.3437 -0.1072 -0.8150
 6799TIP3    H241813   4.080   5.885   3.296 -1.3926  0.1065 -0.0082
 6800TIP3   OH241814   5.942   6.527   4.623 -0.0554 -0.6694 -0.6499
 6800TIP3    H141815   6.011   6.486   4.571 -0.4220  0.2376 -1.8870
 6800TIP3    H241816   5.863   6.476   4.604 -0.0070 -0.8833 -0.2823
 6801TIP3   OH241817   1.888   4.170  14.891 -0.0306  0.1624 -0.3472
 6801TIP3    H141818   1.931   4.231  14.831 -1.0122 -0.5219 -1.7983
 6801TIP3    H241819   1.912   4.202  14.978  1.3266  1.2654 -1.0770
 6802TIP3   OH241820   2.948   3.217  12.337 -0.4192 -0.6401  0.5831
 6802TIP3    H141821   2.898   3.199  12.417  0.0581 -0.5057  0.9211
 6802TIP3    H241822   2.903   3.290  12.296 -0.4095 -0.4105  0.9726
 6803TIP3   OH241823   5.931   5.559  13.609 -0.0229  0.0114  0.2342
 6803TIP3    H141824   5.984   5.479  13.606 -2.7402 -1.8987 -0.6489
 6803TIP3    H241825   5.900   5.564  13.699 -0.2388 -0.2107  0.1735
 6804TIP3   OH241826   4.357   6.679  15.081 -0.0062  0.1946  0.3647
 6804TIP3    H141827   4.403   6.760  15.103  0.8082  0.1600 -1.1157
 6804TIP3    H241828   4.426   6.613  15.072 -0.5858 -0.4837  0.7437
 6805TIP3   OH241829   5.239   1.099  14.808 -0.1799 -0.1736  0.3564
 6805TIP3    H141830   5.228   1.004  14.802 -0.8827 -0.2160  1.8971
 6805TIP3    H241831   5.296   1.112  14.884  1.5029  0.5862 -0.9501
 6806TIP3   OH241832   1.191   2.165  11.465 -0.8799 -0.3760 -0.0802
 6806TIP3    H141833   1.204   2.254  11.431 -1.0368  0.0044  0.8200
 6806TIP3    H241834   1.197   2.175  11.560  1.5636 -1.7273 -0.0217
 6807TIP3   OH241835   4.630   1.164  12.747  0.3680 -0.1803 -0.0073
 6807TIP3    H141836   4.722   1.161  12.773  0.8224 -2.5931 -1.5231
 6807TIP3    H241837   4.589   1.094  12.798  0.1194 -1.2371 -1.5545
 6808TIP3   OH241838   5.054   0.329   0.123  0.0638 -0.1891 -0.0989
 6808TIP3    H141839   5.080   0.344   0.214  1.1690 -2.0202 -0.0587
 6808TIP3    H241840   4.960   0.348   0.122  0.4658  2.1992  0.8296
 6809TIP3   OH241841   0.207   0.509  15.679  0.0695  0.4456 -0.0031
 6809TIP3    H141842   0.200   0.418  15.650 -0.9320  0.7653 -0.8126
 6809TIP3    H241843   0.120   0.529  15.714 -0.2990  1.6627 -1.5498
 6810TIP3   OH241844   6.267   2.650  12.073 -0.0342 -0.9407  0.3108
 6810TIP3    H141845   6.179   2.687  12.074  0.4728  0.5070 -1.8146
 6810TIP3    H241846   6.254   2.556  12.067 -1.3976 -0.8501  1.4162
 6811TIP3   OH241847   1.607   4.008  11.835 -0.4984 -0.1852 -0.1177
 6811TIP3    H141848   1.539   4.016  11.902 -1.2279 -0.4350 -0.8005
 6811TIP3    H241849   1.689   4.025  11.881 -1.2176  3.2545  0.1339
 6812TIP3   OH241850   2.276   4.626  15.529 -0.3691 -0.1753  0.7279
 6812TIP3    H141851   2.218   4.617  15.454 -0.5829 -1.0685  0.9893
 6812TIP3    H241852   2.269   4.542  15.575  2.6416 -1.0858 -0.2986
 6813TIP3   OH241853   1.469   6.637  16.129  0.4165  0.4475  0.3667
 6813TIP3    H141854   1.426   6.636  16.214 -0.7411  0.8791 -0.1848
 6813TIP3    H241855   1.432   6.713  16.084  1.3630  0.5041 -0.3499
 6814TIP3   OH241856   0.442   4.101   5.139 -0.1251  0.2838 -0.2346
 6814TIP3    H141857   0.489   4.169   5.187 -0.7661  0.7541 -0.2459
 6814TIP3    H241858   0.437   4.027   5.200  0.0305  0.4800  0.0187
 6815TIP3   OH241859   4.294   5.391  16.454 -0.4792 -0.2194 -0.2957
 6815TIP3    H141860   4.315   5.458  16.390  0.8248 -2.2789 -2.1477
 6815TIP3    H241861   4.357   5.405  16.525 -0.2161  0.4919 -0.6620
 6816TIP3   OH241862   4.887   3.840   3.915 -0.4166  0.8731  0.2178
 6816TIP3    H141863   4.960   3.865   3.972 -0.3345 -0.3064  0.6533
 6816TIP3    H241864   4.839   3.774   3.965 -0.5901  0.1169 -0.8953
 6817TIP3   OH241865   5.913   0.376   2.973  0.8348  0.6162 -0.6700
 6817TIP3    H141866   5.894   0.406   2.884 -1.9714 -1.7444 -1.0046
 6817TIP3    H241867   5.849   0.421   3.027 -1.4901 -2.2514 -0.7943
 6818TIP3   OH241868   6.584   0.106   5.509 -0.7199 -0.2339  0.0191
 6818TIP3    H141869   6.612   0.154   5.431 -0.4580  0.4993  0.5526
 6818TIP3    H241870   6.630   0.023   5.504 -0.3980 -0.0326 -0.4085
 6819TIP3   OH241871   1.384   5.646   3.505 -0.1767  0.0623 -0.1426
 6819TIP3    H141872   1.405   5.553   3.500 -0.6753 -0.1512  1.2549
 6819TIP3    H241873   1.390   5.667   3.599  0.7752  1.6386 -0.5168
 6820TIP3   OH241874   4.110   1.442  16.732  0.1664 -0.2491  0.3177
 6820TIP3    H141875   4.170   1.500  16.779  1.4211 -1.3301  0.0916
 6820TIP3    H241876   4.028   1.491  16.728  0.8261  0.9833  1.2315
 6821TIP3   OH241877   6.186   3.592  14.616 -0.2171  0.1589  0.7137
 6821TIP3    H141878   6.188   3.682  14.648 -1.9226  0.9239 -1.0991
 6821TIP3    H241879   6.111   3.552  14.659 -1.9936  0.9341 -1.4617
 6822TIP3   OH241880   4.971   6.405   4.019 -1.1234 -0.2376 -0.1069
 6822TIP3    H141881   4.880   6.395   3.988 -0.7957 -2.8851 -0.4736
 6822TIP3    H241882   4.962   6.428   4.112 -2.2096 -1.3582  0.0977
 6823TIP3   OH241883   2.362   0.777  14.836  0.5254  0.2475 -0.8604
 6823TIP3    H141884   2.343   0.850  14.894  0.2419  0.1536 -0.8353
 6823TIP3    H241885   2.417   0.814  14.767 -1.1051  0.8851 -1.8557
 6824TIP3   OH241886   5.922   4.526   4.069  0.0177 -0.4388 -0.2934
 6824TIP3    H141887   5.998   4.554   4.120 -0.5509  1.9541 -0.6232
 6824TIP3    H241888   5.856   4.593   4.087 -1.3074 -1.3351 -1.6224
 6825TIP3   OH241889   2.024   5.808  16.363  0.1704 -0.0799  0.0828
 6825TIP3    H141890   1.956   5.831  16.425  1.2627  1.0313  0.9157
 6825TIP3    H241891   2.003   5.859  16.284 -1.5236 -1.9034 -0.7285
 6826TIP3   OH241892   2.053   0.628  12.165 -0.8021  0.3841 -0.0885
 6826TIP3    H141893   2.075   0.552  12.218 -1.6640  0.3003  0.1701
 6826TIP3    H241894   2.022   0.693  12.229  0.0186  0.9918 -0.2936
 6827TIP3   OH241895   1.643   1.913   3.714  0.0440 -0.0837  0.4091
 6827TIP3    H141896   1.564   1.964   3.692  0.0108 -0.4278 -0.3072
 6827TIP3    H241897   1.685   1.964   3.783 -0.1490  0.7701 -0.0810
 6828TIP3   OH241898   6.185   0.830   4.905 -0.5061  0.5211 -0.3969
 6828TIP3    H141899   6.201   0.883   4.983 -0.8045  0.8405 -0.5498
 6828TIP3    H241900   6.272   0.801   4.878 -0.4552 -0.0432  0.3636
 6829TIP3   OH241901   4.513   5.656  11.568 -0.4237  0.0689 -0.4758
 6829TIP3    H141902   4.560   5.735  11.541  0.9052 -0.2413  0.8048
 6829TIP3    H241903   4.519   5.598  11.493 -2.4735  1.5770 -1.9124
 6830TIP3   OH241904   5.934   3.587  10.500  0.9756  0.1683  0.3180
 6830TIP3    H141905   6.002   3.563  10.437  1.0739  0.2840  0.3817
 6830TIP3    H241906   5.926   3.682  10.493  0.1735  0.0598 -0.3586
 6831TIP3   OH241907   2.663   1.159  13.766 -0.1674 -0.7373  0.0863
 6831TIP3    H141908   2.749   1.125  13.791 -0.1149 -0.9861 -0.4129
 6831TIP3    H241909   2.675   1.190  13.677 -0.7265 -1.2629 -0.1798
 6832TIP3   OH241910   0.145   2.093   3.324  0.5674 -0.6925  0.0259
 6832TIP3    H141911   0.166   2.157   3.391 -0.4587 -0.4139  0.0970
 6832TIP3    H241912   0.215   2.028   3.330  0.1537 -1.0231  1.8024
 6833TIP3   OH241913   5.721   4.129   4.613  0.5598 -0.2052  0.2033
 6833TIP3    H141914   5.717   4.137   4.708  0.4856 -0.0757  0.1893
 6833TIP3    H241915   5.773   4.205   4.584 -1.7197  1.3493 -0.0858
 6834TIP3   OH241916   6.631   1.677   1.896 -0.1419  0.5327  0.5546
 6834TIP3    H141917   6.650   1.661   1.988 -1.9285 -3.7224  0.3922
 6834TIP3    H241918   6.714   1.662   1.851  0.7896  2.8183  1.3648
 6835TIP3   OH241919   2.935   2.873  13.545 -0.1171 -0.0634 -0.2813
 6835TIP3    H141920   2.947   2.819  13.467 -1.1311 -0.8193  0.0672
 6835TIP3    H241921   2.945   2.963  13.513  2.1428 -0.4161 -0.7747
 6836TIP3   OH241922   1.081   2.963  12.544  0.1627  0.3430 -0.4170
 6836TIP3    H141923   1.091   3.053  12.575 -0.1573  0.7176 -1.3609
 6836TIP3    H241924   1.007   2.967  12.484 -0.8986 -0.8774  0.7361
 6837TIP3   OH241925   6.028   6.600  12.149 -0.4441  0.1205  0.1726
 6837TIP3    H141926   6.038   6.672  12.211  1.9517 -0.5676  0.7151
 6837TIP3    H241927   6.109   6.549  12.159 -1.0246 -1.3310 -1.8530
 6838TIP3   OH241928   4.838   1.063  12.363  0.4135 -0.0530  0.2388
 6838TIP3    H141929   4.885   1.130  12.313 -0.0413 -0.0541 -0.1940
 6838TIP3    H241930   4.901   1.034  12.429  0.6455  0.7261  0.3638
 6839TIP3   OH241931   2.348   4.031   4.452  0.2418 -0.3408 -0.2980
 6839TIP3    H141932   2.324   3.997   4.365  3.0925  1.7552 -2.1044
 6839TIP3    H241933   2.319   4.122   4.451  1.0540 -0.0517  0.5905
 6840TIP3   OH241934   1.221   6.447  15.836 -0.5731  0.1615  0.0808
 6840TIP3    H141935   1.289   6.393  15.795 -1.3260 -0.0559 -0.9201
 6840TIP3    H241936   1.235   6.436  15.930  0.2392 -0.5503 -0.1109
 6841TIP3   OH241937   6.727   1.357   4.907 -0.1065 -0.4494  0.2897
 6841TIP3    H141938   6.737   1.401   4.823  1.5125  0.6603  0.9962
 6841TIP3    H241939   6.789   1.284   4.904  1.3998  0.7223  1.1584
 6842TIP3   OH241940   3.159   1.813  16.064 -0.1825  0.7183  0.9413
 6842TIP3    H141941   3.237   1.856  16.030 -0.4268  0.4383 -0.0256
 6842TIP3    H241942   3.086   1.857  16.020 -0.4816 -0.0276  0.6646
 6843TIP3   OH241943   0.855   0.634   4.113  0.1974  0.1330  0.1243
 6843TIP3    H141944   0.894   0.594   4.035 -1.7402 -1.4685 -0.1071
 6843TIP3    H241945   0.923   0.628   4.180  0.4120 -2.6476 -0.2288
 6844TIP3   OH241946   6.582   2.682  15.390 -0.0783  1.1157  0.1202
 6844TIP3    H141947   6.646   2.626  15.433  0.5216  2.0590  0.4897
 6844TIP3    H241948   6.555   2.633  15.312  1.7750  1.0744 -0.5378
 6845TIP3   OH241949   4.583   0.408   4.035  0.2196 -0.1398  0.2515
 6845TIP3    H141950   4.533   0.380   4.112  0.9020 -2.5377 -0.1134
 6845TIP3    H241951   4.673   0.414   4.066  0.6725 -2.1261 -0.5190
 6846TIP3   OH241952   2.830   3.079  10.204 -0.5761 -0.1389 -1.0391
 6846TIP3    H141953   2.804   3.169  10.187 -0.9273  0.3290  1.6222
 6846TIP3    H241954   2.749   3.029  10.198 -1.1062  0.3619  1.1693
 6847TIP3   OH241955   3.926   5.388  16.313 -0.7359  0.0543  0.5497
 6847TIP3    H141956   3.983   5.394  16.236 -0.7535  0.1058  0.5419
 6847TIP3    H241957   3.963   5.317  16.364 -1.7906 -1.2317 -0.3927
 6848TIP3   OH241958   3.538   4.714   0.687 -0.4488 -0.2397  0.1526
 6848TIP3    H141959   3.492   4.640   0.727  0.6358 -1.5035 -0.8311
 6848TIP3    H241960   3.530   4.699   0.593  1.6934 -0.3940 -0.0651
 6849TIP3   OH241961   3.659   4.688  15.196 -0.4143 -0.2301 -0.0043
 6849TIP3    H141962   3.741   4.726  15.230  0.2872 -0.3203 -1.4973
 6849TIP3    H241963   3.591   4.746  15.229  0.3181  0.3011  0.6314
 6850TIP3   OH241964   0.860   2.349  11.899 -0.1317 -0.5702 -0.1491
 6850TIP3    H141965   0.901   2.315  11.979  0.2368  0.6025  0.1773
 6850TIP3    H241966   0.924   2.412  11.864 -0.8736 -0.0728 -0.6378
 6851TIP3   OH241967   5.965   6.356   4.835  0.1667  0.3600  0.2053
 6851TIP3    H141968   5.927   6.412   4.767  0.3153 -1.3589 -1.3762
 6851TIP3    H241969   6.051   6.394   4.853  0.0655  0.9236 -0.4861
 6852TIP3   OH241970   1.247   2.382  11.891  0.1549 -0.1430  0.2177
 6852TIP3    H141971   1.190   2.446  11.847 -2.0075 -1.3734  1.0750
 6852TIP3    H241972   1.329   2.430  11.906 -0.5357  1.6503 -1.2756
 6853TIP3   OH241973   0.152   3.112   1.635 -0.0211 -0.0960  0.5916
 6853TIP3    H141974   0.117   3.128   1.547  0.5253 -1.2308  0.1553
 6853TIP3    H241975   0.089   3.154   1.693 -2.0147 -1.8487 -0.1819
 6854TIP3   OH241976   3.348   0.421  17.176 -0.1484  0.8941  0.2116
 6854TIP3    H141977   3.260   0.394  17.149 -0.0699  0.1071  0.6957
 6854TIP3    H241978   3.407   0.366  17.125  0.1020  2.0597 -0.7905
 6855TIP3   OH241979   6.197   0.536  11.976  0.0509  0.1663  0.0580
 6855TIP3    H141980   6.152   0.473  11.920 -1.6381  1.3590  0.0001
 6855TIP3    H241981   6.171   0.512  12.065 -1.2975  1.2353 -0.0116
 6856TIP3   OH241982   4.453   3.853   3.749  0.0053  0.0080 -0.8569
 6856TIP3    H141983   4.498   3.768   3.754 -0.7615 -0.3779 -0.4227
 6856TIP3    H241984   4.386   3.841   3.683 -0.4743  0.1037 -0.3910
 6857TIP3   OH241985   0.229   5.350   0.954 -0.1028 -0.6935  0.5131
 6857TIP3    H141986   0.217   5.434   0.909 -2.9217 -0.9413  0.6540
 6857TIP3    H241987   0.280   5.373   1.033  0.2059  0.6551 -0.0447
 6858TIP3   OH241988   6.560   0.373   0.446  0.3691 -0.0790 -0.1055
 6858TIP3    H141989   6.565   0.450   0.503 -1.9091 -0.0279  0.1176
 6858TIP3    H241990   6.532   0.302   0.503  3.1362 -1.3358 -0.1620
 6859TIP3   OH241991   3.698   3.341  15.929 -0.0650  0.2017  0.2286
 6859TIP3    H141992   3.694   3.396  16.008  1.3000 -0.3066  0.6704
 6859TIP3    H241993   3.667   3.398  15.859  0.0489  1.1135  0.9047
 6860TIP3   OH241994   3.433   1.222   3.683  0.0720  0.0058  0.3734
 6860TIP3    H141995   3.391   1.221   3.597  0.9394  2.6394 -0.1706
 6860TIP3    H241996   3.511   1.169   3.672 -1.0195 -1.6677  0.2812
 6861TIP3   OH241997   1.151   2.975  11.987 -0.0251 -0.1263 -0.8104
 6861TIP3    H141998   1.138   2.896  11.933  0.2274 -0.1236 -0.8775
 6861TIP3    H241999   1.169   3.044  11.923 -2.6700  0.5495 -0.9597
 6862TIP3   OH242000   3.959   6.087  16.935 -0.0339  0.4454  0.5577
 6862TIP3    H142001   3.878   6.135  16.954 -0.2420  0.6963 -0.8174
 6862TIP3    H242002   4.016   6.153  16.894  0.9923  0.3468  1.7901
 6863TIP3   OH242003   4.165   6.004  10.614 -0.3694 -0.0497 -0.3864
 6863TIP3    H142004   4.215   6.082  10.640 -1.7292  0.3411  1.1831
 6863TIP3    H242005   4.079   6.038  10.590 -0.4226 -0.9000 -1.4947
 6864TIP3   OH242006   1.203   6.140  11.427 -0.2780  0.6086 -0.0699
 6864TIP3    H142007   1.128   6.190  11.458 -0.6366  0.0403 -0.0108
 6864TIP3    H242008   1.170   6.090  11.352 -0.1627 -0.2026  0.4012
 6865TIP3   OH242009   2.407   4.797  13.616  0.0156  0.0089  0.3859
 6865TIP3    H142010   2.490   4.798  13.568 -0.7907  0.5799 -1.0580
 6865TIP3    H242011   2.390   4.705  13.631 -0.1812 -0.2872 -1.3547
 6866TIP3   OH242012   1.839   3.724   3.696 -0.4265  0.4015 -0.0960
 6866TIP3    H142013   1.809   3.777   3.770  0.5093 -0.4477  0.9109
 6866TIP3    H242014   1.907   3.777   3.655  1.3017 -0.3963  1.5721
 6867TIP3   OH242015   6.724   2.627  11.369 -0.4477  0.0347  0.2363
 6867TIP3    H142016   6.808   2.669  11.349 -1.9166  2.9357 -0.4700
 6867TIP3    H242017   6.704   2.576  11.291 -0.3456  1.1834 -0.5717
 6868TIP3   OH242018   6.066   5.484  15.229  0.7627  0.7090  0.2599
 6868TIP3    H142019   6.099   5.508  15.316 -1.4289  0.2431  1.2719
 6868TIP3    H242020   6.070   5.388  15.227  2.1059  0.7386 -0.7543
 6869TIP3   OH242021   2.974   3.790   3.734  0.1821 -0.0755  0.6485
 6869TIP3    H142022   2.943   3.702   3.712 -1.7170  0.0938  2.3921
 6869TIP3    H242023   3.070   3.783   3.731  0.0847 -2.3019  1.1346
 6870TIP3   OH242024   5.145   3.834   4.565  0.3391  0.2855 -0.9762
 6870TIP3    H142025   5.157   3.928   4.558 -0.9432  0.3521 -2.9442
 6870TIP3    H242026   5.170   3.800   4.479  2.4984 -1.4371  0.2167
 6871TIP3   OH242027   2.765   0.216  13.971 -0.0652 -0.0473  0.6539
 6871TIP3    H142028   2.828   0.252  13.908 -1.4230  2.8249  0.7447
 6871TIP3    H242029   2.781   0.265  14.052 -0.2402 -1.6454  1.6884
 6872TIP3   OH242030   2.027   4.158   4.547  0.1597  0.1771  0.1361
 6872TIP3    H142031   2.059   4.202   4.469 -1.9162 -0.7549 -1.3558
 6872TIP3    H242032   1.971   4.088   4.513 -0.1088 -0.8250  2.4688
 6873TIP3   OH242033   5.645   5.496  17.188 -0.1488 -0.1611 -0.4571
 6873TIP3    H142034   5.624   5.546  17.109  1.7820 -0.1749 -1.0145
 6873TIP3    H242035   5.633   5.404  17.163  0.6343 -0.1743 -0.8085
 6874TIP3   OH242036   0.350   5.496  15.006 -0.3234  0.2505  0.2387
 6874TIP3    H142037   0.266   5.490  15.052  0.6122 -1.4554  1.8924
 6874TIP3    H242038   0.352   5.419  14.949  0.8573 -0.7987  1.6307
 6875TIP3   OH242039   1.981   3.809   1.056  0.3489  0.1507 -0.2562
 6875TIP3    H142040   1.999   3.873   1.125  0.2808 -1.3593  1.2408
 6875TIP3    H242041   2.053   3.746   1.064  0.0625 -0.3165 -1.2533
 6876TIP3   OH242042   4.461   4.818  16.347 -0.0429  0.1570  0.2053
 6876TIP3    H142043   4.390   4.879  16.367  1.2032  1.6873  0.2186
 6876TIP3    H242044   4.506   4.859  16.273  0.3243 -1.2084 -0.3453
 6877TIP3   OH242045   0.715   0.157  16.267 -0.1343  0.0874  0.2971
 6877TIP3    H142046   0.781   0.220  16.239 -2.9702  3.1728 -0.0748
 6877TIP3    H242047   0.697   0.181  16.358 -1.6037  0.1688  0.0037
 6878TIP3   OH242048   4.551   4.697   5.872  0.1598 -0.3925  0.0824
 6878TIP3    H142049   4.516   4.672   5.787  0.8137  0.4062 -0.4403
 6878TIP3    H242050   4.621   4.634   5.889 -0.2704 -0.8338  0.2580
 6879TIP3   OH242051   3.665   5.905  12.148 -0.1115 -0.2848  0.4957
 6879TIP3    H142052   3.733   5.901  12.215 -0.2688 -0.5108  0.6396
 6879TIP3    H242053   3.693   5.842  12.082 -0.5660 -0.9236  0.9098
 6880TIP3   OH242054   3.415   5.918   2.248 -0.0040 -0.3529  0.0287
 6880TIP3    H142055   3.450   5.839   2.207 -2.4770 -2.1041  1.1092
 6880TIP3    H242056   3.464   5.927   2.329  0.8262 -0.2827 -0.4669
 6881TIP3   OH242057   3.119   2.203  16.164 -0.5749  0.2223  0.1281
 6881TIP3    H142058   3.197   2.173  16.119 -0.9465 -0.7254  0.0945
 6881TIP3    H242059   3.143   2.288  16.201 -0.1794  0.9033 -1.6108
 6882TIP3   OH242060   1.220   3.776  13.860 -0.1345 -0.3310  0.0662
 6882TIP3    H142061   1.164   3.814  13.929  1.3035  0.3945  0.8823
 6882TIP3    H242062   1.160   3.725  13.806 -1.6686  0.7702  0.6452
 6883TIP3   OH242063   0.391   3.115   4.469 -0.0361 -0.0046  0.3050
 6883TIP3    H142064   0.348   3.195   4.441 -0.2549 -0.3982 -0.5196
 6883TIP3    H242065   0.472   3.144   4.511 -1.6291  0.8342  3.0559
 6884TIP3   OH242066   4.046   4.851  15.846  0.5764 -0.3137 -0.1173
 6884TIP3    H142067   3.956   4.845  15.815 -0.0246 -1.1877  1.6735
 6884TIP3    H242068   4.046   4.805  15.930  2.5266  0.3362  0.2936
 6885TIP3   OH242069   5.413   3.515  16.842  0.6421  0.5008  0.1399
 6885TIP3    H142070   5.370   3.598  16.864  0.7659  1.1858 -1.9422
 6885TIP3    H242071   5.422   3.469  16.925 -0.8660  1.8961  1.1271
 6886TIP3   OH242072   6.185   1.630  14.719  0.1215 -0.1642  0.0187
 6886TIP3    H142073   6.096   1.594  14.723 -1.0104  2.1592 -1.6148
 6886TIP3    H242074   6.187   1.697  14.787  1.3326 -1.4305  1.3096
 6887TIP3   OH242075   1.843   1.433  13.885  0.0603  0.5344  0.2670
 6887TIP3    H142076   1.820   1.460  13.795  0.1544  2.1314  0.6863
 6887TIP3    H242077   1.931   1.396  13.877 -0.5090 -0.6919 -0.5177
 6888TIP3   OH242078   2.913   2.509  14.445 -0.5249  0.3251 -0.3452
 6888TIP3    H142079   2.978   2.446  14.413 -0.3785  0.1402  0.2999
 6888TIP3    H242080   2.948   2.594  14.420  0.3951  0.2828  0.7120
 6889TIP3   OH242081   1.687   0.307  12.498 -0.1965 -0.4193 -0.2413
 6889TIP3    H142082   1.719   0.225  12.537 -0.6233 -0.7275 -0.5227
 6889TIP3    H242083   1.594   0.309  12.522  0.1126  0.6990  0.9822
 6890TIP3   OH242084   6.364   5.015   5.781 -0.0939 -0.2895 -0.2246
 6890TIP3    H142085   6.414   4.933   5.778 -0.0050 -0.2053 -1.2732
 6890TIP3    H242086   6.310   5.007   5.860  1.8244 -0.2241  1.1594
 6891TIP3   OH242087   0.051   6.469   2.387  0.6952  0.8000 -0.1607
 6891TIP3    H142088   0.019   6.426   2.307 -0.5982  0.8283  0.3110
 6891TIP3    H242089  -0.022   6.462   2.448  0.9125  2.5506  0.3633
 6892TIP3   OH242090   4.584   0.748   4.034  0.5314 -0.0200  0.2239
 6892TIP3    H142091   4.652   0.683   4.018 -1.2526 -2.0864  0.4498
 6892TIP3    H242092   4.610   0.824   3.982  1.3349 -1.9266 -2.4240
 6893TIP3   OH242093   1.378   6.386  12.286 -0.3302 -0.2243 -0.3105
 6893TIP3    H142094   1.346   6.362  12.199 -1.8221  0.5057  0.0038
 6893TIP3    H242095   1.350   6.315  12.343 -0.7607  0.0704 -0.1546
 6894TIP3   OH242096   1.226   6.564  15.502 -0.2698  0.0021 -0.0055
 6894TIP3    H142097   1.209   6.658  15.490  1.0589  0.2573  0.0000
 6894TIP3    H242098   1.206   6.548  15.594 -0.4073  0.2996  0.0195
 6895TIP3   OH242099   4.665   4.440   3.664  0.5502 -0.1192 -0.7632
 6895TIP3    H142100   4.674   4.533   3.644  0.2105  0.0647 -0.1146
 6895TIP3    H242101   4.691   4.433   3.756  1.0197 -0.7412 -0.9387
 6896TIP3   OH242102   4.552   6.551   2.636  0.1934 -0.5186 -1.0230
 6896TIP3    H142103   4.646   6.549   2.621  0.3238  0.9038 -0.4975
 6896TIP3    H242104   4.536   6.635   2.678 -1.3335 -0.6967 -1.1983
 6897TIP3   OH242105   2.529   4.971   2.887  0.2082 -0.3511 -0.2763
 6897TIP3    H142106   2.475   5.025   2.944 -0.0265 -0.6468 -0.2163
 6897TIP3    H242107   2.514   5.006   2.799 -2.5206 -2.3447 -0.7228
 6898TIP3   OH242108   6.610   0.741  10.912 -1.0617  0.1705  0.6050
 6898TIP3    H142109   6.546   0.804  10.878 -0.0005  0.6452 -0.5489
 6898TIP3    H242110   6.695   0.775  10.885 -0.2315 -0.1594  2.5748
 6899TIP3   OH242111   2.615   0.161   4.712  0.5420 -0.3698 -0.0459
 6899TIP3    H142112   2.530   0.203   4.725  0.1865 -1.1584  0.2164
 6899TIP3    H242113   2.642   0.134   4.800  1.9154  1.4454  0.1647
 6900TIP3   OH242114   2.835   4.775   2.935 -0.1447  0.7742 -0.1914
 6900TIP3    H142115   2.798   4.732   3.013  1.5022  1.8116  1.2567
 6900TIP3    H242116   2.764   4.831   2.903 -0.4003  1.5815  1.6016
 6901TIP3   OH242117   0.050   1.199  15.418 -0.1240  0.6468 -0.0002
 6901TIP3    H142118   0.053   1.295  15.421 -1.3998  0.6990 -0.0122
 6901TIP3    H242119   0.108   1.172  15.490  1.7510  1.3750 -1.1586
 6902TIP3   OH242120   2.845   6.172   5.046 -0.0991 -0.4108 -0.2170
 6902TIP3    H142121   2.932   6.209   5.063 -0.3208 -0.6874  1.8293
 6902TIP3    H242122   2.863   6.085   5.011  0.4193  0.2738 -1.7242
 6903TIP3   OH242123   2.294   2.218  16.770  0.2745 -0.2120 -0.0515
 6903TIP3    H142124   2.273   2.305  16.804 -1.8063 -0.6337 -0.1070
 6903TIP3    H242125   2.231   2.159  16.812  1.0415 -1.5658 -0.7025
 6904TIP3   OH242126   4.738   4.159  16.681 -0.4199 -0.6259  0.5747
 6904TIP3    H142127   4.819   4.200  16.651 -1.1684  0.9079  0.5263
 6904TIP3    H242128   4.732   4.077  16.632 -0.7900  1.0214 -2.3505
 6905TIP3   OH242129   2.307   4.441  10.950  0.4839  0.3853 -0.1820
 6905TIP3    H142130   2.258   4.362  10.925  0.5814 -0.6493  2.5036
 6905TIP3    H242131   2.239   4.503  10.977  0.4978 -0.0601  0.9401
 6906TIP3   OH242132   5.671   0.189  15.772  0.1186  0.2343 -0.1029
 6906TIP3    H142133   5.619   0.117  15.807 -0.5270  0.3755 -0.7324
 6906TIP3    H242134   5.670   0.255  15.841  1.0165 -0.4815  0.6242
 6907TIP3   OH242135   2.982   4.177   4.940 -0.2389  0.0431  0.4403
 6907TIP3    H142136   2.990   4.082   4.949  0.4098  0.1543  1.0957
 6907TIP3    H242137   3.001   4.194   4.848 -3.4232 -0.7605 -0.5036
 6908TIP3   OH242138   4.218   5.086  14.965 -0.2331  0.1723  0.4218
 6908TIP3    H142139   4.198   5.031  14.889  3.7180  1.1532 -1.6686
 6908TIP3    H242140   4.232   5.025  15.037  0.8515 -1.3141 -0.9856
 6909TIP3   OH242141   0.535   4.968  16.547 -0.0475  0.2882  0.4496
 6909TIP3    H142142   0.572   4.956  16.634 -1.6427  0.2413  1.1482
 6909TIP3    H242143   0.580   5.046  16.512 -0.9552  1.6876  2.2268
 6910TIP3   OH242144   1.294   2.073   4.219  0.1429 -0.5354  0.1450
 6910TIP3    H142145   1.326   2.123   4.144 -1.7840  0.9971  0.2634
 6910TIP3    H242146   1.263   1.991   4.181  1.5692 -0.8787 -0.3311
 6911TIP3   OH242147   5.419   6.494  11.791 -0.1693  0.3077 -0.3708
 6911TIP3    H142148   5.345   6.453  11.746 -0.7211  0.1350  0.6591
 6911TIP3    H242149   5.409   6.587  11.773 -2.0023  0.5796  1.6006
 6912TIP3   OH242150   5.064   5.130   6.839  0.0347 -0.5690  0.4621
 6912TIP3    H142151   4.969   5.119   6.837  0.0563 -0.7035 -0.0623
 6912TIP3    H242152   5.077   5.224   6.844 -0.1240 -0.4754 -0.6979
 6913TIP3   OH242153   4.001   0.299  13.720  0.1359 -0.2425 -0.2227
 6913TIP3    H142154   3.937   0.316  13.651 -1.8460  1.1856  1.8539
 6913TIP3    H242155   4.084   0.333  13.685 -0.6351 -0.1757 -2.1168
 6914TIP3   OH242156   4.124   6.232  13.976 -0.1651  0.2644 -0.6264
 6914TIP3    H142157   4.101   6.155  14.027 -1.1012  0.9950  0.0960
 6914TIP3    H242158   4.204   6.207  13.929 -0.9307 -1.4357 -1.1044
 6915TIP3   OH242159   5.045   2.321  14.844 -0.0926 -0.4789  0.0654
 6915TIP3    H142160   4.966   2.322  14.790  0.0593 -1.1389 -0.1808
 6915TIP3    H242161   5.116   2.302  14.783  0.8005  3.3805 -0.3693
 6916TIP3   OH242162   0.978   4.198   5.422 -0.1981  0.0775 -0.3508
 6916TIP3    H142163   0.958   4.288   5.397  0.9961  0.6669  0.6985
 6916TIP3    H242164   0.986   4.200   5.517  0.7412 -0.9366 -0.3726
 6917TIP3   OH242165   4.742   0.460   1.995 -0.2357 -0.5576  0.1516
 6917TIP3    H142166   4.813   0.523   1.977  0.4715 -0.8926  1.6129
 6917TIP3    H242167   4.760   0.387   1.935 -1.0476  0.5586 -1.5418
 6918TIP3   OH242168   5.232   0.430   5.548  0.3738 -0.5608  0.2547
 6918TIP3    H142169   5.282   0.431   5.630 -0.7652  0.2461  0.9659
 6918TIP3    H242170   5.219   0.337   5.529  1.4782 -0.7704  0.4542
 6919TIP3   OH242171   2.051   1.162  15.194  0.1238  0.1196 -0.4309
 6919TIP3    H142172   2.086   1.095  15.253 -0.8959 -0.9078 -0.9330
 6919TIP3    H242173   2.124   1.182  15.135  0.4924 -0.4591 -0.1879
 6920TIP3   OH242174   5.977   3.623  14.324  0.5015 -0.2551  0.4494
 6920TIP3    H142175   5.975   3.685  14.397  1.0529  1.0450 -0.6043
 6920TIP3    H242176   6.043   3.658  14.265 -1.1929 -0.2394 -1.5488
 6921TIP3   OH242177   6.294   4.147   5.287 -0.1184  0.0846  0.6802
 6921TIP3    H142178   6.306   4.170   5.379 -1.9184  1.9211  0.5353
 6921TIP3    H242179   6.279   4.231   5.243 -0.1855 -0.8267 -1.1488
 6922TIP3   OH242180   5.977   4.280   6.009  0.4328  0.7009 -0.9224
 6922TIP3    H142181   5.940   4.363   5.980  1.0213  0.6983 -1.7001
 6922TIP3    H242182   6.004   4.296   6.100 -0.5608  0.9893 -0.6716
 6923TIP3   OH242183   4.508   1.127   1.757 -0.8740 -0.4809  0.7074
 6923TIP3    H142184   4.426   1.079   1.750 -1.6165  0.6156  1.5138
 6923TIP3    H242185   4.485   1.218   1.737  0.6530 -0.5192 -1.6998
 6924TIP3   OH242186   1.947   2.293   4.589 -0.2772 -0.7805  0.1171
 6924TIP3    H142187   1.927   2.299   4.496 -0.1978 -2.4039 -0.0343
 6924TIP3    H242188   2.000   2.214   4.597 -0.1021 -0.5459  1.5136
 6925TIP3   OH242189   4.165   5.799   5.459 -0.3794  0.1789  0.2478
 6925TIP3    H142190   4.243   5.780   5.510 -0.1826 -0.5684 -0.2975
 6925TIP3    H242191   4.198   5.817   5.371 -0.7586  0.7627  0.2195
 6926TIP3   OH242192   6.194   2.078  12.650  0.4326 -0.5163 -0.3345
 6926TIP3    H142193   6.250   2.110  12.720  1.4622 -1.6576 -0.6037
 6926TIP3    H242194   6.174   2.156  12.597  2.9050 -0.2701 -1.0200
 6927TIP3   OH242195   6.349   1.379   0.075 -0.4324  0.3791 -0.2663
 6927TIP3    H142196   6.444   1.388   0.078 -0.1502 -1.5898 -1.7825
 6927TIP3    H242197   6.332   1.312   0.009 -2.8231 -0.2014  0.7989
 6928TIP3   OH242198   6.518   0.370   5.650  0.2368  0.4047  0.2119
 6928TIP3    H142199   6.548   0.284   5.620  1.9129  1.3290 -0.8644
 6928TIP3    H242200   6.424   0.357   5.667  0.3007 -1.4585 -0.5661
 6929TIP3   OH242201   4.796   1.910   6.421  0.6735 -0.3798  0.0202
 6929TIP3    H142202   4.857   1.849   6.463  1.0632 -0.5483 -0.7520
 6929TIP3    H242203   4.845   1.943   6.345  0.4796  0.9285  0.4456
 6930TIP3   OH242204   6.054   6.561   3.912 -0.2477  0.0911  0.1919
 6930TIP3    H142205   6.111   6.501   3.960 -0.2560 -0.4258 -0.4371
 6930TIP3    H242206   6.010   6.612   3.980  0.1899 -0.2221  0.7121
 6931TIP3   OH242207   1.570   0.707  16.710 -0.0437 -0.2347 -0.2554
 6931TIP3    H142208   1.606   0.783  16.663 -0.5473 -0.0252 -0.3040
 6931TIP3    H242209   1.558   0.737  16.800  1.3589 -0.7748  0.1478
 6932TIP3   OH242210   2.410   2.733  13.545  0.2001  0.3731 -0.3308
 6932TIP3    H142211   2.331   2.785  13.531  0.6473  1.1033 -0.2407
 6932TIP3    H242212   2.386   2.644  13.519 -0.0453  0.9695 -2.3134
 6933TIP3   OH242213   2.266   1.638   1.119 -0.2550  0.0585  0.3439
 6933TIP3    H142214   2.309   1.578   1.179  0.6948 -0.2568 -0.6226
 6933TIP3    H242215   2.337   1.673   1.065 -0.9682  1.0152 -0.0026
 6934TIP3   OH242216   1.884   2.964   4.308  0.5191  0.0459 -0.0020
 6934TIP3    H142217   1.806   3.011   4.280  0.8302  0.7943  0.3685
 6934TIP3    H242218   1.861   2.926   4.393  0.6747  0.5639  0.2722
 6935TIP3   OH242219   0.373   5.540   6.047  0.1409  0.1094 -0.5733
 6935TIP3    H142220   0.382   5.502   6.134 -0.4625 -1.6405 -1.2194
 6935TIP3    H242221   0.279   5.544   6.031  0.2389 -1.3669 -1.8171
 6936TIP3   OH242222   6.198   1.807  16.446  0.0258  0.0016 -0.3537
 6936TIP3    H142223   6.242   1.805  16.531 -1.1824  1.2683  0.3345
 6936TIP3    H242224   6.123   1.748  16.456  0.7534 -1.0896 -1.0836
 6937TIP3   OH242225   0.915   3.894  11.129  0.1966 -0.2435  0.0026
 6937TIP3    H142226   0.925   3.967  11.068 -2.0003  0.4192  0.3392
 6937TIP3    H242227   0.911   3.935  11.215  0.8402 -0.9489  0.3788
 6938TIP3   OH242228   3.519   2.709   0.996 -0.1525 -0.4525 -0.0313
 6938TIP3    H142229   3.609   2.735   0.979 -0.5437  0.9921 -0.0388
 6938TIP3    H242230   3.466   2.768   0.942 -1.0846 -1.8028 -0.6502
 6939TIP3   OH242231   5.514   0.569  14.429 -0.4526  0.0754  0.0441
 6939TIP3    H142232   5.551   0.649  14.465  0.9612 -0.8591  0.7613
 6939TIP3    H242233   5.429   0.559  14.473  0.0160  0.4087  1.0424
 6940TIP3   OH242234   1.055   4.132  13.692 -0.2216 -0.6357 -0.6767
 6940TIP3    H142235   0.996   4.121  13.617  1.2939 -1.1965 -1.8425
 6940TIP3    H242236   1.124   4.067  13.678  1.5446  1.0454 -0.2654
 6941TIP3   OH242237   5.500   5.339  14.166 -0.2470 -0.7194 -0.2388
 6941TIP3    H142238   5.405   5.335  14.153 -0.3953  0.8749  0.1009
 6941TIP3    H242239   5.510   5.376  14.254  0.6890 -0.0436 -0.6167
 6942TIP3   OH242240   4.013   2.378  17.095  0.3930  0.3016  1.1210
 6942TIP3    H142241   4.088   2.352  17.148  0.6584 -1.1460  0.1036
 6942TIP3    H242242   3.938   2.368  17.154  0.5874 -2.0814  1.0604
 6943TIP3   OH242243   3.625   6.280   0.450  0.8344  0.2571 -0.5934
 6943TIP3    H142244   3.607   6.200   0.500  1.5546  0.4231 -0.0537
 6943TIP3    H242245   3.717   6.298   0.466  0.8668  0.7763 -1.3304
 6944TIP3   OH242246   6.099   5.616  13.930  0.3984  0.0119 -0.0456
 6944TIP3    H142247   6.111   5.561  13.853 -0.6417  0.1085 -0.2930
 6944TIP3    H242248   6.023   5.579  13.974 -0.4344  1.3430 -0.3176
 6945TIP3   OH242249   0.670   0.751  14.620  0.1042 -0.3559 -0.6708
 6945TIP3    H142250   0.603   0.820  14.615  0.0884 -0.4259 -1.6747
 6945TIP3    H242251   0.667   0.708  14.535  0.9892 -0.7808 -0.5051
 6946TIP3   OH242252   1.978   4.257   0.211 -0.6793 -0.0385  0.2922
 6946TIP3    H142253   1.988   4.337   0.159 -1.7576  1.0035  1.6148
 6946TIP3    H242254   1.956   4.190   0.147 -0.0412  0.7700 -0.8169
 6947TIP3   OH242255   1.514   3.876  16.762  0.3400  0.1001 -0.3319
 6947TIP3    H142256   1.569   3.928  16.821  1.0076 -0.8050 -0.1475
 6947TIP3    H242257   1.553   3.889  16.676  1.5300 -1.3732 -0.0590
 6948TIP3   OH242258   0.926   1.563  14.878 -0.0382 -0.2222  0.0967
 6948TIP3    H142259   1.007   1.577  14.830 -1.1716 -0.2235 -1.9479
 6948TIP3    H242260   0.894   1.651  14.899  0.8382 -0.2281  1.6369
 6949TIP3   OH242261   0.578   2.182  13.956  0.3943 -0.6806  0.6780
 6949TIP3    H142262   0.669   2.208  13.939 -0.5394  1.5734 -1.2696
 6949TIP3    H242263   0.537   2.178  13.870 -1.8295  0.1545  1.6264
 6950TIP3   OH242264   1.240   0.298  12.154 -0.3556 -0.0856  0.6203
 6950TIP3    H142265   1.226   0.204  12.159 -1.3517 -0.0120 -0.2591
 6950TIP3    H242266   1.326   0.312  12.193  0.5278 -1.5528 -0.6978
 6951TIP3   OH242267   4.962   2.796   2.194  0.1818 -0.4202  0.2753
 6951TIP3    H142268   5.051   2.770   2.171 -0.1024 -1.6241  0.4931
 6951TIP3    H242269   4.913   2.786   2.112 -0.2265 -1.9619  0.6915
 6952TIP3   OH242270   3.648   6.422  16.614 -0.3581  0.4740  0.4159
 6952TIP3    H142271   3.599   6.343  16.633  1.4390 -0.6471  0.6764
 6952TIP3    H242272   3.738   6.392  16.601  0.4700  2.5256  0.9444
 6953TIP3   OH242273   3.424   0.534   0.586 -0.2690  0.1656 -0.3004
 6953TIP3    H142274   3.376   0.594   0.529 -1.2907 -1.0530 -0.7747
 6953TIP3    H242275   3.498   0.505   0.534  0.9651  1.9263  0.3741
 6954TIP3   OH242276   0.083   4.954   0.304  0.3022 -0.2061  0.0766
 6954TIP3    H142277   0.153   4.900   0.341 -1.5483 -1.3770  2.0282
 6954TIP3    H242278   0.021   4.892   0.267  0.3384  0.8335 -1.9228
 6955TIP3   OH242279   2.191   0.381   0.962  0.5033  0.3816 -0.2011
 6955TIP3    H142280   2.125   0.399   1.030  1.8003  0.9850  0.9514
 6955TIP3    H242281   2.143   0.332   0.895 -0.9865  0.3190  0.8444
 6956TIP3   OH242282   4.034   3.456  15.934 -0.7295 -0.0002  0.4303
 6956TIP3    H142283   4.110   3.513  15.947 -1.5235  0.9405  1.1374
 6956TIP3    H242284   3.968   3.513  15.894 -1.0321 -0.8335 -0.2927
 6957TIP3   OH242285   4.721   5.359   4.075  0.5862  0.7624  0.1131
 6957TIP3    H142286   4.757   5.404   3.999  1.8512  0.0492  0.2504
 6957TIP3    H242287   4.658   5.421   4.112  2.1320  2.3683  0.1943
 6958TIP3   OH242288   3.203   5.083  16.120  0.7610  0.2872  0.3072
 6958TIP3    H142289   3.245   5.064  16.204  1.4007  2.9975  0.7023
 6958TIP3    H242290   3.265   5.050  16.054  0.9922 -0.4436  0.8794
 6959TIP3   OH242291   6.471   6.015  13.655 -0.4318  0.5808  0.1655
 6959TIP3    H142292   6.380   5.988  13.647 -0.4058  0.9479 -2.0569
 6959TIP3    H242293   6.520   5.933  13.665 -0.8124  0.1735 -1.1560
 6960TIP3   OH242294   0.953   0.969   0.795  0.5522 -0.6466  0.4250
 6960TIP3    H142295   1.041   0.984   0.830  0.3984  1.0942  0.1325
 6960TIP3    H242296   0.897   0.962   0.873  0.5961  0.7441  0.6089
 6961TIP3   OH242297   3.567   3.698   4.432 -0.2052 -0.4087 -0.0525
 6961TIP3    H142298   3.550   3.792   4.441  0.9663 -0.3440  2.4146
 6961TIP3    H242299   3.511   3.670   4.360  0.5170  2.4423 -1.8837
 6962TIP3   OH242300   1.027   4.851   6.274  0.4783 -0.0761 -0.7437
 6962TIP3    H142301   0.992   4.940   6.267 -1.1070 -0.4644  1.2091
 6962TIP3    H242302   1.121   4.860   6.262  0.2660  1.7611 -1.2251
 6963TIP3   OH242303   0.870   5.163   2.878 -0.4636  0.3704  0.2306
 6963TIP3    H142304   0.873   5.073   2.846 -0.1978  0.4674 -0.0223
 6963TIP3    H242305   0.944   5.170   2.938 -1.1470  0.0971  1.1205
 6964TIP3   OH242306   1.268   5.525  12.190 -0.3080  0.0154 -0.1142
 6964TIP3    H142307   1.254   5.569  12.274  0.0303 -1.3166  0.6692
 6964TIP3    H242308   1.361   5.501  12.190  0.0477  1.2065 -1.5055
 6965TIP3   OH242309   4.303   0.005   1.036  0.2628  0.7567 -0.0652
 6965TIP3    H142310   4.254   0.067   1.088 -2.0828 -0.0094 -1.1986
 6965TIP3    H242311   4.261  -0.080   1.053  1.8477 -0.1379 -0.3492
 6966TIP3   OH242312   4.196   3.260  14.259 -0.0077  0.1808 -0.0296
 6966TIP3    H142313   4.178   3.327  14.193 -0.0490 -1.1458 -1.4241
 6966TIP3    H242314   4.145   3.287  14.335 -2.1101  0.3865 -1.4285
 6967TIP3   OH242315   3.314   5.919   4.665  0.3737  0.1245 -0.0490
 6967TIP3    H142316   3.248   5.971   4.710 -0.5405 -0.8333 -0.2431
 6967TIP3    H242317   3.385   5.910   4.728 -0.8402 -1.1356  1.2085
 6968TIP3   OH242318   4.713   0.780  13.898  0.3198  0.7332  0.6397
 6968TIP3    H142319   4.617   0.774  13.899  0.3269  0.5468  0.1264
 6968TIP3    H242320   4.731   0.873  13.911  0.0567  0.8809 -0.0366
 6969TIP3   OH242321   5.636   1.981  12.732 -0.1596  0.2187 -0.1516
 6969TIP3    H142322   5.586   2.035  12.793  1.0981 -1.1149  2.1875
 6969TIP3    H242323   5.727   1.999  12.754  0.3043 -2.2036  0.1863
 6970TIP3   OH242324   3.652   0.205   4.428  0.2105  0.7441 -0.1656
 6970TIP3    H142325   3.661   0.110   4.418  0.7499  0.6979  0.7057
 6970TIP3    H242326   3.582   0.229   4.366 -2.6110 -0.7588  2.1845
 6971TIP3   OH242327   2.745   3.765  11.410  0.1006 -0.1787  0.6381
 6971TIP3    H142328   2.763   3.848  11.367 -0.6972  0.7801  2.0502
 6971TIP3    H242329   2.679   3.723  11.354  0.2075  0.3294  0.1215
 6972TIP3   OH242330   4.594   0.453   3.781 -0.4795 -1.2305  0.2172
 6972TIP3    H142331   4.654   0.386   3.751  1.2785  0.9853 -1.5722
 6972TIP3    H242332   4.592   0.442   3.876  0.5736 -3.0809  0.0739
 6973TIP3   OH242333   6.583   6.534  13.286  0.0237 -0.2379 -0.3010
 6973TIP3    H142334   6.543   6.619  13.308  2.0527  1.0767 -1.3940
 6973TIP3    H242335   6.671   6.556  13.256  0.1733 -2.6480 -1.8665
 6974TIP3   OH242336   1.021   6.582   4.657  0.3121  0.1025 -0.1695
 6974TIP3    H142337   1.059   6.517   4.716 -0.7594 -0.5579 -0.1650
 6974TIP3    H242338   1.067   6.663   4.677  1.0729 -0.4633  0.4408
 6975TIP3   OH242339   3.472   0.251   3.039  0.2555  0.0805  0.6522
 6975TIP3    H142340   3.425   0.323   3.080  2.7448  2.5796 -0.4953
 6975TIP3    H242341   3.411   0.178   3.041 -2.4459  2.1790  1.9171
 6976TIP3   OH242342   5.347   3.944   0.443  0.1344  0.0838 -0.0171
 6976TIP3    H142343   5.393   3.963   0.361 -1.3514  1.5821 -0.5568
 6976TIP3    H242344   5.255   3.938   0.418 -0.0635 -2.5566  1.0772
 6977TIP3   OH242345   2.190   2.931   4.778  0.3969 -0.4932  0.2131
 6977TIP3    H142346   2.098   2.905   4.788  0.0200 -0.1819 -1.9517
 6977TIP3    H242347   2.226   2.868   4.714  1.5326 -0.2544  0.5953
 6978TIP3   OH242348   4.744   5.230  12.129  0.5824 -0.0389  0.3071
 6978TIP3    H142349   4.802   5.250  12.203  1.6866 -0.2669 -0.4795
 6978TIP3    H242350   4.700   5.313  12.111  1.3502  0.3868  0.3297
 6979TIP3   OH242351   5.649   3.300  11.351  0.1264  0.0306  0.4007
 6979TIP3    H142352   5.700   3.250  11.414 -1.2128 -2.8975 -0.6231
 6979TIP3    H242353   5.713   3.334  11.288  1.3247  1.8594  2.4939
 6980TIP3   OH242354   5.038   3.459  13.721 -0.3861  0.2203  0.2057
 6980TIP3    H142355   4.993   3.500  13.795 -2.2339 -0.5191 -0.4577
 6980TIP3    H242356   5.043   3.366  13.745 -0.3682  0.0926 -0.2917
 6981TIP3   OH242357   6.596   1.871  11.652  0.6331 -0.1156 -0.3138
 6981TIP3    H142358   6.585   1.850  11.559  0.8087  1.1669 -0.6462
 6981TIP3    H242359   6.690   1.862  11.667  1.2263  3.2036 -1.2400
 6982TIP3   OH242360   5.523   4.305   1.194  0.6128 -0.0492 -0.1364
 6982TIP3    H142361   5.587   4.359   1.241  0.6633  0.2549 -0.5536
 6982TIP3    H242362   5.479   4.256   1.263  1.8049 -0.8348  0.1109
 6983TIP3   OH242363   6.696   4.082   3.320  0.1416  0.2179  0.0307
 6983TIP3    H142364   6.655   3.996   3.313  0.6268  0.0138 -0.4084
 6983TIP3    H242365   6.790   4.063   3.325  0.2300  0.7059  0.2807
 6984TIP3   OH242366   1.090   5.954  11.265  0.0939 -0.2783  0.0614
 6984TIP3    H142367   1.111   5.867  11.231  0.2481 -0.9893  1.8481
 6984TIP3    H242368   0.995   5.961  11.253 -0.1141 -1.2175  0.9887
 6985TIP3   OH242369   1.974   3.987  16.194 -0.0781  0.4496  0.2718
 6985TIP3    H142370   2.041   3.936  16.148  0.2916  0.8429  0.3616
 6985TIP3    H242371   2.005   4.078  16.186 -0.1692  0.5504  1.0286
 6986TIP3   OH242372   3.623   3.547  11.360  0.1755 -0.1326  0.3746
 6986TIP3    H142373   3.551   3.577  11.305  0.1519  2.3796  1.6530
 6986TIP3    H242374   3.580   3.503  11.433  0.0048  0.2893  0.5267
 6987TIP3   OH242375   6.301   6.629  15.358 -0.5082 -0.4087 -0.4795
 6987TIP3    H142376   6.396   6.632  15.364 -0.5778 -0.3631  0.8863
 6987TIP3    H242377   6.283   6.556  15.298  0.3875  0.4058 -1.8020
 6988TIP3   OH242378   6.562   5.095  11.659 -0.0959  0.4895 -0.3098
 6988TIP3    H142379   6.479   5.061  11.623  0.5737 -0.0525 -1.3992
 6988TIP3    H242380   6.586   5.166  11.600  0.3263  0.5013 -0.1249
 6989TIP3   OH242381   1.509   5.163   3.326 -0.2134  0.2570 -0.4901
 6989TIP3    H142382   1.441   5.099   3.347 -0.8262  1.0361 -0.0362
 6989TIP3    H242383   1.497   5.182   3.233  1.3729 -1.8798 -1.2104
 6990TIP3   OH242384   1.879   5.309  15.765 -0.4547 -0.5110 -0.0036
 6990TIP3    H142385   1.901   5.401  15.780  0.7892 -0.8555  0.3619
 6990TIP3    H242386   1.787   5.311  15.739  0.1617  1.0752 -2.3770
 6991TIP3   OH242387   0.956   2.829   3.904 -0.2204 -0.6459  0.2860
 6991TIP3    H142388   0.960   2.842   3.999 -1.9730  0.4933  0.2463
 6991TIP3    H242389   0.892   2.893   3.874  3.6066  2.3996 -2.3431
 6992TIP3   OH242390   5.069   4.633  16.156  0.4382 -0.3155  0.3761
 6992TIP3    H142391   5.132   4.606  16.090  2.4711  0.6820  1.8048
 6992TIP3    H242392   5.052   4.553  16.206  3.9318  0.0867  2.5727
 6993TIP3   OH242393   3.252   0.537   4.319  0.5844  0.0631  0.2672
 6993TIP3    H142394   3.156   0.540   4.330  0.4994 -1.4829  0.1081
 6993TIP3    H242395   3.268   0.583   4.237  0.0334  0.7291  0.5185
 6994TIP3   OH242396   4.404   3.126  14.175  0.1059  0.0082 -0.6276
 6994TIP3    H142397   4.318   3.167  14.179  0.8096  1.5140 -0.4229
 6994TIP3    H242398   4.431   3.135  14.084  0.2986  0.0676 -0.5651
 6995TIP3   OH242399   5.611   2.303   1.370 -0.0177  0.3733  0.4213
 6995TIP3    H142400   5.610   2.217   1.411 -0.9326  0.3345  0.3353
 6995TIP3    H242401   5.599   2.286   1.277 -2.6347  0.6885  0.6400
 6996TIP3   OH242402   5.527   4.918  15.806  0.2383  0.0008 -0.3789
 6996TIP3    H142403   5.599   4.940  15.865 -0.5863  2.6587 -0.2127
 6996TIP3    H242404   5.460   4.984  15.824 -2.0401 -1.9664 -0.9528
 6997TIP3   OH242405   2.330   3.014  12.032 -0.1679 -0.5209  0.2837
 6997TIP3    H142406   2.317   3.109  12.033  1.1798 -0.3156  1.9984
 6997TIP3    H242407   2.260   2.982  11.975 -0.2920  1.5254 -0.8367
 6998TIP3   OH242408   4.443   3.653  14.771  0.3674 -0.0255  0.2593
 6998TIP3    H142409   4.481   3.666  14.684 -1.8652 -0.4886 -0.8387
 6998TIP3    H242410   4.375   3.588  14.759 -0.3768  0.3020  2.2574
 6999TIP3   OH242411   5.194   2.027   3.038 -0.1126  0.3219 -0.5193
 6999TIP3    H142412   5.129   2.061   2.976 -1.3264  0.6062  0.8578
 6999TIP3    H242413   5.156   1.946   3.071  0.6191  0.0598 -0.2977
 7000TIP3   OH242414   0.300   3.729  13.031 -0.4133  0.0872 -0.1103
 7000TIP3    H142415   0.287   3.775  12.948 -0.4541 -2.2236 -1.5008
 7000TIP3    H242416   0.237   3.656  13.027 -2.8774  1.7509  3.5440
 7001TIP3   OH242417   2.144   4.870  14.734  0.6482 -0.5873  0.4457
 7001TIP3    H142418   2.116   4.918  14.812  0.6967  0.9675 -0.4572
 7001TIP3    H242419   2.237   4.890  14.725  0.3871  0.2236 -0.6651
 7002TIP3   OH242420   5.027   3.277   0.938 -0.4904 -0.2197  0.7484
 7002TIP3    H142421   5.058   3.306   1.023  0.5019 -0.7116  0.5721
 7002TIP3    H242422   5.066   3.338   0.876 -2.6030  1.2016  0.7419
 7003TIP3   OH242423   3.403   0.841   3.627 -0.1711 -0.3575 -0.1484
 7003TIP3    H142424   3.469   0.910   3.620  0.0246 -0.1967  2.2235
 7003TIP3    H242425   3.447   0.772   3.677 -1.6153 -0.4822  1.0162
 7004TIP3   OH242426   4.155   6.393  12.789  0.5392 -0.7049 -0.0792
 7004TIP3    H142427   4.162   6.305  12.751 -0.4892 -0.4185 -0.9977
 7004TIP3    H242428   4.242   6.431  12.777  0.7755 -1.3302 -0.3802
 7005TIP3   OH242429   2.834   0.782  16.444 -0.3834 -0.4492 -0.8247
 7005TIP3    H142430   2.882   0.770  16.525  0.9601 -0.4193 -1.5839
 7005TIP3    H242431   2.874   0.859  16.403 -1.9072  0.3206 -0.9119
 7006TIP3   OH242432   3.859   2.806  13.345 -0.1035 -0.7190 -0.0862
 7006TIP3    H142433   3.884   2.821  13.436 -0.7757 -2.3817  0.4087
 7006TIP3    H242434   3.910   2.730  13.317  0.0243 -0.2926 -1.0746
 7007TIP3   OH242435   2.699   6.418  13.710 -0.2513  0.3792  0.1489
 7007TIP3    H142436   2.683   6.357  13.782  3.2027  0.9075  1.5616
 7007TIP3    H242437   2.690   6.505  13.749  0.9878  0.6716 -0.1681
 7008TIP3   OH242438   0.231   3.769  15.120 -0.2906 -0.3713 -0.7574
 7008TIP3    H142439   0.180   3.712  15.064 -0.6120  0.5651 -1.4524
 7008TIP3    H242440   0.172   3.792  15.192 -1.1299  1.2346 -1.8989
 7009TIP3   OH242441   2.921   1.865  12.520  0.0804 -0.0929 -0.0031
 7009TIP3    H142442   2.969   1.900  12.594 -1.8108  0.0564  1.2158
 7009TIP3    H242443   2.978   1.797  12.484  1.0009 -0.2270  1.6291
 7010TIP3   OH242444   6.724   5.620   1.039 -0.0272  0.0519  0.3494
 7010TIP3    H142445   6.731   5.528   1.065 -1.1058 -0.6230 -1.5532
 7010TIP3    H242446   6.736   5.669   1.120  0.8682 -1.7386  1.3580
 7011TIP3   OH242447   4.935   0.193  17.135 -0.0054  0.1062  0.3192
 7011TIP3    H142448   4.951   0.287  17.127 -1.8675  0.4582  0.3219
 7011TIP3    H242449   4.945   0.160  17.046 -1.9199  0.7981 -0.2130
 7012TIP3   OH242450   2.430   5.518   0.405  0.0088 -0.1759 -0.0003
 7012TIP3    H142451   2.486   5.587   0.439 -1.1521 -0.5863  3.1114
 7012TIP3    H242452   2.488   5.443   0.393  0.7907  0.5354 -0.7569
 7013TIP3   OH242453   0.830   1.566   2.732  0.3316 -0.6708  0.2467
 7013TIP3    H142454   0.861   1.569   2.823  1.3997 -1.1777 -0.0812
 7013TIP3    H242455   0.820   1.657   2.707 -0.4431 -0.5294  1.0218
 7014TIP3   OH242456   3.651   3.703   0.213  0.5105 -0.2723 -0.2267
 7014TIP3    H142457   3.641   3.644   0.138  0.4959  2.1882 -2.3020
 7014TIP3    H242458   3.568   3.694   0.261  0.2413 -1.4065 -0.8442
 7015TIP3   OH242459   0.051   2.525  15.057  0.2304  0.4083 -0.2542
 7015TIP3    H142460   0.124   2.514  14.996  1.5176 -0.5695  1.3831
 7015TIP3    H242461   0.002   2.599  15.022  2.2874  1.4319 -1.1568
 7016TIP3   OH242462   1.873   5.644  11.776  0.3093  0.2559 -0.6828
 7016TIP3    H142463   1.912   5.682  11.698  2.7364 -0.6350  0.0276
 7016TIP3    H242464   1.901   5.552  11.775 -1.6917 -0.4361 -0.0220
 7017TIP3   OH242465   4.735   3.725  14.291  0.3428  0.1095  0.0648
 7017TIP3    H142466   4.782   3.750  14.371 -0.7665  2.0374  0.1758
 7017TIP3    H242467   4.704   3.636  14.308 -0.4501  0.7042  2.0969
 7018TIP3   OH242468   2.929   1.750  10.505 -0.1883  0.3083 -0.4417
 7018TIP3    H142469   2.943   1.665  10.547 -0.3851 -0.3862 -1.7526
 7018TIP3    H242470   3.005   1.802  10.531  1.1734 -1.0382 -1.5404
 7019TIP3   OH242471   6.370   5.321   0.600  0.4942 -0.5550  0.3164
 7019TIP3    H142472   6.325   5.405   0.598  0.7907 -0.4026 -1.7349
 7019TIP3    H242473   6.309   5.261   0.644 -0.9707  0.0589 -0.8044
 7020TIP3   OH242474   2.578   3.757  14.965 -0.6678  0.2190  0.5039
 7020TIP3    H142475   2.521   3.720  15.033  0.8938 -0.4664  1.5064
 7020TIP3    H242476   2.540   3.842  14.945 -1.6282  0.0833  1.6652
 7021TIP3   OH242477   1.203   0.663   5.119 -0.5476 -0.1423 -0.2397
 7021TIP3    H142478   1.152   0.698   5.047  0.7430 -0.5707 -1.4143
 7021TIP3    H242479   1.281   0.625   5.077  0.2454 -0.3917  1.3738
 7022TIP3   OH242480   3.630   3.632   0.595 -0.2653 -0.1638 -0.1809
 7022TIP3    H142481   3.682   3.674   0.664 -2.5546  0.4772  1.2554
 7022TIP3    H242482   3.627   3.540   0.620  1.5249 -0.5669 -1.2297
 7023TIP3   OH242483   3.764   5.237   3.133 -0.1921  0.2031  0.3880
 7023TIP3    H142484   3.808   5.289   3.066 -0.4631 -1.7449 -1.4159
 7023TIP3    H242485   3.684   5.286   3.152 -0.9301  0.0663 -1.9910
 7024TIP3   OH242486   1.430   1.435   2.735 -0.3488 -0.1495  0.5531
 7024TIP3    H142487   1.470   1.442   2.649 -1.3786 -0.0297  0.0730
 7024TIP3    H242488   1.356   1.495   2.733 -1.1646 -1.1072  1.0702
 7025TIP3   OH242489   3.034   3.006   1.510  0.4426  0.2060  0.5445
 7025TIP3    H142490   3.046   3.089   1.556 -0.3277  0.6814 -0.0759
 7025TIP3    H242491   3.115   2.993   1.462  0.0795  1.2836 -0.3962
 7026TIP3   OH242492   1.282   1.044  16.760  0.5346  0.0199  0.0844
 7026TIP3    H142493   1.287   1.139  16.750 -0.1753  0.0550  0.0281
 7026TIP3    H242494   1.373   1.016  16.770  0.6249  0.9813  2.6277
 7027TIP3   OH242495   6.158   5.069  17.030 -0.3579 -0.6020  0.5821
 7027TIP3    H142496   6.095   5.136  17.004  0.0300  0.4933  2.2701
 7027TIP3    H242497   6.106   4.988  17.035 -1.2445 -0.0630  0.2869
 7028TIP3   OH242498   0.097   5.736   4.292 -0.9109  0.0868  0.4644
 7028TIP3    H142499   0.064   5.820   4.323 -0.3862  0.5000 -0.0704
 7028TIP3    H242500   0.164   5.711   4.355 -0.0155  0.8073 -0.1718
 7029TIP3   OH242501   1.304   4.203   0.500 -0.5880  0.4852  0.1022
 7029TIP3    H142502   1.319   4.243   0.585  0.5013  1.3827 -0.4806
 7029TIP3    H242503   1.303   4.277   0.439 -0.8284 -0.1895 -0.7334
 7030TIP3   OH242504   1.513   2.732  15.568 -0.3723  0.4455 -0.1532
 7030TIP3    H142505   1.422   2.761  15.563  0.3334  3.2009  0.6755
 7030TIP3    H242506   1.556   2.779  15.497  0.3961 -0.9819 -0.6594
 7031TIP3   OH242507   5.831   2.665   5.074  0.1119  0.3555 -0.2412
 7031TIP3    H142508   5.778   2.682   4.996 -1.9587  0.8928  1.2020
 7031TIP3    H242509   5.860   2.751   5.103 -0.6495  0.3550  0.5652
 7032TIP3   OH242510   2.108   4.679   0.744  0.1422  0.0581 -0.1189
 7032TIP3    H142511   2.065   4.755   0.705 -0.3548 -0.1411  0.0379
 7032TIP3    H242512   2.163   4.716   0.814 -1.8750  0.1077  1.5444
 7033TIP3   OH242513   6.574   1.026   1.448 -0.1582  0.5488  0.0300
 7033TIP3    H142514   6.506   1.090   1.429 -0.7676  0.8467  2.7621
 7033TIP3    H242515   6.656   1.074   1.436 -0.5499  1.3002  0.2953
 7034TIP3   OH242516   3.360   4.021   4.684 -0.5183  0.3221  0.6748
 7034TIP3    H142517   3.309   4.080   4.628  1.7868  0.7041 -1.1874
 7034TIP3    H242518   3.319   3.935   4.671 -0.7326  0.6141 -0.7898
 7035TIP3   OH242519   5.084   4.902   6.573  0.2872 -0.6223 -0.8393
 7035TIP3    H142520   5.103   4.870   6.661  0.1533 -0.2982 -0.6916
 7035TIP3    H242521   5.032   4.981   6.587  0.1439 -0.6487 -1.2111
 7036TIP3   OH242522   0.508   4.631  13.430 -0.5858 -0.3465 -0.5634
 7036TIP3    H142523   0.506   4.554  13.487 -0.4288  0.8897  1.1992
 7036TIP3    H242524   0.600   4.641  13.406 -0.6942 -1.0413 -1.2981
 7037TIP3   OH242525   0.515   3.507  12.479 -0.6293  0.2107 -0.2550
 7037TIP3    H142526   0.582   3.489  12.545 -1.0933  0.4666  0.2941
 7037TIP3    H242527   0.522   3.601  12.463  0.9328 -0.1634 -2.1833
 7038TIP3   OH242528   3.432   1.537   3.659 -0.0244 -0.1332  0.5873
 7038TIP3    H142529   3.349   1.498   3.686  0.1717  0.1113  1.5996
 7038TIP3    H242530   3.439   1.517   3.566 -2.3567  1.9088 -0.1053
 7039TIP3   OH242531   0.376   0.143  11.881  1.2014 -0.4938  0.3567
 7039TIP3    H142532   0.299   0.103  11.921  0.1417  2.4367  1.5598
 7039TIP3    H242533   0.450   0.090  11.911 -0.1518 -2.2238  0.7730
 7040TIP3   OH242534   0.146   5.113   2.768  0.2702 -0.4611  0.1401
 7040TIP3    H142535   0.230   5.157   2.780  0.8839 -1.5193 -0.1106
 7040TIP3    H242536   0.095   5.172   2.712  1.1842 -0.2046 -0.4438
 7041TIP3   OH242537   5.776   6.106  11.832  0.0724  0.1585 -0.3048
 7041TIP3    H142538   5.843   6.049  11.795  1.1916  1.5555 -0.5135
 7041TIP3    H242539   5.693   6.072  11.798  0.5728 -2.0435  0.5320
 7042TIP3   OH242540   0.973   2.317   5.210 -0.1990  0.4066 -0.2140
 7042TIP3    H142541   0.956   2.290   5.120 -2.2315  0.8319 -0.0139
 7042TIP3    H242542   0.903   2.276   5.261  0.0049  1.4272  0.9393
 7043TIP3   OH242543   2.683   1.199  13.451  0.4490  0.2296 -0.1222
 7043TIP3    H142544   2.609   1.165  13.400  1.0961  2.2870 -2.6813
 7043TIP3    H242545   2.760   1.160  13.411  0.8867 -0.0638  0.9775
 7044TIP3   OH242546   3.420   4.294   0.016  0.6641 -0.0888  0.0337
 7044TIP3    H142547   3.446   4.300   0.108  0.2723 -1.6493  0.2743
 7044TIP3    H242548   3.405   4.385  -0.010 -0.8736  0.3032  2.0045
 7045TIP3   OH242549   0.069   2.575  12.817 -0.0077 -0.0986  0.0739
 7045TIP3    H142550   0.067   2.615  12.904  1.6639  1.0103 -0.3484
 7045TIP3    H242551   0.041   2.645  12.757 -2.6597 -1.2796 -0.2236
 7046TIP3   OH242552   1.881   6.230  12.018 -0.3391  0.1420  0.2064
 7046TIP3    H142553   1.788   6.247  12.004 -0.5896 -1.0993  0.2806
 7046TIP3    H242554   1.883   6.153  12.075  0.7267 -1.7133 -2.1809
 7047TIP3   OH242555   4.379   1.756  14.035 -0.8868  0.4011  0.0565
 7047TIP3    H142556   4.331   1.681  14.002  0.1442 -0.7113  1.0146
 7047TIP3    H242557   4.467   1.747  13.998 -0.8205  1.2974 -0.0470
 7048TIP3   OH242558   0.460   4.211   3.448  0.3220  0.5423 -0.7388
 7048TIP3    H142559   0.452   4.287   3.505 -0.8497 -1.3323  1.7798
 7048TIP3    H242560   0.382   4.158   3.467  1.2124 -1.4189 -2.1726
 7049TIP3   OH242561   6.170   2.231  16.724 -0.1925 -0.2253  0.0499
 7049TIP3    H142562   6.218   2.291  16.667 -1.1260  1.1667  0.6649
 7049TIP3    H242563   6.080   2.233  16.691 -0.3882 -0.7350  0.5227
 7050TIP3   OH242564   3.475   5.545  15.672 -0.2408  0.5751 -0.6039
 7050TIP3    H142565   3.449   5.588  15.754  0.9265 -0.7353  0.5134
 7050TIP3    H242566   3.411   5.475  15.660  0.3886 -0.1261 -0.0105
 7051TIP3   OH242567   3.286   3.165   5.257 -0.7640  0.6918  0.3554
 7051TIP3    H142568   3.381   3.149   5.256 -0.9084 -0.1887 -0.6469
 7051TIP3    H242569   3.277   3.256   5.229 -0.2465  0.5264 -0.3829
 7052TIP3   OH242570   3.856   0.689  16.011 -0.1834 -0.6316  0.5828
 7052TIP3    H142571   3.943   0.727  15.998 -0.6994  0.5644  0.4542
 7052TIP3    H242572   3.823   0.673  15.923 -0.7544  0.5405  0.5587
 7053TIP3   OH242573   5.831   3.199   5.270  0.1190 -0.0669 -0.1460
 7053TIP3    H142574   5.803   3.255   5.198 -1.1931 -1.9768 -1.1900
 7053TIP3    H242575   5.873   3.124   5.228  0.5126 -0.5978  1.1349
 7054TIP3   OH242576   4.642   5.207   5.915  0.1906  0.3320  0.4334
 7054TIP3    H142577   4.550   5.223   5.895  0.6414  0.1679 -2.0706
 7054TIP3    H242578   4.645   5.118   5.948 -0.2834 -0.6694 -2.0455
 7055TIP3   OH242579   0.147   1.759   0.237 -0.1338  0.2355  0.6617
 7055TIP3    H142580   0.211   1.692   0.213 -0.8332 -0.1773 -0.1124
 7055TIP3    H242581   0.084   1.713   0.293 -0.8014  0.1377 -0.1427
 7056TIP3   OH242582   0.347   0.638  13.603 -0.4323  0.1738  0.2143
 7056TIP3    H142583   0.361   0.546  13.623 -0.4420  0.3084  0.8426
 7056TIP3    H242584   0.406   0.655  13.529 -0.5964 -0.3860 -0.0515
 7057TIP3   OH242585   0.096   1.195   4.666 -0.0717  0.3609  0.7861
 7057TIP3    H142586   0.163   1.261   4.652 -1.4911  1.8984  0.8718
 7057TIP3    H242587   0.054   1.185   4.580 -1.6527  1.6875  1.3399
 7058TIP3   OH242588   5.502   5.664   5.072 -0.0465  0.5512  0.2203
 7058TIP3    H142589   5.538   5.728   5.011 -0.6147 -0.7346 -1.5789
 7058TIP3    H242590   5.525   5.579   5.034  0.3211 -0.3501  2.2975
 7059TIP3   OH242591   5.915   5.063  12.517 -0.0520 -0.1633 -0.2320
 7059TIP3    H142592   5.832   5.017  12.533 -0.9026  1.7839  1.5196
 7059TIP3    H242593   5.974   4.995  12.485 -2.5505 -1.4486 -2.5250
 7060TIP3   OH242594   6.395   0.238   6.861 -0.0066  0.6064 -0.3191
 7060TIP3    H142595   6.471   0.220   6.917 -1.4132 -0.9954  1.1551
 7060TIP3    H242596   6.397   0.333   6.849  0.6187  0.9537  2.0608
 7061TIP3   OH242597   5.774   2.865  12.208 -0.2538  0.1952 -0.0409
 7061TIP3    H142598   5.850   2.823  12.248 -0.8747  0.1040  1.0818
 7061TIP3    H242599   5.749   2.933  12.270 -1.7469 -0.4843  0.1441
 7062TIP3   OH242600   2.672   6.283   3.202  0.2902 -0.0061  0.1859
 7062TIP3    H142601   2.655   6.361   3.149  1.7349 -0.7292 -1.4457
 7062TIP3    H242602   2.585   6.255   3.232 -0.6788  0.1846 -2.2029
 7063TIP3   OH242603   5.301   1.647  11.126  0.4092  0.3585  0.3034
 7063TIP3    H142604   5.395   1.658  11.108  0.3439  0.1859 -0.1354
 7063TIP3    H242605   5.291   1.554  11.146 -0.0970 -0.1946 -2.2497
 7064TIP3   OH242606   0.649   1.563  13.298 -0.4706 -0.0063 -0.0653
 7064TIP3    H142607   0.728   1.509  13.289 -1.7498 -1.7916 -1.3796
 7064TIP3    H242608   0.588   1.507  13.347 -0.8539  1.4838  1.2535
 7065TIP3   OH242609   2.637   6.214  16.154 -0.4957 -0.2858 -0.6406
 7065TIP3    H142610   2.608   6.160  16.227 -0.9020  1.4325  0.5423
 7065TIP3    H242611   2.592   6.298  16.167  0.4566  0.5059 -2.1225
 7066TIP3   OH242612   1.937   0.757  13.262 -0.0260  0.2625  0.2660
 7066TIP3    H142613   1.976   0.819  13.323 -0.6515  0.2190  0.7123
 7066TIP3    H242614   1.933   0.804  13.179 -1.0660  1.0448  0.7453
 7067TIP3   OH242615   6.610   0.955   4.101  0.1144 -0.3719  0.2712
 7067TIP3    H142616   6.565   0.953   4.186 -0.7904 -1.4180 -0.2165
 7067TIP3    H242617   6.566   0.888   4.049 -1.6455  2.5003 -2.2181
 7068TIP3   OH242618   5.999   3.939  15.113 -0.3174 -0.3333  0.2269
 7068TIP3    H142619   5.959   4.005  15.170 -2.2091 -0.1478 -1.2045
 7068TIP3    H242620   6.022   3.986  15.033 -0.9164 -1.2095 -0.4895
 7069TIP3   OH242621   5.542   4.369   6.052  0.0328 -0.2657 -0.3343
 7069TIP3    H142622   5.601   4.299   6.023 -0.5807 -0.3575 -1.3845
 7069TIP3    H242623   5.455   4.329   6.049 -0.1902  0.1774  0.2436
 7070TIP3   OH242624   2.500   4.820  14.956 -0.2358  0.2100  0.1768
 7070TIP3    H142625   2.596   4.815  14.953 -0.1125  2.1808 -0.5378
 7070TIP3    H242626   2.481   4.866  15.038 -0.4090  2.0220 -0.8413
 7071TIP3   OH242627   5.124   3.563  15.125  0.0653 -0.2289 -0.1792
 7071TIP3    H142628   5.183   3.585  15.197 -0.9652 -3.3863  1.8698
 7071TIP3    H242629   5.048   3.619  15.138 -0.6393 -1.5739  2.1051
 7072TIP3   OH242630   4.456   6.216   2.103  0.4320  0.0487 -0.1882
 7072TIP3    H142631   4.470   6.208   2.009  0.9999  0.2515 -0.1242
 7072TIP3    H242632   4.521   6.279   2.132  1.4586 -1.3081  0.6189
 7073TIP3   OH242633   3.591   3.045   1.666  0.0809 -0.4490  0.3297
 7073TIP3    H142634   3.608   3.117   1.727 -0.2766 -0.1036  0.0277
 7073TIP3    H242635   3.599   3.084   1.579 -1.2286 -0.4898  0.1642
 7074TIP3   OH242636   0.679   1.586  11.209 -0.4197 -0.0611  0.0888
 7074TIP3    H142637   0.620   1.518  11.239  1.5000 -2.8104 -1.8333
 7074TIP3    H242638   0.766   1.545  11.210  0.9524  2.5614 -0.6308
 7075TIP3   OH242639   0.065   4.520  15.261  0.4282 -0.1234  0.0233
 7075TIP3    H142640   0.076   4.576  15.338  0.3390  0.6970 -0.5413
 7075TIP3    H242641   0.145   4.468  15.257  1.1532  0.9948 -0.2501
 7076TIP3   OH242642   0.091   4.552   6.367  0.1766  0.2454  0.3597
 7076TIP3    H142643   0.081   4.639   6.328  0.1262  0.2187  0.3116
 7076TIP3    H242644   0.185   4.537   6.369  0.1597 -0.0713 -0.4734
 7077TIP3   OH242645   1.045   0.040   5.038 -0.3415  0.0433 -0.0918
 7077TIP3    H142646   1.128   0.006   5.070  0.1050  1.3103  0.1330
 7077TIP3    H242647   0.998   0.067   5.117 -0.6935 -0.0630 -0.2627
 7078TIP3   OH242648   0.604   3.552   3.493 -0.2245 -0.5516 -0.4509
 7078TIP3    H142649   0.546   3.623   3.520 -0.9453 -1.6636  1.1217
 7078TIP3    H242650   0.574   3.528   3.406 -1.6491 -0.5835  0.0280
 7079TIP3   OH242651   5.737   0.353  14.439  0.3249  0.2506 -0.2604
 7079TIP3    H142652   5.737   0.375  14.532 -1.3130 -0.7345  0.0080
 7079TIP3    H242653   5.655   0.305  14.426  0.6791  0.1066 -2.1493
 7080TIP3   OH242654   5.186   6.382  15.394  0.2227  0.0547  0.2607
 7080TIP3    H142655   5.243   6.306  15.408  0.5763  0.4899  1.3119
 7080TIP3    H242656   5.132   6.386  15.473 -0.1135  0.6287  0.0065
 7081TIP3   OH242657   3.392   4.843   3.679 -0.2118  0.1717 -0.0417
 7081TIP3    H142658   3.332   4.899   3.630  0.4918  0.2347 -0.8443
 7081TIP3    H242659   3.478   4.858   3.639 -0.2716 -2.8043 -1.4767
 7082TIP3   OH242660   2.229   5.903  13.558 -0.1175 -0.1717  0.0973
 7082TIP3    H142661   2.227   5.989  13.600  0.1652  0.6859 -1.5277
 7082TIP3    H242662   2.260   5.844  13.626 -0.3770  0.9918  1.2820
 7083TIP3   OH242663   3.467   4.621   1.755 -0.4189 -0.3673 -0.2047
 7083TIP3    H142664   3.479   4.542   1.702  0.6694 -0.5772  0.3268
 7083TIP3    H242665   3.398   4.669   1.710 -0.8165 -1.4217 -0.7677
 7084TIP3   OH242666   4.003   1.406  17.043 -0.3431  0.1160 -0.0164
 7084TIP3    H142667   4.034   1.317  17.061 -0.6240 -0.0722 -0.4508
 7084TIP3    H242668   3.996   1.410  16.948  1.1929  1.1199 -0.1148
 7085TIP3   OH242669   1.617   5.328  15.680  0.5476  0.2439  0.1968
 7085TIP3    H142670   1.580   5.406  15.637  1.3475  0.2337 -0.5215
 7085TIP3    H242671   1.615   5.260  15.613  1.6689  0.1833  0.2094
 7086TIP3   OH242672   6.706   5.160   0.415  0.2329 -1.1149  0.4892
 7086TIP3    H142673   6.773   5.228   0.410  0.3928 -0.9500  3.3171
 7086TIP3    H242674   6.751   5.079   0.393  0.1319 -0.4873 -2.5215
 7087TIP3   OH242675   4.588   6.089   2.866 -0.7022 -0.7936 -0.6182
 7087TIP3    H142676   4.672   6.108   2.906 -0.6079 -1.3543 -0.5347
 7087TIP3    H242677   4.534   6.055   2.937 -0.0835 -3.1651 -1.1709
 7088TIP3   OH242678   1.178   3.376  11.225  0.1724 -0.0451 -0.2064
 7088TIP3    H142679   1.249   3.418  11.273  1.1227  1.8252 -3.0018
 7088TIP3    H242680   1.098   3.411  11.264  0.9023  1.5078 -0.0304
 7089TIP3   OH242681   0.461   1.626  14.430 -0.3660 -0.0117 -0.6333
 7089TIP3    H142682   0.536   1.594  14.381 -0.0178  1.5777 -1.1809
 7089TIP3    H242683   0.489   1.710  14.466 -1.6122  0.2270 -0.1646
 7090TIP3   OH242684   4.639   1.787  14.928 -0.2302 -0.2501  0.0646
 7090TIP3    H142685   4.603   1.874  14.911 -0.6002 -0.4580 -0.2356
 7090TIP3    H242686   4.615   1.769  15.019 -0.8893 -0.3829 -0.1297
 7091TIP3   OH242687   2.190   0.878   4.170 -0.3237  0.4794  0.3010
 7091TIP3    H142688   2.263   0.915   4.120 -0.0624  0.5787  0.7527
 7091TIP3    H242689   2.228   0.802   4.214 -1.0967 -0.9629 -1.4165
 7092TIP3   OH242690   3.150   6.744   1.782 -0.3553 -0.2467 -0.0202
 7092TIP3    H142691   3.177   6.826   1.741  2.5945 -1.0927  0.0315
 7092TIP3    H242692   3.058   6.758   1.805  0.2899  3.4339  0.9535
 7093TIP3   OH242693   2.276   0.656   2.811 -0.1730 -0.5750  0.0634
 7093TIP3    H142694   2.283   0.743   2.851 -0.4606 -0.0878 -0.9170
 7093TIP3    H242695   2.279   0.595   2.885  0.8933  0.2185  0.6949
 7094TIP3   OH242696   3.258   5.216  16.850 -0.6552 -0.1235  0.0550
 7094TIP3    H142697   3.212   5.135  16.829  0.0773 -0.8978  1.3434
 7094TIP3    H242698   3.313   5.234  16.774 -2.2322  0.2340 -1.0462
 7095TIP3   OH242699   5.127   3.292   4.313  0.3761  0.4563  0.6617
 7095TIP3    H142700   5.157   3.219   4.367 -0.6714  0.2012  0.9064
 7095TIP3    H242701   5.106   3.252   4.228  1.4079  0.7558  0.2414
 7096TIP3   OH242702   4.908   1.019  12.753 -0.5079 -0.4569 -0.4132
 7096TIP3    H142703   4.869   0.938  12.721  0.1105 -0.6556 -0.6939
 7096TIP3    H242704   4.887   1.084  12.686 -0.9861 -0.3879 -0.1991
 7097TIP3   OH242705   2.674   6.146  13.795  0.2945  0.0460  0.2245
 7097TIP3    H142706   2.587   6.105  13.800 -0.5526  1.6957 -0.2488
 7097TIP3    H242707   2.711   6.114  13.713  0.0087 -0.4241  0.2752
 7098TIP3   OH242708   5.845   1.701  16.942 -0.6280  0.2926  0.0566
 7098TIP3    H142709   5.870   1.618  16.904 -0.2708  0.7210 -0.6641
 7098TIP3    H242710   5.801   1.678  17.024 -1.6798 -0.6643 -0.7487
 7099TIP3   OH242711   3.819   3.621   1.007 -0.0082  0.3924  0.7281
 7099TIP3    H142712   3.912   3.633   0.989  0.0923  1.5610  1.8237
 7099TIP3    H242713   3.803   3.672   1.087 -1.3562 -0.6909  1.2040
 7100TIP3   OH242714   2.285   6.152   5.500  0.5022 -0.2873 -0.1529
 7100TIP3    H142715   2.334   6.129   5.579  0.4071 -0.0523 -0.0222
 7100TIP3    H242716   2.256   6.069   5.464 -0.2343 -0.3606  0.5613
 7101TIP3   OH242717   5.853   4.983  12.154 -0.5881  0.2792  0.9181
 7101TIP3    H142718   5.813   5.065  12.124 -1.6653 -0.7660 -0.7459
 7101TIP3    H242719   5.778   4.926  12.173 -0.0884 -1.7855 -2.3695
 7102TIP3   OH242720   6.569   1.348  13.566  0.2675  0.8057  0.2352
 7102TIP3    H142721   6.632   1.305  13.507 -0.0682  2.2685 -1.2564
 7102TIP3    H242722   6.623   1.401  13.624  0.4826  1.1814 -0.3016
 7103TIP3   OH242723   2.353   2.444  12.137 -0.7303  0.3699 -0.1135
 7103TIP3    H142724   2.303   2.516  12.177 -2.4323 -0.1976 -1.1116
 7103TIP3    H242725   2.318   2.365  12.180  1.0203  0.0808  0.8750
 7104TIP3   OH242726   0.225   0.522   5.478 -0.2022 -0.0006 -0.0289
 7104TIP3    H142727   0.139   0.539   5.516 -1.0112 -0.0633 -1.7536
 7104TIP3    H242728   0.262   0.609   5.461  0.1687  0.0282  0.8467
 7105TIP3   OH242729   5.751   5.560  13.831 -0.6682  0.7272 -0.3314
 7105TIP3    H142730   5.694   5.590  13.902 -2.6910 -0.7498 -1.2342
 7105TIP3    H242731   5.693   5.551  13.756  0.3543 -2.4151 -0.8993
 7106TIP3   OH242732   2.114   1.854  14.275 -0.2162 -0.4984 -0.0054
 7106TIP3    H142733   2.094   1.945  14.254 -0.9025 -0.5945  0.2048
 7106TIP3    H242734   2.074   1.840  14.361 -1.3641 -1.3902 -0.6521
 7107TIP3   OH242735   5.891   1.111  13.667  0.0353 -0.2906 -0.0751
 7107TIP3    H142736   5.941   1.065  13.734  1.0509  0.8081 -0.0415
 7107TIP3    H242737   5.933   1.197  13.661 -1.1073  0.2335 -0.9141
 7108TIP3   OH242738   4.852   1.030  11.037 -0.0698  0.0067  0.3063
 7108TIP3    H142739   4.947   1.039  11.028 -0.0687 -0.7599 -0.5555
 7108TIP3    H242740   4.816   1.098  10.980 -0.0420 -0.1364  0.1185
 7109TIP3   OH242741   4.973   5.911   1.375 -0.4728 -0.3149  0.1683
 7109TIP3    H142742   4.895   5.859   1.355 -0.6449  0.3854 -1.1215
 7109TIP3    H242743   5.010   5.932   1.289  0.2833  0.6389  0.7028
 7110TIP3   OH242744   3.910   5.714   3.655 -0.4428 -0.1636  0.0232
 7110TIP3    H142745   3.980   5.654   3.629  1.2146  1.5771  0.1932
 7110TIP3    H242746   3.886   5.758   3.573  1.2913  1.7948  0.4684
 7111TIP3   OH242747   6.449   3.007  11.653 -0.0524  0.7029 -0.0857
 7111TIP3    H142748   6.443   3.002  11.748 -0.1574  0.8623 -0.0817
 7111TIP3    H242749   6.458   3.101  11.635 -0.3715  0.7048 -0.2478
 7112TIP3   OH242750   0.208   4.338   2.269 -0.4857  0.0848 -0.4389
 7112TIP3    H142751   0.285   4.390   2.292  0.4735 -1.0925 -0.8751
 7112TIP3    H242752   0.189   4.361   2.178 -0.4905  0.1806 -0.4135
 7113TIP3   OH242753   4.836   4.265  12.603 -0.3008 -0.0362 -0.1255
 7113TIP3    H142754   4.765   4.226  12.653  0.4632 -1.5045 -0.1258
 7113TIP3    H242755   4.913   4.256  12.660  0.2816 -0.3407 -0.9391
 7114TIP3   OH242756   6.239   0.810   3.983 -0.0695  0.3784  0.1594
 7114TIP3    H142757   6.203   0.814   4.072  1.1240  1.9468  0.6205
 7114TIP3    H242758   6.330   0.783   3.995 -0.3702 -1.1191 -0.7669
 7115TIP3   OH242759   1.106   3.439  15.401 -0.1752 -0.1681  0.0902
 7115TIP3    H142760   1.043   3.510  15.413  0.0050  0.2793 -1.3605
 7115TIP3    H242761   1.184   3.482  15.365  1.1260 -0.6457  2.1724
 7116TIP3   OH242762   2.048   6.502  15.148 -0.0447 -0.0125  0.4472
 7116TIP3    H142763   2.076   6.461  15.067 -1.9389  0.1433 -0.3449
 7116TIP3    H242764   2.070   6.439  15.216 -0.4180 -1.1296 -0.4454
 7117TIP3   OH242765   3.811   2.122  13.688 -0.0026  0.0749  0.2952
 7117TIP3    H142766   3.736   2.170  13.723 -1.0338 -1.6124  0.5440
 7117TIP3    H242767   3.791   2.030  13.706  2.3418 -0.4153  0.7265
 7118TIP3   OH242768   6.366   6.391   6.088  0.0544  0.2327  0.5973
 7118TIP3    H142769   6.423   6.455   6.131 -0.1451  0.6344  0.2680
 7118TIP3    H242770   6.288   6.441   6.065  0.2075  0.0574 -0.3431
 7119TIP3   OH242771   2.225   4.913  14.110 -0.2684  0.0593  0.5655
 7119TIP3    H142772   2.202   4.904  14.017 -1.9384 -1.6665  1.0730
 7119TIP3    H242773   2.154   4.966  14.147  0.4414  0.8246  0.8842
 7120TIP3   OH242774   2.387   4.273   2.035  0.1999  0.3468 -0.4519
 7120TIP3    H142775   2.307   4.235   1.997  0.3282 -1.4249  0.8868
 7120TIP3    H242776   2.386   4.365   2.009 -1.0465 -0.1870 -2.4521
 7121TIP3   OH242777   4.055   1.206  16.489 -0.6641  0.7200  0.1012
 7121TIP3    H142778   4.083   1.188  16.579 -1.2822 -1.7617 -0.1518
 7121TIP3    H242779   4.105   1.284  16.465  1.5091 -0.0748  1.6911
 7122TIP3   OH242780   0.812   0.954   1.036 -0.0600 -0.5024  0.0278
 7122TIP3    H142781   0.864   0.976   1.114  0.1337 -1.9646  0.3562
 7122TIP3    H242782   0.721   0.964   1.064 -0.0010 -1.4318  0.6011
 7123TIP3   OH242783   4.983   1.464   2.623 -0.3128 -0.3577 -0.1119
 7123TIP3    H142784   5.030   1.527   2.568 -0.3783 -0.8517 -0.7420
 7123TIP3    H242785   4.902   1.445   2.575 -0.0961 -1.2424 -0.1478
 7124TIP3   OH242786   3.749   6.490  15.881 -0.1627  0.1511  0.3598
 7124TIP3    H142787   3.740   6.548  15.804  3.0218  0.1664 -0.1077
 7124TIP3    H242788   3.760   6.403  15.844 -2.2865 -0.4454  0.9967
 7125TIP3   OH242789   0.198   3.033  10.404 -0.1075 -0.3008 -0.6386
 7125TIP3    H142790   0.281   3.041  10.452 -0.0237 -0.2730 -0.7887
 7125TIP3    H242791   0.133   3.074  10.462  0.0828  0.2027 -0.7723
 7126TIP3   OH242792   4.231   0.212  15.725 -0.0680 -0.2847  0.4671
 7126TIP3    H142793   4.283   0.244  15.800 -1.5191  4.9376 -0.3270
 7126TIP3    H242794   4.143   0.201  15.761  0.2706 -3.3219  0.5591
 7127TIP3   OH242795   3.897   3.248   3.702  0.2970 -0.0667 -0.4717
 7127TIP3    H142796   3.859   3.321   3.653  0.5216 -0.2082 -0.8628
 7127TIP3    H242797   3.978   3.226   3.655 -0.5159 -1.5529 -1.2717
 7128TIP3   OH242798   6.466   1.652   2.201 -0.4528 -0.5371 -0.3908
 7128TIP3    H142799   6.544   1.602   2.178 -1.5894 -2.7661  0.2920
 7128TIP3    H242800   6.494   1.743   2.196  1.5435 -1.1729 -2.3695
 7129TIP3   OH242801   0.116   3.923   0.282 -0.1655  0.3769 -0.3698
 7129TIP3    H142802   0.094   4.015   0.267  1.4204  0.6496 -1.1712
 7129TIP3    H242803   0.127   3.887   0.194 -1.1253 -0.6886 -0.0711
 7130TIP3   OH242804   5.268   2.757  11.568 -0.0033  0.6787 -0.6065
 7130TIP3    H142805   5.241   2.675  11.526 -1.4875  0.9700 -0.2797
 7130TIP3    H242806   5.202   2.771  11.637  1.4926  0.9981  0.8153
 7131TIP3   OH242807   6.005   0.925  15.708 -0.0510  0.2654 -0.6485
 7131TIP3    H142808   6.091   0.884  15.698  0.2404  0.9373 -0.9158
 7131TIP3    H242809   6.018   1.016  15.683 -0.9480  0.2689 -1.1495
 7132TIP3   OH242810   0.199   1.887   0.869  0.0186 -0.2042 -0.0728
 7132TIP3    H142811   0.194   1.869   0.775  0.1074 -1.0834  0.0774
 7132TIP3    H242812   0.123   1.841   0.905 -0.2740  0.5122  0.2352
 7133TIP3   OH242813   4.404   6.252   4.269  0.5901 -0.5042  0.1026
 7133TIP3    H142814   4.393   6.334   4.316  0.5117  0.0144 -0.7949
 7133TIP3    H242815   4.475   6.269   4.206  1.9915 -1.7396  1.2436
 7134TIP3   OH242816   2.502   1.924  12.642  0.0139  0.0080 -0.4992
 7134TIP3    H142817   2.561   1.864  12.596  0.2020 -1.9263  2.0317
 7134TIP3    H242818   2.560   1.992  12.677  0.2990 -0.1757 -0.6129
 7135TIP3   OH242819   5.447   0.318   2.705  0.3706 -0.6694 -0.1542
 7135TIP3    H142820   5.426   0.273   2.623 -0.9786  2.2953 -1.5763
 7135TIP3    H242821   5.373   0.377   2.721  1.7981  0.7508  1.7739
 7136TIP3   OH242822   3.477   3.623   1.302 -0.1180  0.2195 -0.2372
 7136TIP3    H142823   3.528   3.545   1.279  2.6341  1.6917  0.4402
 7136TIP3    H242824   3.415   3.592   1.367 -0.4609 -1.7638 -1.4177
 7137TIP3   OH242825   5.432   3.486   1.222  0.2865 -0.0319 -0.1589
 7137TIP3    H142826   5.495   3.554   1.245  0.2936 -0.2310  0.4238
 7137TIP3    H242827   5.391   3.461   1.305  0.0458 -0.5056 -0.4106
 7138TIP3   OH242828   0.381   5.323  12.585  0.1482 -0.2345  0.2439
 7138TIP3    H142829   0.307   5.286  12.538  1.0162 -0.4953 -0.9662
 7138TIP3    H242830   0.427   5.375  12.519  0.4537  0.8041  1.2455
 7139TIP3   OH242831   3.202   2.568   0.528 -0.3500 -0.6216 -0.2191
 7139TIP3    H142832   3.167   2.596   0.613  0.4443 -2.5934  0.8321
 7139TIP3    H242833   3.149   2.493   0.504  0.8533 -1.4590 -0.3374
 7140TIP3   OH242834   6.086   2.308  12.548 -0.1027  0.0505  0.6275
 7140TIP3    H142835   6.030   2.367  12.498 -1.0599 -0.4643  1.0648
 7140TIP3    H242836   6.176   2.333  12.524 -0.5221 -0.0736 -1.2114
 7141TIP3   OH242837   1.907   1.584  11.560 -0.4839 -0.0127 -0.1751
 7141TIP3    H142838   1.896   1.667  11.514  0.1133 -0.4522 -1.1453
 7141TIP3    H242839   1.987   1.546  11.523 -0.3350 -0.6795  0.7844
 7142TIP3   OH242840   4.080   1.953  12.146 -0.1431  0.1257  0.3187
 7142TIP3    H142841   4.001   1.966  12.198 -0.4661  0.4572 -0.2401
 7142TIP3    H242842   4.073   1.863  12.114 -0.3144  0.1684  0.2360
 7143TIP3   OH242843   1.065   4.740  16.817 -0.2553 -0.1972  0.0953
 7143TIP3    H142844   1.051   4.696  16.734 -1.7155 -0.6439  0.5453
 7143TIP3    H242845   1.143   4.698  16.854 -1.0631 -1.7972  0.0837
 7144TIP3   OH242846   2.859   2.388  11.732  0.1404 -0.2801  1.0370
 7144TIP3    H142847   2.931   2.425  11.681 -0.8215  0.9722  0.5294
 7144TIP3    H242848   2.849   2.299  11.699 -0.4392  0.4920 -0.9695
 7145TIP3   OH242849   4.097   0.251  14.865  0.2650 -0.4669  0.0795
 7145TIP3    H142850   4.037   0.305  14.917 -2.5227 -2.3942 -0.8912
 7145TIP3    H242851   4.160   0.218  14.929  0.9848  2.3659  0.9909
 7146TIP3   OH242852   2.607   4.839  14.313  0.1840  0.8992  0.2056
 7146TIP3    H142853   2.517   4.827  14.284 -0.0732  1.3056  0.8079
 7146TIP3    H242854   2.601   4.906  14.381  0.8208  0.3132  0.8542
 7147TIP3   OH242855   4.424   0.748   2.773 -0.4827  0.3548  0.2111
 7147TIP3    H142856   4.424   0.660   2.811 -0.6631  0.1050 -0.3608
 7147TIP3    H242857   4.341   0.753   2.726  0.0084  0.4361 -0.6600
 7148TIP3   OH242858   1.535   4.584   5.752 -0.0020 -0.3761  0.2877
 7148TIP3    H142859   1.569   4.568   5.841 -0.1718  0.0259  0.4254
 7148TIP3    H242860   1.531   4.497   5.712  2.4505 -0.3107 -0.2072
 7149TIP3   OH242861   0.817   6.222   3.794  0.1787 -0.8642 -0.2320
 7149TIP3    H142862   0.781   6.303   3.758 -0.4116 -0.9504  0.1366
 7149TIP3    H242863   0.747   6.158   3.781  0.4725 -1.2075 -0.1300
 7150TIP3   OH242864   1.370   3.071  13.236  0.0050 -0.1346 -0.2501
 7150TIP3    H142865   1.357   3.076  13.141 -1.5602 -0.2984 -0.0696
 7150TIP3    H242866   1.396   3.160  13.261  0.3680 -0.0759 -0.8253
 7151TIP3   OH242867   2.157   2.138  10.530  0.4042  0.7455 -0.2053
 7151TIP3    H142868   2.177   2.085  10.453 -0.9074 -0.6636  0.3756
 7151TIP3    H242869   2.235   2.192  10.543  0.7182  0.9207 -2.4081
 7152TIP3   OH242870   4.084   1.572  14.925  0.0681  0.4676 -0.0957
 7152TIP3    H142871   4.022   1.635  14.889 -2.8739 -1.8705  0.4741
 7152TIP3    H242872   4.068   1.492  14.875  1.5500 -0.6703  1.1510
 7153TIP3   OH242873   2.489   4.265  11.110 -0.2762  0.4049 -0.1595
 7153TIP3    H142874   2.413   4.224  11.153 -1.4665 -0.2182 -2.6670
 7153TIP3    H242875   2.453   4.304  11.030  2.0255  0.2171 -1.3610
 7154TIP3   OH242876   6.316   4.130  14.568  0.8095 -0.0473  0.3106
 7154TIP3    H142877   6.274   4.152  14.651 -0.1315 -1.8533  0.3565
 7154TIP3    H242878   6.243   4.112  14.508  1.4839 -0.2571 -0.4687
 7155TIP3   OH242879   6.325   6.549  11.743  0.1747 -0.2066  0.4923
 7155TIP3    H142880   6.357   6.636  11.764 -1.6518  0.9328 -1.1603
 7155TIP3    H242881   6.242   6.541  11.790  0.9084 -1.5986  1.6400
 7156TIP3   OH242882   5.526   3.049  14.681 -0.0034  0.6542 -0.0335
 7156TIP3    H142883   5.442   3.065  14.725  0.3604  0.4798  0.7429
 7156TIP3    H242884   5.502   3.023  14.592 -0.7790  0.3947  0.2445
 7157TIP3   OH242885   1.925   4.996   5.644 -0.1257 -0.2044 -0.1363
 7157TIP3    H142886   1.964   5.057   5.705  0.0298 -0.6404  0.2067
 7157TIP3    H242887   1.906   4.918   5.696 -0.8456 -0.2459 -0.4395
 7158TIP3   OH242888   1.962   1.169  12.684 -0.0385  0.4013  0.2666
 7158TIP3    H142889   1.919   1.191  12.766  1.4276 -0.4197  1.3046
 7158TIP3    H242890   2.002   1.252  12.656 -1.1845  0.8617 -0.0373
 7159TIP3   OH242891   6.767   0.760   0.479  0.0492 -0.8503  0.5011
 7159TIP3    H142892   6.810   0.834   0.435  0.4593 -0.5226  1.4100
 7159TIP3    H242893   6.837   0.722   0.533 -0.0991 -2.0559 -0.1436
 7160TIP3   OH242894   1.880   1.541  16.255  0.4079  0.0773  0.8060
 7160TIP3    H142895   1.957   1.500  16.214 -0.7548 -0.7340 -0.6763
 7160TIP3    H242896   1.863   1.619  16.201 -0.2888 -0.2099  0.5956
 7161TIP3   OH242897   4.434   5.689   3.228 -0.3390 -0.4389 -0.2712
 7161TIP3    H142898   4.412   5.706   3.136 -0.7247  0.2177 -0.0630
 7161TIP3    H242899   4.393   5.761   3.276  1.4643  0.3012  0.2247
 7162TIP3   OH242900   1.840   1.028   5.318 -0.0300 -0.2380  0.0807
 7162TIP3    H142901   1.891   0.995   5.393  1.2075  1.6021  0.1057
 7162TIP3    H242902   1.904   1.041   5.249 -0.9174 -0.3630 -0.7910
 7163TIP3   OH242903   5.321   6.444   2.295 -0.5524 -0.4423 -0.3812
 7163TIP3    H142904   5.243   6.432   2.349 -0.4770  0.7728  0.0427
 7163TIP3    H242905   5.389   6.395   2.341 -0.8023 -0.5475 -0.1161
 7164TIP3   OH242906   3.454   1.288   3.168 -0.2391  0.5713  0.5377
 7164TIP3    H142907   3.454   1.362   3.107  1.8776  0.7927  0.7272
 7164TIP3    H242908   3.425   1.213   3.116  0.8301  0.8975 -0.5496
 7165TIP3   OH242909   0.607   4.254   2.345 -0.2112  0.1404 -0.0380
 7165TIP3    H142910   0.586   4.341   2.379 -0.1481  0.4754 -0.8332
 7165TIP3    H242911   0.633   4.204   2.422 -2.2844  0.1871  0.7804
 7166TIP3   OH242912   0.959   3.581   0.390 -0.5733  1.0668 -0.0041
 7166TIP3    H142913   1.040   3.594   0.341 -0.4414 -0.4176 -0.2301
 7166TIP3    H242914   0.935   3.669   0.420  0.7232  1.6346 -0.5346
 7167TIP3   OH242915   0.517   5.183   5.596  0.2507 -0.6478 -0.1158
 7167TIP3    H142916   0.596   5.222   5.634 -0.8779  2.7297 -0.8872
 7167TIP3    H242917   0.524   5.201   5.502 -1.5241 -0.0349 -0.1650
 7168TIP3   OH242918   2.201   6.362   1.458  0.1038 -0.6698 -0.5622
 7168TIP3    H142919   2.109   6.362   1.430  0.1841 -1.0494 -0.8380
 7168TIP3    H242920   2.244   6.422   1.398  0.1384 -0.9214 -0.7918
 7169TIP3   OH242921   4.835   1.366   0.202  0.8834 -0.2805  0.5497
 7169TIP3    H142922   4.930   1.353   0.191  0.9121 -0.3404  0.8825
 7169TIP3    H242923   4.797   1.280   0.185  0.7415  0.0857 -1.2601
 7170TIP3   OH242924   2.732   3.595   0.814  0.9895 -0.3844 -0.3948
 7170TIP3    H142925   2.794   3.549   0.870  1.4709  0.4319 -0.2364
 7170TIP3    H242926   2.760   3.574   0.725  2.2076  0.8517 -0.3437
 7171TIP3   OH242927   2.736   2.660   4.510  0.0328  0.4929  0.5148
 7171TIP3    H142928   2.719   2.754   4.502  1.3405  0.6125 -2.0330
 7171TIP3    H242929   2.649   2.619   4.504 -0.4595  1.4901  0.6090
 7172TIP3   OH242930   5.657   6.635  12.146 -0.1945 -0.1023  0.4148
 7172TIP3    H142931   5.594   6.694  12.104  1.2937  0.6830 -0.8160
 7172TIP3    H242932   5.694   6.686  12.217 -0.6160 -0.4136  0.8650
 7173TIP3   OH242933   5.387   1.644   2.668  0.0676  0.0215 -0.2484
 7173TIP3    H142934   5.348   1.558   2.683  0.2892 -0.1465 -0.6079
 7173TIP3    H242935   5.400   1.648   2.573 -3.1074  1.8117 -0.7430
 7174TIP3   OH242936   2.518   0.998  16.728 -0.0603 -0.0503 -0.2212
 7174TIP3    H142937   2.500   1.092  16.728 -0.6725 -0.1634  0.5107
 7174TIP3    H242938   2.596   0.988  16.783 -0.1987 -0.0153 -0.0224
 7175TIP3   OH242939   5.756   3.914  16.716  0.1883 -0.1979  0.0752
 7175TIP3    H142940   5.807   3.993  16.699 -0.5993 -0.0600 -1.9614
 7175TIP3    H242941   5.680   3.944  16.765  0.8670 -0.0343  1.0499
 7176TIP3   OH242942   2.291   6.143  16.420 -0.4466  0.0261  0.0678
 7176TIP3    H142943   2.224   6.111  16.481  0.6849  1.2107  2.0652
 7176TIP3    H242944   2.356   6.183  16.477  2.1671 -1.3727 -1.7491
 7177TIP3   OH242945   6.177   3.373  16.373  0.4072  0.0201 -0.6460
 7177TIP3    H142946   6.110   3.435  16.345 -0.6793 -0.2694  1.1535
 7177TIP3    H242947   6.136   3.323  16.445  1.8371 -1.5858 -0.8662
 7178TIP3   OH242948   0.657   6.499  13.913  0.4080 -0.4298 -0.2855
 7178TIP3    H142949   0.645   6.553  13.991 -0.4238 -1.7209  0.5295
 7178TIP3    H242950   0.701   6.420  13.946 -0.8475 -1.4295 -0.8924
 7179TIP3   OH242951   1.567   5.085   2.800  0.1036  0.2123 -0.5822
 7179TIP3    H142952   1.533   4.999   2.775  0.8961 -0.0517 -0.7728
 7179TIP3    H242953   1.661   5.072   2.808  0.3313  1.2531 -1.3950
 7180TIP3   OH242954   1.242   3.471  13.718  0.1324 -0.3370 -0.2180
 7180TIP3    H142955   1.276   3.437  13.801  2.4174  0.5130 -0.7249
 7180TIP3    H242956   1.268   3.407  13.653  0.5864  0.2094 -0.5888
 7181TIP3   OH242957   1.159   5.711   2.454 -0.0929  0.5588  0.1085
 7181TIP3    H142958   1.251   5.694   2.435 -0.0623  1.2282 -0.3656
 7181TIP3    H242959   1.136   5.785   2.399 -0.6321  1.0877  1.0169
 7182TIP3   OH242960   6.585   2.493  15.936  0.0534  0.0089  0.0412
 7182TIP3    H142961   6.601   2.587  15.928  0.3277  0.1201  1.5560
 7182TIP3    H242962   6.489   2.485  15.934 -0.0481  0.5278  1.4979
 7183TIP3   OH242963   0.110   0.292   3.066 -0.2088 -0.4366  0.2786
 7183TIP3    H142964   0.041   0.307   3.001  0.5032 -1.6972 -0.8089
 7183TIP3    H242965   0.189   0.328   3.026  0.0196 -0.1755  0.9575
 7184TIP3   OH242966   0.049   0.298   0.406 -0.2491  0.1079  0.0754
 7184TIP3    H142967   0.087   0.337   0.327 -0.5771  1.6561  0.6432
 7184TIP3    H242968  -0.043   0.323   0.403 -0.5920 -1.1018  0.2034
 7185TIP3   OH242969   4.524   4.589  11.369  0.1090  0.5312 -0.0463
 7185TIP3    H142970   4.494   4.604  11.459 -0.2194 -3.3245  0.6850
 7185TIP3    H242971   4.480   4.656  11.317 -1.7383  1.3089  2.3591
 7186TIP3   OH242972   2.297   1.900  10.823 -0.3323  0.3826  0.1680
 7186TIP3    H142973   2.265   1.836  10.886  0.8296 -1.0710 -0.6768
 7186TIP3    H242974   2.392   1.900  10.833 -0.1662  0.5442 -1.1819
 7187TIP3   OH242975   2.916   3.981  16.132 -0.7203 -0.0094 -0.0925
 7187TIP3    H142976   2.953   3.914  16.075  1.0050 -0.3307  1.3022
 7187TIP3    H242977   2.840   4.014  16.085  0.9200  0.1586 -2.8256
 7188TIP3   OH242978   0.776   1.814  11.678  0.2632 -0.9505  0.1081
 7188TIP3    H142979   0.728   1.774  11.751 -0.8982  0.4993  0.1918
 7188TIP3    H242980   0.708   1.838  11.615  0.8934  0.7452  0.0191
 7189TIP3   OH242981   0.157   0.776   5.147  0.0450 -0.1608 -0.1751
 7189TIP3    H142982   0.211   0.819   5.213 -0.8113 -0.9219  1.0759
 7189TIP3    H242983   0.124   0.697   5.190 -0.2017 -0.9226 -1.6700
 7190TIP3   OH242984   2.560   1.878  11.268  0.0223  0.1739 -0.8979
 7190TIP3    H142985   2.544   1.877  11.363 -0.5532 -0.7233 -0.9979
 7190TIP3    H242986   2.607   1.960  11.253 -1.4212  1.2157 -0.0693
 7191TIP3   OH242987   1.508   5.146  11.194 -0.2409  0.0018 -0.0091
 7191TIP3    H142988   1.578   5.211  11.192  0.4475 -0.7313  0.0405
 7191TIP3    H242989   1.454   5.167  11.117 -1.6906  2.3984  1.5384
 7192TIP3   OH242990   0.586   4.040  11.081  0.2251 -0.0626  0.1691
 7192TIP3    H142991   0.622   4.119  11.040  3.4600 -1.5790 -0.2431
 7192TIP3    H242992   0.589   3.975  11.011  2.2501 -1.7189  1.6610
 7193TIP3   OH242993   4.570   4.747  17.288  0.4330 -0.2729  0.7826
 7193TIP3    H142994   4.601   4.660  17.315  3.5084  0.2230 -0.6084
 7193TIP3    H242995   4.500   4.729  17.225  3.1697 -2.0955 -2.0968
 7194TIP3   OH242996   2.696   0.342  11.925  0.5246  0.4348 -0.0535
 7194TIP3    H142997   2.679   0.432  11.951 -2.0139  0.8316 -2.5859
 7194TIP3    H242998   2.629   0.323  11.859  1.6324 -2.9642 -0.3903
 7195TIP3   OH242999   6.420   1.587   3.793  0.2525 -0.5486  0.0342
 7195TIP3    H143000   6.364   1.598   3.716  2.6786 -0.5056 -1.8625
 7195TIP3    H243001   6.458   1.674   3.807 -1.2848 -0.1649  2.3129
 7196TIP3   OH243002   5.317   0.708   1.217  0.3312  0.8620 -0.2694
 7196TIP3    H143003   5.225   0.680   1.209  0.4381  0.3717  0.1440
 7196TIP3    H243004   5.334   0.757   1.137  0.4341 -1.1706 -1.5670
 7197TIP3   OH243005   0.515   1.434  11.386  0.1474  0.3771 -0.4972
 7197TIP3    H143006   0.435   1.381  11.387  0.6849 -0.4474 -0.1920
 7197TIP3    H243007   0.502   1.499  11.455  0.7235 -1.2720  1.2503
 7198TIP3   OH243008   5.288   0.753   5.572  0.1892  0.2332  0.9618
 7198TIP3    H143009   5.352   0.787   5.635 -0.3859  0.6886  1.2993
 7198TIP3    H243010   5.335   0.683   5.527  1.2948  1.2648  0.4573
 7199TIP3   OH243011   2.553   0.392  10.911  0.1953  0.2752 -0.2067
 7199TIP3    H143012   2.504   0.472  10.924  0.0422  0.2395 -0.5712
 7199TIP3    H243013   2.527   0.360  10.825 -0.8863 -0.9675  0.5411
 7200TIP3   OH243014   2.044   4.888   5.415 -0.1784  0.5032  0.0190
 7200TIP3    H143015   2.089   4.820   5.463  0.5940  0.1626 -1.1393
 7200TIP3    H243016   1.998   4.939   5.482  2.3163  1.1817  1.3245
 7201TIP3   OH243017   0.512   3.310   5.037 -0.3104  0.2630  0.4907
 7201TIP3    H143018   0.469   3.260   4.968 -0.0030  1.0596 -0.2885
 7201TIP3    H243019   0.459   3.293   5.115 -0.6221 -0.6989  0.0865
 7202TIP3   OH243020   1.077   5.656  13.634 -0.7355 -0.3858 -0.2461
 7202TIP3    H143021   1.148   5.644  13.571 -0.9615  1.3717 -0.8904
 7202TIP3    H243022   1.010   5.594  13.607 -0.2336 -0.6878 -0.8267
 7203TIP3   OH243023   3.056   3.585  12.786  0.5613 -0.4782 -0.1250
 7203TIP3    H143024   3.006   3.505  12.768 -2.2514  0.9148  0.8779
 7203TIP3    H243025   3.076   3.581  12.879  1.1180 -0.3589 -0.2338
 7204TIP3   OH243026   3.345   5.468  15.337  0.3859  0.0313 -0.2406
 7204TIP3    H143027   3.257   5.476  15.374  0.2983 -0.1633 -0.4003
 7204TIP3    H243028   3.346   5.380  15.299  1.0391 -0.4196  0.7770
 7205TIP3   OH243029   2.541   1.534   3.746 -0.1087 -0.0392 -0.3089
 7205TIP3    H143030   2.571   1.517   3.657 -1.7528  1.6056 -1.2567
 7205TIP3    H243031   2.565   1.456   3.796 -0.6764 -1.7563 -2.5986
 7206TIP3   OH243032   2.168   4.859  12.406  0.7313 -0.1518  0.2313
 7206TIP3    H143033   2.221   4.879  12.482  0.4553 -1.0542  0.6782
 7206TIP3    H243034   2.221   4.886  12.331  2.0309 -1.4512  0.6361
 7207TIP3   OH243035   2.002   0.207  13.633 -0.5658 -0.1225 -0.2335
 7207TIP3    H143036   2.010   0.288  13.684  0.5381  0.6829 -1.5807
 7207TIP3    H243037   2.051   0.142  13.683  0.4688  0.6407 -0.2191
 7208TIP3   OH243038   5.392   1.346   6.270 -0.2279  0.7997  0.1118
 7208TIP3    H143039   5.455   1.294   6.319  2.0145  2.5433 -0.7206
 7208TIP3    H243040   5.316   1.288   6.259 -0.1973 -0.2475  4.0170
 7209TIP3   OH243041   4.353   3.506   5.867  0.1686  0.2582 -0.3066
 7209TIP3    H143042   4.304   3.467   5.940 -0.7454  1.0544 -0.4713
 7209TIP3    H243043   4.444   3.508   5.897 -0.0928 -0.0663  0.5313
 7210TIP3   OH243044   1.387   1.822   3.939 -0.1161  0.4963  0.0419
 7210TIP3    H143045   1.313   1.805   3.998  0.0081  1.6252  0.5468
 7210TIP3    H243046   1.347   1.826   3.852 -0.4594 -0.1179  0.1595
 7211TIP3   OH243047   3.052   2.318   3.794  0.4364  0.0886 -0.6753
 7211TIP3    H143048   3.043   2.368   3.713  3.3014 -0.0796 -1.2162
 7211TIP3    H243049   3.050   2.384   3.864 -0.1869  0.4355 -1.0145
 7212TIP3   OH243050   3.464   2.075  12.061 -0.0291  0.5029  0.4422
 7212TIP3    H143051   3.415   2.080  11.979  0.8511 -0.8335 -0.1935
 7212TIP3    H243052   3.397   2.084  12.129 -0.9026  0.5984 -0.4093
 7213TIP3   OH243053   2.312   2.823   2.245 -0.5873 -0.5503 -0.4766
 7213TIP3    H143054   2.237   2.883   2.249  0.1538  0.3820 -0.1982
 7213TIP3    H243055   2.381   2.875   2.204  0.5470 -0.6805  1.1922
 7214TIP3   OH243056   3.656   0.291   0.685 -0.5034  0.6999 -0.1422
 7214TIP3    H143057   3.631   0.379   0.715 -0.0512  0.9688 -0.5261
 7214TIP3    H243058   3.727   0.265   0.743  1.1239  1.6790 -1.5977
 7215TIP3   OH243059   0.577   5.766   5.140  0.4043 -0.2356  0.0897
 7215TIP3    H143060   0.574   5.814   5.223  1.8163  2.4266 -1.2816
 7215TIP3    H243061   0.505   5.703   5.146  0.5892 -0.3170  3.3832
 7216TIP3   OH243062   4.395   5.089   0.568  0.6113  0.4984 -0.0464
 7216TIP3    H143063   4.486   5.109   0.590  0.7719 -0.1301 -0.1144
 7216TIP3    H243064   4.395   5.079   0.473  0.2199  1.7022 -0.1932
 7217TIP3   OH243065   2.933   3.234   3.991  0.0603  0.4417 -0.1747
 7217TIP3    H143066   2.885   3.283   3.924 -0.8056  1.0385  0.8559
 7217TIP3    H243067   2.896   3.264   4.074  0.0969 -1.3407  0.5218
 7218TIP3   OH243068   5.409   5.094  15.518  0.5471 -0.3041 -0.3791
 7218TIP3    H143069   5.367   5.178  15.504  1.4302  0.5513  1.7273
 7218TIP3    H243070   5.373   5.037  15.449 -2.9430  0.7137  0.4401
 7219TIP3   OH243071   3.666   0.936  10.488  0.2103  0.2116 -0.5189
 7219TIP3    H143072   3.661   1.028  10.462  0.8321  0.8829  1.5475
 7219TIP3    H243073   3.588   0.922  10.540  1.5751  0.4808  1.7070
 7220TIP3   OH243074   6.041   1.159   0.084  0.4208 -0.3690  0.3810
 7220TIP3    H143075   6.012   1.246   0.110 -0.2059 -0.3732 -0.2618
 7220TIP3    H243076   5.973   1.100   0.117 -0.1242 -0.4213 -0.7844
 7221TIP3   OH243077   6.590   1.833   3.469 -0.1091  0.8060 -0.2577
 7221TIP3    H143078   6.670   1.781   3.469  0.2294  1.2577  1.3547
 7221TIP3    H243079   6.606   1.901   3.404  1.6171  1.9805  1.2819
 7222TIP3   OH243080   0.104   6.321  14.530  0.0223 -0.3808  0.5267
 7222TIP3    H143081   0.046   6.307  14.455  1.3657 -0.0359 -0.6085
 7222TIP3    H243082   0.047   6.360  14.597 -1.0558 -0.0513 -0.5410
 7223TIP3   OH243083   2.491   6.517   4.693  0.1708 -0.6299  0.5524
 7223TIP3    H143084   2.499   6.466   4.773 -0.5420  0.5251  1.3969
 7223TIP3    H243085   2.439   6.462   4.634 -0.6065 -0.8771  1.4545
 7224TIP3   OH243086   6.331   2.426  16.627 -0.0379 -0.4287  0.7515
 7224TIP3    H143087   6.327   2.403  16.534  0.3670 -0.4702  0.7427
 7224TIP3    H243088   6.425   2.434  16.646 -0.1447  1.7360  0.6333
 7225TIP3   OH243089   6.556   0.614   1.148 -0.1326 -0.0904  0.0819
 7225TIP3    H143090   6.541   0.538   1.091  0.2776 -1.2413  1.4410
 7225TIP3    H243091   6.481   0.614   1.207 -0.0369  0.4617  0.2045
 7226TIP3   OH243092   0.633   3.784   0.783 -0.7240  0.0951 -0.0480
 7226TIP3    H143093   0.682   3.725   0.840 -1.3877 -0.2354  0.1978
 7226TIP3    H243094   0.616   3.861   0.838 -2.4010 -0.7149  0.6365
 7227TIP3   OH243095   1.494   1.895   0.376  0.7297 -0.6031 -0.3271
 7227TIP3    H143096   1.503   1.882   0.282 -0.7823  1.1881 -0.7719
 7227TIP3    H243097   1.463   1.985   0.386 -3.6412 -2.0409  1.5363
 7228TIP3   OH243098   1.672   3.954  16.543  0.0147  0.0110 -0.2122
 7228TIP3    H143099   1.762   3.939  16.516  0.1106  0.9438 -0.4271
 7228TIP3    H243100   1.633   4.004  16.472 -1.2095 -1.8957 -0.9884
 7229TIP3   OH243101   4.672   6.484   4.693  0.2321  0.3365 -0.0668
 7229TIP3    H143102   4.743   6.474   4.756  0.1762 -1.2463 -0.2200
 7229TIP3    H243103   4.611   6.414   4.714 -0.9548  1.2222 -0.4044
 7230TIP3   OH243104   5.675   0.506   5.776  0.0112  0.2365  0.4803
 7230TIP3    H143105   5.724   0.578   5.815  0.5838 -0.2347  0.6404
 7230TIP3    H243106   5.739   0.456   5.727 -0.4820  0.1288 -0.0654
 7231TIP3   OH243107   2.330   3.026   1.095 -0.1341 -0.6933 -0.0965
 7231TIP3    H143108   2.395   3.096   1.086 -0.2790 -0.6645 -1.0018
 7231TIP3    H243109   2.358   2.959   1.032 -0.2608 -1.2508  0.4326
 7232TIP3   OH243110   1.918   3.562  10.931 -0.3140 -0.4914 -0.3122
 7232TIP3    H143111   1.917   3.657  10.921 -0.3670 -0.3108  1.1164
 7232TIP3    H243112   1.972   3.530  10.859 -1.0114  0.5389 -1.3240
 7233TIP3   OH243113   6.763   5.321  14.286 -0.1832  0.3413  0.0684
 7233TIP3    H143114   6.712   5.388  14.241 -0.9131  0.2041  0.6710
 7233TIP3    H243115   6.716   5.239  14.270 -0.7755  0.3677  1.5065
 7234TIP3   OH243116   2.193   6.426  13.796 -0.1741  0.3197 -0.4977
 7234TIP3    H143117   2.150   6.429  13.881 -0.7992  0.3239 -0.8004
 7234TIP3    H243118   2.188   6.334  13.770 -2.9718  0.7510 -1.9590
 7235TIP3   OH243119   3.545   0.095  12.746 -0.8574  0.6083  0.4005
 7235TIP3    H143120   3.547   0.189  12.729 -0.6202  0.3007 -1.3895
 7235TIP3    H243121   3.451   0.075  12.752 -0.9713  0.6703 -0.9876
 7236TIP3   OH243122   5.397   6.150  15.412  0.3523  0.0778 -0.0584
 7236TIP3    H143123   5.420   6.121  15.324  1.4042 -0.3655  0.3484
 7236TIP3    H243124   5.400   6.071  15.466 -2.6792 -0.1329 -0.0269
 7237TIP3   OH243125   6.359   1.176   1.369  0.0697  1.0399 -0.2444
 7237TIP3    H143126   6.366   1.146   1.278 -0.1123  0.9162 -0.2163
 7237TIP3    H243127   6.267   1.196   1.381  0.1883  1.6300 -0.2698
 7238TIP3   OH243128   3.017   6.769  12.471 -0.5405  0.3910  0.5985
 7238TIP3    H143129   2.979   6.844  12.424 -0.7632 -0.3827 -0.4805
 7238TIP3    H243130   2.941   6.723  12.507 -0.5590 -0.4690 -0.5113
 7239TIP3   OH243131   0.641   5.199  14.021  0.2874  0.0218 -0.1774
 7239TIP3    H143132   0.688   5.157  14.093  1.7762  0.7355 -0.6745
 7239TIP3    H243133   0.549   5.184  14.039  0.6377  0.0361  1.7732
 7240TIP3   OH243134   4.816   6.036  10.194 -0.2403 -0.3345 -0.2128
 7240TIP3    H143135   4.804   6.128  10.173  1.1366 -0.0716  0.0502
 7240TIP3    H243136   4.840   6.035  10.287  0.7853 -0.8405 -0.4591
 7241TIP3   OH243137   3.072   2.957  17.112  1.0642 -0.0379 -0.0098
 7241TIP3    H143138   3.005   3.011  17.154 -0.3164 -0.8315 -1.1346
 7241TIP3    H243139   3.047   2.867  17.132  1.1043 -0.3883 -1.4297
 7242TIP3   OH243140   0.166   3.741  12.329 -0.0430 -0.3977  0.1145
 7242TIP3    H143141   0.250   3.785  12.339  0.2380 -0.3987 -1.7741
 7242TIP3    H243142   0.103   3.811  12.313  0.1636 -0.5413 -1.5043
 7243TIP3   OH243143   5.222   0.618  12.532 -0.0890  0.5054  0.5688
 7243TIP3    H143144   5.248   0.527  12.518 -2.9502 -0.3862  0.4244
 7243TIP3    H243145   5.251   0.663  12.453 -1.2664 -0.9541 -0.7671
 7244TIP3   OH243146   0.153   1.671   4.581  0.5959 -0.1422 -0.4982
 7244TIP3    H143147   0.059   1.688   4.569  0.2579  0.2326  2.1008
 7244TIP3    H243148   0.188   1.754   4.615  1.3851 -0.9173  0.6753
 7245TIP3   OH243149   0.735   5.873   4.593  0.5495  0.6366 -0.1039
 7245TIP3    H143150   0.671   5.809   4.624  0.6846  0.4037 -0.3078
 7245TIP3    H243151   0.819   5.828   4.596  0.1923 -0.6299 -4.0769
 7246TIP3   OH243152   3.417   2.264  11.123 -0.2899 -0.9014 -0.0384
 7246TIP3    H143153   3.420   2.196  11.190 -0.3605  0.0285  0.9438
 7246TIP3    H243154   3.410   2.346  11.173 -1.1368 -0.2340 -1.1944
 7247TIP3   OH243155   5.185   2.402   1.125 -0.0193 -0.6064 -0.4340
 7247TIP3    H143156   5.172   2.497   1.131  1.1622 -0.4104 -0.8044
 7247TIP3    H243157   5.145   2.377   1.042  0.2263 -0.3351 -0.6332
 7248TIP3   OH243158   1.843   1.383  16.627 -0.3250 -0.3007  0.0491
 7248TIP3    H143159   1.828   1.462  16.576 -1.7506 -1.0873 -0.8232
 7248TIP3    H243160   1.883   1.414  16.708 -0.4977  1.2648 -0.4327
 7249TIP3   OH243161   1.592   3.295   1.620 -0.2965 -0.2567 -0.1831
 7249TIP3    H143162   1.687   3.281   1.619  0.1448  2.3284 -0.5126
 7249TIP3    H243163   1.580   3.374   1.672 -2.2530 -0.3316 -0.4611
 7250TIP3   OH243164   2.683   1.589  14.486 -0.2901  0.3041 -0.6780
 7250TIP3    H143165   2.596   1.630  14.482 -1.0275 -0.8960  1.3412
 7250TIP3    H243166   2.731   1.641  14.550  0.0233  0.1565 -0.7900
 7251TIP3   OH243167   3.209   2.917   2.742 -0.0595 -0.1707 -0.1739
 7251TIP3    H143168   3.302   2.940   2.748 -0.5384  1.4966  1.5959
 7251TIP3    H243169   3.172   2.944   2.826 -1.7461 -2.8533  0.0657
 7252TIP3   OH243170   0.940   2.270  14.185  0.3430  0.3747  0.2484
 7252TIP3    H143171   0.878   2.326  14.232 -0.2699 -1.7165  2.0560
 7252TIP3    H243172   0.998   2.237  14.253 -0.3786 -2.5199 -0.4194
 7253TIP3   OH243173   0.024   0.886   0.909 -0.3037 -0.2438 -0.4357
 7253TIP3    H143174   0.082   0.962   0.913 -0.8843  0.2466 -1.1352
 7253TIP3    H243175  -0.038   0.898   0.981 -1.5485  0.9250 -1.6511
 7254TIP3   OH243176   0.000   5.349  11.838  0.1778  0.0020  0.0610
 7254TIP3    H143177   0.055   5.361  11.915 -1.6877  0.2661  1.4150
 7254TIP3    H243178   0.017   5.426  11.784  0.0520  0.8250  1.1626
 7255TIP3   OH243179   5.484   4.192   3.506  0.1293 -0.1881  0.1430
 7255TIP3    H143180   5.511   4.156   3.591  0.0390  0.1043  0.2970
 7255TIP3    H243181   5.477   4.116   3.449 -0.8341 -0.5150  0.6721
 7256TIP3   OH243182   3.584   4.037  15.739  0.7707  0.2070  0.2965
 7256TIP3    H143183   3.495   4.067  15.720  0.6692 -0.8342 -1.0015
 7256TIP3    H243184   3.640   4.102  15.698  0.5880  0.0350 -0.2307
 7257TIP3   OH243185   0.392   1.605  16.486 -0.0069 -0.0576 -0.6585
 7257TIP3    H143186   0.472   1.655  16.469 -0.7249  0.8008 -1.7007
 7257TIP3    H243187   0.419   1.513  16.481  0.9376  0.2184 -0.8183
 7258TIP3   OH243188   2.944   4.607  11.506 -0.6568  0.5526  0.0273
 7258TIP3    H143189   2.900   4.675  11.557  0.9518  1.8470 -0.2273
 7258TIP3    H243190   2.942   4.639  11.416  1.4410  1.0442  0.1118
 7259TIP3   OH243191   5.422   3.615  17.155  0.7062  0.2182 -0.6290
 7259TIP3    H143192   5.507   3.645  17.123  0.9057 -0.5516 -0.8511
 7259TIP3    H243193   5.368   3.693  17.158  1.1255  0.5482 -1.4494
 7260TIP3   OH243194   2.117   6.232   5.747 -0.0437 -0.2001  0.1170
 7260TIP3    H143195   2.044   6.292   5.764 -0.8987 -0.9452 -0.8077
 7260TIP3    H243196   2.121   6.226   5.651 -0.9331 -2.7241  0.1741
 7261TIP3   OH243197   2.293   3.021   3.955  1.2449  0.2966 -0.1139
 7261TIP3    H143198   2.314   2.941   4.002  1.6211  0.3058 -0.2580
 7261TIP3    H243199   2.218   2.999   3.900  0.2001  0.5457  1.1814
 7262TIP3   OH243200   5.440   5.466   4.440 -0.4025  0.0160  0.2403
 7262TIP3    H143201   5.353   5.493   4.410 -0.4747 -0.2513  0.2066
 7262TIP3    H243202   5.456   5.519   4.519 -0.6256  0.0141  0.2871
 7263TIP3   OH243203   6.561   5.735  17.272 -0.3535  0.5137  0.0652
 7263TIP3    H143204   6.516   5.653  17.252 -0.0668  0.5481 -0.7669
 7263TIP3    H243205   6.647   5.727  17.229 -0.1081  1.0149  0.4495
 7264TIP3   OH243206   3.397   6.547  12.266  0.4770 -0.3834 -0.4519
 7264TIP3    H143207   3.487   6.552  12.300  1.1280  0.1454 -2.1260
 7264TIP3    H243208   3.342   6.565  12.342  1.8224  0.2318  0.4302
 7265TIP3   OH243209   1.703   3.497  12.397  0.0950 -0.7261 -0.3028
 7265TIP3    H143210   1.656   3.557  12.337 -1.1948 -0.5673  0.8163
 7265TIP3    H243211   1.657   3.414  12.387  0.1841 -0.8245  0.1221
 7266TIP3   OH243212   0.441   2.201  17.295 -0.0226 -0.1014 -0.6144
 7266TIP3    H143213   0.446   2.279  17.350 -0.4676  0.4452 -1.3343
 7266TIP3    H243214   0.368   2.218  17.236  1.7241  0.2651 -2.8092
 7267TIP3   OH243215   2.243   6.168  12.968  0.3342 -0.1911  0.3790
 7267TIP3    H143216   2.338   6.172  12.972  0.4866  3.4947 -2.2385
 7267TIP3    H243217   2.214   6.213  13.048  0.8202 -0.2339  0.5839
 7268TIP3   OH243218   5.761   2.760  15.207 -0.5378 -0.3881 -0.4806
 7268TIP3    H143219   5.729   2.727  15.291  1.2798 -0.8062  0.0806
 7268TIP3    H243220   5.682   2.792  15.163 -1.6518 -0.9463  1.0147
 7269TIP3   OH243221   5.664   1.737  15.888 -0.4137 -0.3136  0.4036
 7269TIP3    H143222   5.680   1.693  15.971  0.6493 -0.5703  0.0796
 7269TIP3    H243223   5.637   1.825  15.912 -1.7448 -0.8661  1.0453
 7270TIP3   OH243224   2.553   1.177   3.489  0.0105  0.5367  0.2201
 7270TIP3    H143225   2.537   1.253   3.433 -2.2800  0.1047  0.1884
 7270TIP3    H243226   2.520   1.203   3.575  0.7868  0.1436  0.6563
 7271TIP3   OH243227   1.255   1.824  14.084  0.8381  0.2115 -0.1546
 7271TIP3    H143228   1.281   1.741  14.124  2.2713 -0.0814 -1.5889
 7271TIP3    H243229   1.279   1.814  13.991 -2.3370  0.8295 -1.1850
 7272TIP3   OH243230   1.817   2.007  16.637 -0.1977 -0.1487 -0.1552
 7272TIP3    H143231   1.755   1.968  16.699 -0.5181  0.4885 -0.0677
 7272TIP3    H243232   1.876   1.935  16.614 -1.6039 -1.0566 -1.0699
 7273TIP3   OH243233   5.805   2.284   3.313  0.0708  0.0392 -0.0555
 7273TIP3    H143234   5.783   2.333   3.234  0.6697  1.1300  0.4457
 7273TIP3    H243235   5.861   2.212   3.282 -1.3746 -0.7877 -0.8827
 7274TIP3   OH243236   2.360   2.428  16.133 -0.0105 -0.0367 -0.2544
 7274TIP3    H143237   2.450   2.453  16.151 -0.6085  1.1142  1.3068
 7274TIP3    H243238   2.317   2.509  16.105 -0.6880 -0.4706 -0.5075
 7275TIP3   OH243239   4.939   3.233  12.344  0.0584  0.0907 -0.1790
 7275TIP3    H143240   4.875   3.202  12.408 -0.7213  0.7615 -0.6193
 7275TIP3    H243241   4.913   3.190  12.262  0.7935 -0.4306 -0.1429
 7276TIP3   OH243242   6.194   1.659  13.696 -0.2260  0.4021 -0.4074
 7276TIP3    H143243   6.252   1.726  13.732  0.1846 -0.8698  1.4401
 7276TIP3    H243244   6.113   1.668  13.746 -0.0897 -0.5814  0.0263
 7277TIP3   OH243245   4.209   5.502   4.300  0.1962  0.0765 -0.3144
 7277TIP3    H143246   4.181   5.433   4.240 -0.9758 -0.0174  0.3211
 7277TIP3    H243247   4.158   5.579   4.275  1.1594  0.6064 -0.7180
 7278TIP3   OH243248   3.156   2.912   3.942  0.2004 -0.1172 -0.3172
 7278TIP3    H143249   3.068   2.904   3.906 -0.7478 -0.1858  1.8372
 7278TIP3    H243250   3.168   3.007   3.953 -1.5634 -0.1387  3.5421
 7279TIP3   OH243251   5.553   6.270  11.620 -0.4008 -0.1985 -0.0654
 7279TIP3    H143252   5.588   6.244  11.535  0.4462  0.4494  0.0748
 7279TIP3    H243253   5.537   6.187  11.666  0.1642 -0.5292 -0.4512
 7280TIP3   OH243254   4.083   0.617   1.943  0.3174 -0.2553 -0.6818
 7280TIP3    H143255   4.073   0.546   1.880 -1.1419 -0.4515 -0.2768
 7280TIP3    H243256   4.001   0.666   1.937  0.8155  0.6811 -0.0885
 7281TIP3   OH243257   1.628   5.674  15.715  0.1059  0.3838 -0.4577
 7281TIP3    H143258   1.564   5.605  15.728  1.3762 -1.0516 -1.3756
 7281TIP3    H243259   1.691   5.637  15.652  1.1981  2.1335 -0.4831
 7282TIP3   OH243260   5.356   1.769  10.648  0.0390 -0.5188  0.0353
 7282TIP3    H143261   5.367   1.725  10.564  0.3044 -0.6560  0.1401
 7282TIP3    H243262   5.318   1.854  10.626 -0.0653 -0.6264 -0.2060
 7283TIP3   OH243263   6.220   3.882  13.899 -0.8927  0.0230 -0.8544
 7283TIP3    H143264   6.211   3.977  13.885 -2.5675  0.0420  0.1126
 7283TIP3    H243265   6.188   3.843  13.818  1.2965  0.2455 -1.9096
 7284TIP3   OH243266   3.241   5.600  16.574  0.1162 -0.4715  0.3856
 7284TIP3    H143267   3.147   5.613  16.580  0.2327  0.0942  1.0590
 7284TIP3    H243268   3.274   5.678  16.529  0.0899 -1.4062 -1.3301
 7285TIP3   OH243269   3.258   5.226  16.559  0.1779 -0.4821  0.1563
 7285TIP3    H143270   3.338   5.256  16.602 -0.5600 -0.8604  1.8701
 7285TIP3    H243271   3.282   5.142  16.521  0.5689 -0.6680  0.7954
 7286TIP3   OH243272   2.109   6.340   1.042  0.6553 -0.4230 -0.4234
 7286TIP3    H143273   2.189   6.297   1.013  1.0329 -0.5790  0.7709
 7286TIP3    H243274   2.110   6.425   0.997  1.3916 -0.5067 -0.5850
 7287TIP3   OH243275   2.708   0.779   1.430  0.1703  0.5935  0.1234
 7287TIP3    H143276   2.645   0.718   1.468 -0.3362 -0.3297 -2.0479
 7287TIP3    H243277   2.713   0.851   1.493 -1.9397  0.0002  1.0538
 7288TIP3   OH243278   1.404   3.882  14.428 -0.0699 -0.5995  0.3383
 7288TIP3    H143279   1.462   3.957  14.414 -0.8485 -0.3979 -2.5068
 7288TIP3    H243280   1.346   3.910  14.498 -0.6556  1.7357 -0.9736
 7289TIP3   OH243281   1.946   1.346   2.899  0.1285  0.1843 -0.0621
 7289TIP3    H143282   1.875   1.385   2.850  0.9265  0.4556 -1.0417
 7289TIP3    H243283   2.001   1.420   2.927 -0.7564  0.1279  2.0403
 7290TIP3   OH243284   4.830   1.101   2.583  0.3115  0.0350  0.2772
 7290TIP3    H143285   4.869   1.015   2.596 -0.1894 -0.1423  0.6442
 7290TIP3    H243286   4.856   1.151   2.660  1.4995  0.5683 -0.4332
 7291TIP3   OH243287   5.673   5.462   1.820 -0.1765 -0.4211 -0.0045
 7291TIP3    H143288   5.668   5.509   1.737 -0.1580 -1.0614 -0.3801
 7291TIP3    H243289   5.606   5.393   1.812 -1.0307  0.2554  0.9975
 7292TIP3   OH243290   4.865   3.970  11.012  0.4625 -0.2778  0.2103
 7292TIP3    H143291   4.818   3.922  10.944  1.2641 -1.7172  0.6269
 7292TIP3    H243292   4.851   4.063  10.991  0.9729 -0.6827 -2.1089
 7293TIP3   OH243293   3.998   4.297   2.511 -0.2782  0.2998  0.2524
 7293TIP3    H143294   3.947   4.378   2.500 -0.8919  0.0596  1.1877
 7293TIP3    H243295   4.003   4.285   2.606  1.5566  0.3134  0.1849
 7294TIP3   OH243296   0.943   3.545   1.137 -0.7748 -0.6956 -0.0762
 7294TIP3    H143297   0.874   3.537   1.072 -0.8435  0.7849 -0.2310
 7294TIP3    H243298   1.016   3.495   1.101 -1.1913 -0.8483 -0.7285
 7295TIP3   OH243299   6.621   5.411   0.198  0.1803  0.3850 -0.5775
 7295TIP3    H143300   6.645   5.332   0.248  0.7388  0.3777 -0.8540
 7295TIP3    H243301   6.574   5.465   0.261  0.9661  0.4181 -0.0016
 7296TIP3   OH243302   6.082   1.445   0.008 -0.1409 -0.2984  1.1933
 7296TIP3    H143303   6.176   1.460  -0.000 -0.3595  0.5470 -0.0422
 7296TIP3    H243304   6.056   1.411  -0.078 -1.2956  1.4795  0.7884
 7297TIP3   OH243305   4.297   5.818  11.354  0.3591 -0.3466  0.2695
 7297TIP3    H143306   4.367   5.849  11.411  0.3809  0.0011  0.0594
 7297TIP3    H243307   4.243   5.896  11.339  0.6085 -0.3211 -0.5483
 7298TIP3   OH243308   5.452   6.089   5.578 -0.6938 -0.0682  0.4422
 7298TIP3    H143309   5.523   6.150   5.558 -1.9602  1.1007 -0.6970
 7298TIP3    H243310   5.452   6.083   5.674  2.2441 -1.7780  0.4616
 7299TIP3   OH243311   6.588   5.509   4.579  0.2079  0.0252 -0.1209
 7299TIP3    H143312   6.605   5.471   4.493 -2.9041 -2.2949  0.1358
 7299TIP3    H243313   6.578   5.603   4.562  1.3484 -0.1246 -1.9291
 7300TIP3   OH243314   2.128   2.829   1.172  0.1054  0.1548 -0.0047
 7300TIP3    H143315   2.107   2.759   1.111  0.1872 -0.0491  0.1960
 7300TIP3    H243316   2.209   2.867   1.138 -0.6080  0.9942 -0.8224
 7301TIP3   OH243317   0.780   0.019  17.113 -0.8260  0.4114 -0.4070
 7301TIP3    H143318   0.728   0.096  17.135 -0.2836  0.4434  0.9199
 7301TIP3    H243319   0.811   0.035  17.024 -0.0984  2.1072  0.1075
 7302TIP3   OH243320   6.312   6.253  12.308 -0.4625 -0.2153  0.0437
 7302TIP3    H143321   6.299   6.261  12.403 -0.2655 -0.5625  0.1031
 7302TIP3    H243322   6.269   6.171  12.285 -0.3111 -0.2470 -0.1271
 7303TIP3   OH243323   3.118   6.229   5.156 -0.7720  0.7689 -0.1463
 7303TIP3    H143324   3.169   6.210   5.077 -0.6014 -0.9548  0.3185
 7303TIP3    H243325   3.175   6.202   5.228 -2.1850 -1.0150  0.4037
 7304TIP3   OH243326   0.394   6.008  15.970  0.0853  0.2707 -0.3885
 7304TIP3    H143327   0.315   6.060  15.957 -0.5261 -0.4382  0.3705
 7304TIP3    H243328   0.466   6.067  15.948 -0.6964  0.1754 -3.6761
 7305TIP3   OH243329   6.367   3.100   1.219  0.1964  0.0327 -0.5327
 7305TIP3    H143330   6.390   3.097   1.126 -1.5343 -1.1223 -0.9768
 7305TIP3    H243331   6.420   3.030   1.259  1.1993  0.7575 -0.5519
 7306TIP3   OH243332   4.892   2.912  14.155 -0.1101 -0.4099  0.3412
 7306TIP3    H143333   4.851   2.825  14.155 -1.5509  0.2260  1.1640
 7306TIP3    H243334   4.830   2.967  14.107  0.4713  0.3084  0.3982
 7307TIP3   OH243335   1.746   3.913  15.693 -0.4465  0.2316 -0.1655
 7307TIP3    H143336   1.808   3.945  15.758  0.5256 -1.3987 -0.2118
 7307TIP3    H243337   1.670   3.884  15.744 -0.4429  0.6292  0.0671
 7308TIP3   OH243338   5.251   6.039   5.872 -0.6134  0.0597  0.1487
 7308TIP3    H143339   5.296   6.099   5.931  0.4696 -2.3818  1.9318
 7308TIP3    H243340   5.159   6.062   5.881 -0.3540  0.5839  1.8383
 7309TIP3   OH243341   5.013   5.214   2.489  0.0650  0.3637  0.0348
 7309TIP3    H143342   5.012   5.248   2.579  0.8273 -0.3313  0.3154
 7309TIP3    H243343   4.941   5.152   2.485  0.0884  0.3270  0.1924
 7310TIP3   OH243344   2.235   5.159   5.692  0.0556  0.3955 -0.0754
 7310TIP3    H143345   2.146   5.173   5.725 -0.1867 -2.3655  0.6541
 7310TIP3    H243346   2.227   5.170   5.597 -1.0002  0.5125  0.0084
 7311TIP3   OH243347   2.723   4.690  11.132 -0.3219 -0.2955  0.0749
 7311TIP3    H143348   2.664   4.636  11.186 -0.9931 -1.5845 -1.8484
 7311TIP3    H243349   2.694   4.674  11.042  1.0699  1.4067 -0.7192
 7312TIP3   OH243350   0.379   0.104  13.473 -0.8757  0.3933 -0.4946
 7312TIP3    H143351   0.468   0.139  13.474 -0.7620  0.1129 -0.6788
 7312TIP3    H243352   0.355   0.098  13.566 -0.0919 -1.0697 -0.3621
 7313TIP3   OH243353   4.243   3.022   4.518  0.6542  0.3723  0.0184
 7313TIP3    H143354   4.242   2.972   4.600 -1.6916 -0.7579 -0.5919
 7313TIP3    H243355   4.219   3.111   4.544 -1.9419 -0.3721  0.4492
 7314TIP3   OH243356   4.338   6.515   2.058 -0.7158  0.5626  0.1596
 7314TIP3    H143357   4.412   6.551   2.106 -1.0649  1.0732  0.3318
 7314TIP3    H243358   4.327   6.573   1.983  0.4569 -0.8130 -1.1254
 7315TIP3   OH243359   3.363   3.260  14.867 -0.2061  0.2472 -0.1706
 7315TIP3    H143360   3.360   3.354  14.851 -0.6282  0.2967  0.1847
 7315TIP3    H243361   3.274   3.237  14.892  0.2694  0.0772  1.4684
 7316TIP3   OH243362   6.295   0.398   2.174  0.2426  0.4579 -0.1803
 7316TIP3    H143363   6.203   0.413   2.196  0.2656  0.1506  0.1396
 7316TIP3    H243364   6.344   0.433   2.248  0.4118  1.1047 -0.5916
 7317TIP3   OH243365   4.724   5.935   6.551  0.6691  0.2347 -0.5795
 7317TIP3    H143366   4.812   5.897   6.557  0.5592  0.1890  1.0678
 7317TIP3    H243367   4.682   5.888   6.479  0.5940 -2.7054  1.2597
 7318TIP3   OH243368   4.773   2.030  16.875 -0.1845 -0.1926  0.8340
 7318TIP3    H143369   4.845   2.090  16.893 -0.6530  0.3756  0.8465
 7318TIP3    H243370   4.784   1.959  16.938  0.3618 -0.1125  0.8339
 7319TIP3   OH243371   2.106   3.879  12.412 -0.8948 -0.0538 -0.7488
 7319TIP3    H143372   2.111   3.789  12.379 -0.9219 -0.1028 -0.6173
 7319TIP3    H243373   2.015   3.905  12.399 -1.2092 -0.5081  0.4367
 7320TIP3   OH243374   0.010   6.730  12.518 -0.8816  0.5811 -0.1500
 7320TIP3    H143375   0.013   6.694  12.607  1.9634  2.4110  0.6506
 7320TIP3    H243376  -0.075   6.775  12.514 -1.0343  0.5740  1.7256
 7321TIP3   OH243377   2.591   4.564   5.121 -0.0665  0.3677 -0.0776
 7321TIP3    H143378   2.548   4.639   5.161  0.0429  0.3552  0.0617
 7321TIP3    H243379   2.668   4.549   5.174 -0.8308 -0.7399  0.7671
 7322TIP3   OH243380   2.127   6.491  15.942  0.1650  0.0515 -0.3433
 7322TIP3    H143381   2.216   6.466  15.964  0.7639  0.5220 -2.0689
 7322TIP3    H243382   2.073   6.448  16.008  1.5154 -1.7489 -0.3298
 7323TIP3   OH243383   1.446   1.105   6.003 -1.0796 -0.0504  0.3271
 7323TIP3    H143384   1.500   1.032   5.973  2.2004  1.2279  2.4506
 7323TIP3    H243385   1.420   1.081   6.092 -0.3928  1.0604  0.8603
 7324TIP3   OH243386   1.393   2.031   4.700  0.3456  0.2098  0.7432
 7324TIP3    H143387   1.417   2.106   4.646  1.1268 -2.1870 -2.5322
 7324TIP3    H243388   1.475   2.007   4.744  0.6971 -0.0886 -0.0536
 7325TIP3   OH243389   3.389   1.094   6.242 -0.1537  0.4140 -0.5195
 7325TIP3    H143390   3.363   1.046   6.164  0.1193  0.7907 -0.8531
 7325TIP3    H243391   3.320   1.078   6.306  0.3662 -1.1358 -0.3083
 7326TIP3   OH243392   2.275   4.282   4.403 -0.2720 -0.1153  0.3636
 7326TIP3    H143393   2.329   4.360   4.421 -0.2462 -0.0249 -0.1063
 7326TIP3    H243394   2.232   4.301   4.320 -0.5318 -0.4608  0.4196
 7327TIP3   OH243395   1.143   6.234  12.952  0.2614 -0.3447 -0.3599
 7327TIP3    H143396   1.131   6.141  12.970 -0.4251 -0.1326  0.3043
 7327TIP3    H243397   1.199   6.236  12.874  0.6370 -1.3027 -0.1263
 7328TIP3   OH243398   6.306   2.198   5.949  0.2389 -0.5433 -0.3763
 7328TIP3    H143399   6.352   2.172   5.869 -1.8107 -2.4266 -1.0160
 7328TIP3    H243400   6.292   2.117   5.997 -1.2515  0.1372  0.4144
 7329TIP3   OH243401   4.525   3.276  11.877  0.3278 -0.0390 -0.1469
 7329TIP3    H143402   4.470   3.305  11.804 -1.1698  0.6955  1.2046
 7329TIP3    H243403   4.611   3.313  11.858 -0.1178  0.4336 -1.3582
 7330TIP3   OH243404   4.706   5.645   5.487 -0.1628 -0.5808  0.3915
 7330TIP3    H143405   4.680   5.681   5.401 -0.2722 -1.9279 -0.1663
 7330TIP3    H243406   4.777   5.702   5.516 -1.4203  1.1051  0.3416
 7331TIP3   OH243407   5.662   1.171  13.988  0.1224 -0.7483  0.0062
 7331TIP3    H143408   5.615   1.207  14.063  0.0353  0.8870 -0.7996
 7331TIP3    H243409   5.594   1.126  13.937 -0.2069 -0.1247 -0.1184
 7332TIP3   OH243410   2.097   2.040  11.691  0.1958  0.1515  0.2561
 7332TIP3    H143411   2.160   1.979  11.729  1.5863  1.7781  0.7196
 7332TIP3    H243412   2.121   2.046  11.599 -0.5410 -0.6833  0.0012
 7333TIP3   OH243413   4.840   1.543   4.078 -0.5214 -0.1197  0.1356
 7333TIP3    H143414   4.849   1.573   3.987  0.1878 -1.3263 -0.2118
 7333TIP3    H243415   4.884   1.611   4.129  2.3684 -1.1918 -0.7589
 7334TIP3   OH243416   3.938   6.644  14.737 -0.2017 -0.1352 -0.3182
 7334TIP3    H143417   3.915   6.689  14.818 -0.5221 -0.7814 -0.0397
 7334TIP3    H243418   3.857   6.643  14.686 -0.5611 -1.5389  0.2401
 7335TIP3   OH243419   4.147   4.066   1.894  0.5538 -0.0367  0.3342
 7335TIP3    H143420   4.069   4.121   1.892  1.0434  0.7309  1.4600
 7335TIP3    H243421   4.119   3.983   1.856 -0.3803  0.7502 -0.7545
 7336TIP3   OH243422   3.469   1.639   1.770  0.0775  0.1273  0.1950
 7336TIP3    H143423   3.407   1.646   1.843  0.6802 -1.9074  0.9667
 7336TIP3    H243424   3.536   1.579   1.802  0.3196 -0.8954 -2.0657
 7337TIP3   OH243425   3.069   2.305   5.165 -0.7725  0.8630 -0.2154
 7337TIP3    H143426   3.155   2.295   5.125 -1.4399 -1.5741 -1.2076
 7337TIP3    H243427   3.080   2.273   5.254 -0.3603  1.9605  0.1524
 7338TIP3   OH243428   0.276   4.292   3.064  0.1051 -0.4309  0.0979
 7338TIP3    H143429   0.276   4.345   3.143  0.5699 -0.3676  0.0622
 7338TIP3    H243430   0.275   4.356   2.992  1.3662 -0.4290  0.0486
 7339TIP3   OH243431   5.454   0.411  16.165 -0.5296  0.2020 -0.0396
 7339TIP3    H143432   5.499   0.354  16.228  0.3378  1.9417  0.9941
 7339TIP3    H243433   5.507   0.405  16.085  0.3013  0.5255  0.4706
 7340TIP3   OH243434   1.079   0.089   2.029  0.3377 -0.3011  0.0853
 7340TIP3    H143435   1.092   0.170   2.078  0.4614 -0.1471 -0.1988
 7340TIP3    H243436   1.119   0.021   2.083 -1.8073 -0.5646  1.4926
 7341TIP3   OH243437   0.575   1.780   6.554 -0.9363  0.3308  0.6114
 7341TIP3    H143438   0.649   1.776   6.493 -1.7025 -0.5860 -0.3022
 7341TIP3    H243439   0.556   1.874   6.563 -0.7550  0.4845 -0.5053
 7342TIP3   OH243440   2.941   3.557  14.298 -0.1532 -0.0843  0.6529
 7342TIP3    H143441   2.906   3.504  14.226 -0.3956  0.2541  0.5177
 7342TIP3    H243442   2.966   3.640  14.257  3.2922 -1.1885  0.2111
 7343TIP3   OH243443   3.674   5.477   4.686 -0.1105  0.1598 -0.1047
 7343TIP3    H143444   3.676   5.383   4.669 -2.9946  0.2488 -1.5535
 7343TIP3    H243445   3.581   5.499   4.687  0.4852  3.2086 -1.1358
 7344TIP3   OH243446   6.695   0.241   5.004 -0.1126  0.0736 -0.6220
 7344TIP3    H143447   6.787   0.214   4.997 -0.4127 -0.6711 -1.9478
 7344TIP3    H243448   6.656   0.216   4.920 -1.6094  0.0768  0.0468
 7345TIP3   OH243449   0.710   5.481   4.923  0.3149 -0.1748 -0.2615
 7345TIP3    H143450   0.802   5.476   4.948 -0.2259 -1.5059  1.7145
 7345TIP3    H243451   0.692   5.397   4.882 -0.4687 -0.7949  1.2537
 7346TIP3   OH243452   0.514   6.109  12.585 -0.1922 -0.2299 -0.4263
 7346TIP3    H143453   0.438   6.148  12.541 -0.2030 -0.6434 -0.7776
 7346TIP3    H243454   0.555   6.055  12.518 -0.5613 -1.3670  0.2348
 7347TIP3   OH243455   5.323   1.022  11.521 -0.7519  0.2788  0.5884
 7347TIP3    H143456   5.248   1.055  11.571 -0.1457  2.4208  0.2172
 7347TIP3    H243457   5.398   1.033  11.581 -0.1644  2.0191 -0.3766
 7348TIP3   OH243458   1.702   6.613   1.969 -0.3346  0.1511  0.6450
 7348TIP3    H143459   1.645   6.668   1.915 -0.0247 -0.5554 -0.4366
 7348TIP3    H243460   1.787   6.658   1.967 -0.4629  0.4122  1.0049
 7349TIP3   OH243461   3.161   1.117  12.425  0.4905  0.3044  0.2072
 7349TIP3    H143462   3.244   1.162  12.439  0.1727  0.9139  0.1401
 7349TIP3    H243463   3.127   1.102  12.514 -0.5744  2.4042  0.2085
 7350TIP3   OH243464   1.558   1.982   4.098  0.2092  0.1446 -0.4656
 7350TIP3    H143465   1.538   1.946   4.184 -1.8784  1.1590 -0.4646
 7350TIP3    H243466   1.516   1.921   4.036  0.5874  0.1121 -0.6916
 7351TIP3   OH243467   4.512   6.463  12.586 -0.0955  0.4274 -0.6631
 7351TIP3    H143468   4.490   6.412  12.508 -1.7342  0.4643 -0.2537
 7351TIP3    H243469   4.451   6.536  12.585 -0.9237 -0.1805  1.2360
 7352TIP3   OH243470   6.190   2.745   2.787 -0.3785  0.0087 -0.3386
 7352TIP3    H143471   6.144   2.818   2.827 -1.3643 -0.7375 -0.0594
 7352TIP3    H243472   6.162   2.746   2.695  0.2756  0.4849 -0.5384
 7353TIP3   OH243473   5.576   1.178  13.672 -0.5557 -0.0335 -0.3537
 7353TIP3    H143474   5.652   1.136  13.631  0.3600  0.3594  0.8846
 7353TIP3    H243475   5.555   1.122  13.747  0.9543  1.8008  1.5875
 7354TIP3   OH243476   3.260   0.218   1.723 -0.2594 -0.0209  0.0029
 7354TIP3    H143477   3.356   0.218   1.732 -0.1168 -2.0494 -0.9533
 7354TIP3    H243478   3.228   0.254   1.806  1.3438  2.3263 -0.3251
 7355TIP3   OH243479   4.183   0.736  16.282 -0.2026  0.2020 -0.4109
 7355TIP3    H143480   4.278   0.745  16.281 -0.2427  0.6860 -0.7339
 7355TIP3    H243481   4.154   0.787  16.206 -0.7059 -0.1029 -0.4274
 7356TIP3   OH243482   3.197   1.252   3.476 -0.1248  0.1938 -0.6504
 7356TIP3    H143483   3.187   1.290   3.563 -1.1006 -0.6276 -0.3872
 7356TIP3    H243484   3.175   1.324   3.416 -0.8352  0.3854 -0.1771
 7357TIP3   OH243485   0.063   4.515  14.653 -0.0902  0.2316  0.0626
 7357TIP3    H143486   0.071   4.524  14.558 -3.6658 -0.3700 -0.4196
 7357TIP3    H243487   0.050   4.421  14.667  1.7266  0.1132  1.3658
 7358TIP3   OH243488   3.587   2.370  17.259  0.0237  0.9486 -0.4961
 7358TIP3    H143489   3.620   2.447  17.212  0.2491  0.0099 -1.9308
 7358TIP3    H243490   3.662   2.312  17.266 -0.4510  0.3220 -0.5437
 7359TIP3   OH243491   3.905   3.358  14.128  0.4033 -0.0528 -0.1277
 7359TIP3    H143492   3.956   3.320  14.057 -0.1874  0.6898 -0.9672
 7359TIP3    H243493   3.873   3.441  14.093 -1.1933 -0.3838  0.4554
 7360TIP3   OH243494   5.687   3.517  17.178 -0.4449 -0.2495 -0.3047
 7360TIP3    H143495   5.755   3.450  17.173  2.2306  2.2273  0.2195
 7360TIP3    H243496   5.676   3.532  17.272 -0.4935  0.4770 -0.4186
 7361TIP3   OH243497   2.015   0.690   4.074 -0.4024 -0.2237  0.0931
 7361TIP3    H143498   1.953   0.684   4.146  0.3641  0.7920  0.8668
 7361TIP3    H243499   2.078   0.757   4.101  0.3094 -0.3175 -1.2148
 7362TIP3   OH243500   5.553   0.871   0.404 -0.2805  0.2140 -0.9320
 7362TIP3    H143501   5.559   0.832   0.316  0.1984 -0.3967 -0.6302
 7362TIP3    H243502   5.458   0.879   0.419 -0.3708  0.0032 -1.3608
 7363TIP3   OH243503   4.488   3.702  14.513  0.3982  0.0171 -0.1780
 7363TIP3    H143504   4.518   3.756  14.441  1.2307 -1.1810 -0.7616
 7363TIP3    H243505   4.396   3.682  14.492 -0.5524  2.6839  0.9960
 7364TIP3   OH243506   6.395   0.969  12.186  0.2205  0.4401  0.3100
 7364TIP3    H143507   6.352   0.884  12.196 -0.6874  0.8379 -0.0792
 7364TIP3    H243508   6.366   1.001  12.101  0.7116  1.0595  0.3649
 7365TIP3   OH243509   6.357   0.799  15.916  0.1285 -0.0843 -0.3445
 7365TIP3    H143510   6.292   0.730  15.903 -0.3357  0.7160 -2.5523
 7365TIP3    H243511   6.321   0.853  15.987 -0.9209 -0.4448 -0.5919
 7366TIP3   OH243512   5.250   5.839  12.891 -0.7530  0.3194  0.7379
 7366TIP3    H143513   5.206   5.870  12.812 -0.9639  1.0993  1.1478
 7366TIP3    H243514   5.185   5.851  12.961 -0.2159  0.6280  1.1969
 7367TIP3   OH243515   1.276   1.805  14.637 -0.4030 -0.2670  0.0010
 7367TIP3    H143516   1.351   1.863  14.652  0.5243 -1.6820  1.1674
 7367TIP3    H243517   1.203   1.864  14.617  0.6374  1.2459  0.5040
 7368TIP3   OH243518   6.231   5.827   5.071 -0.0216 -0.1366 -0.5094
 7368TIP3    H143519   6.280   5.784   5.001 -0.0944  0.8250 -1.1783
 7368TIP3    H243520   6.214   5.915   5.037  1.1556  0.8378  1.2634
 7369TIP3   OH243521   4.949   4.955  11.769 -0.0483 -0.8879 -0.1719
 7369TIP3    H143522   4.897   4.877  11.751 -2.5331  0.5325  0.4564
 7369TIP3    H243523   4.897   5.005  11.832  0.5040  2.1620 -1.9225
 7370TIP3   OH243524   4.853   3.121  12.119 -0.1902  0.5685  0.3372
 7370TIP3    H143525   4.808   3.068  12.053  1.4208  1.7912 -1.8299
 7370TIP3    H243526   4.804   3.203  12.120  0.5415  1.0248 -0.3093
 7371TIP3   OH243527   0.512   5.657  15.153  0.0017 -0.0566  0.5823
 7371TIP3    H143528   0.474   5.744  15.161 -2.3689 -1.0764  1.4205
 7371TIP3    H243529   0.468   5.618  15.077  1.0557 -0.5266  0.1903
 7372TIP3   OH243530   1.574   3.574  15.901 -0.0605  0.9427 -0.1538
 7372TIP3    H143531   1.580   3.669  15.902  0.6985  0.9571  2.4517
 7372TIP3    H243532   1.635   3.547  15.832  0.7298  2.3192 -0.0419
 7373TIP3   OH243533   1.752   1.877  11.107 -0.0450  0.5596  0.1778
 7373TIP3    H143534   1.753   1.859  11.201 -2.2098  0.9010  0.3186
 7373TIP3    H243535   1.675   1.932  11.094  0.1858  0.4840 -1.8280
 7374TIP3   OH243536   4.481   2.537  13.523  0.4151 -0.2920  0.3620
 7374TIP3    H143537   4.540   2.609  13.547  0.8334 -0.7573  0.7517
 7374TIP3    H243538   4.454   2.500  13.607 -1.8568  1.0067  0.2863
 7375TIP3   OH243539   1.202   2.935   2.863 -0.1278 -0.7731 -0.2018
 7375TIP3    H143540   1.265   2.863   2.874 -0.5545 -1.2894 -0.9994
 7375TIP3    H243541   1.185   2.966   2.952  1.6833 -0.2297 -0.0067
 7376TIP3   OH243542   1.206   5.067   5.256  0.2571  0.2000 -0.4848
 7376TIP3    H143543   1.257   5.130   5.306 -0.9268 -0.9650  2.4077
 7376TIP3    H243544   1.120   5.108   5.246  0.2190  0.0499 -0.7943
 7377TIP3   OH243545   6.443   2.546  13.928 -0.5138  0.2980  0.1929
 7377TIP3    H143546   6.412   2.626  13.971  0.3751  1.0290 -0.4764
 7377TIP3    H243547   6.377   2.529  13.860 -1.1591 -0.0451  0.8859
 7378TIP3   OH243548   4.013   0.228  16.210  0.3091  0.0405 -0.0724
 7378TIP3    H143549   3.949   0.291  16.176 -2.1667 -0.7528  2.6935
 7378TIP3    H243550   3.960   0.154  16.240  2.5760 -0.8996  1.9238
 7379TIP3   OH243551   3.859   3.799  13.171 -0.5006 -0.2328 -0.0250
 7379TIP3    H143552   3.922   3.865  13.200  0.2822 -1.0123  0.0841
 7379TIP3    H243553   3.775   3.830  13.205 -0.4374  1.5482 -1.3461
 7380TIP3   OH243554   4.925   2.585  14.512  0.1855 -0.5676 -0.1260
 7380TIP3    H143555   5.017   2.570  14.530  0.6149  2.2295  0.5429
 7380TIP3    H243556   4.924   2.658  14.450 -1.5594 -0.2540  0.2054
 7381TIP3   OH243557   4.787   5.228   1.139  0.7487 -0.2659  0.3242
 7381TIP3    H143558   4.807   5.295   1.205 -0.8376  1.3266 -0.7294
 7381TIP3    H243559   4.763   5.278   1.060 -0.2284 -2.0719 -0.5896
 7382TIP3   OH243560   3.861   4.978   0.792 -0.0530  0.0745 -0.2548
 7382TIP3    H143561   3.934   5.036   0.813  0.4749 -0.3171 -0.9757
 7382TIP3    H243562   3.892   4.926   0.718 -0.5927 -1.0030  0.2620
 7383TIP3   OH243563   1.681   4.905  10.719 -0.6664 -0.1450 -0.4900
 7383TIP3    H143564   1.659   4.844  10.649 -0.0813 -1.2316  0.2312
 7383TIP3    H243565   1.703   4.987  10.675 -1.3781 -0.4715 -1.4905
 7384TIP3   OH243566   4.153   5.317  10.647 -0.2981  0.4489 -0.0012
 7384TIP3    H143567   4.174   5.232  10.611  0.1677 -0.0077  1.2948
 7384TIP3    H243568   4.237   5.359  10.662 -0.1101 -0.8688  3.9693
 7385TIP3   OH243569   1.404   4.245   4.630 -0.2800 -0.5900 -0.2358
 7385TIP3    H143570   1.411   4.340   4.633 -1.4586 -0.4966 -0.0822
 7385TIP3    H243571   1.365   4.221   4.714  2.4950 -1.4866  0.9199
 7386TIP3   OH243572   1.572   2.654  17.025  0.1746 -0.4393  0.6432
 7386TIP3    H143573   1.504   2.720  17.012 -1.1376 -1.6386  1.2809
 7386TIP3    H243574   1.569   2.633  17.118  0.5133 -1.4547  0.4429
 7387TIP3   OH243575   3.452   1.705  12.437 -0.1846 -0.1078 -0.2386
 7387TIP3    H143576   3.502   1.627  12.460 -0.7046 -0.6617 -0.9749
 7387TIP3    H243577   3.450   1.706  12.342 -0.2668  0.7504 -0.2335
 7388TIP3   OH243578   4.472   1.016   0.105 -0.7093 -0.6482 -0.6239
 7388TIP3    H143579   4.482   1.086   0.040 -0.7994  0.1847  0.2215
 7388TIP3    H243580   4.378   0.998   0.108 -0.9556  0.6240  0.5522
 7389TIP3   OH243581   1.494   5.360   6.762  0.6255  0.2250 -0.2500
 7389TIP3    H143582   1.478   5.403   6.678 -2.8203 -0.5003 -0.0965
 7389TIP3    H243583   1.495   5.432   6.825 -0.4191  0.5207 -0.5424
 7390TIP3   OH243584   3.435   4.653   5.020 -0.3226 -0.4144  0.1718
 7390TIP3    H143585   3.392   4.715   4.961 -0.7352 -0.4399  0.4362
 7390TIP3    H243586   3.408   4.567   4.988 -0.7406 -0.4229  0.5317
 7391TIP3   OH243587   0.954   4.599   1.389  0.0616 -0.5423 -0.3989
 7391TIP3    H143588   1.046   4.575   1.404  0.1640 -0.0498 -0.2165
 7391TIP3    H243589   0.949   4.612   1.294 -0.3043 -2.4952 -0.6983
 7392TIP3   OH243590   0.075   5.042   5.747  0.1156  0.5003  0.2121
 7392TIP3    H143591   0.052   5.117   5.802  2.9573  0.0950  2.1827
 7392TIP3    H243592   0.131   5.078   5.678  1.1667  0.3026  0.9367
 7393TIP3   OH243593   1.264   1.765  12.714  0.0992  0.2229  0.2355
 7393TIP3    H143594   1.235   1.680  12.681 -0.5446  0.1648  0.9156
 7393TIP3    H243595   1.234   1.766  12.805 -0.6257  1.5208  0.0033
 7394TIP3   OH243596   5.534   3.574  13.337  0.1546  0.4570  0.2811
 7394TIP3    H143597   5.546   3.479  13.344 -2.4709 -0.0287 -0.8938
 7394TIP3    H243598   5.444   3.585  13.307  0.6487  3.3228 -0.3988
 7395TIP3   OH243599   4.077   0.967  12.392  0.0511 -0.3153  0.0152
 7395TIP3    H143600   4.160   0.984  12.348 -0.0406 -0.4012 -0.1879
 7395TIP3    H243601   4.011   1.011  12.339 -0.0407 -0.2939  0.1453
 7396TIP3   OH243602   1.502   0.044  11.993 -0.3443  0.6851 -0.1809
 7396TIP3    H143603   1.461  -0.015  11.930  0.8045 -0.8545  0.4444
 7396TIP3    H243604   1.508  -0.008  12.073  0.2250  1.8392  0.5373
 7397TIP3   OH243605   4.858   5.727   4.141  1.0156  0.4971 -0.2141
 7397TIP3    H143606   4.777   5.736   4.190  1.5279  2.1043  0.4113
 7397TIP3    H243607   4.869   5.811   4.097  1.3115 -0.4099 -1.9631
 7398TIP3   OH243608   0.472   5.610   1.207  0.2170 -0.6356  0.1902
 7398TIP3    H143609   0.506   5.522   1.225 -0.2395 -1.2809 -1.8350
 7398TIP3    H243610   0.546   5.656   1.168 -0.6895 -1.6442 -3.0342
 7399TIP3   OH243611   2.372   1.347  15.695 -0.4895 -0.4903  0.1963
 7399TIP3    H143612   2.387   1.427  15.745  0.0625 -0.4210 -0.0641
 7399TIP3    H243613   2.460   1.319  15.669 -0.6498 -1.3768  0.5875
 7400TIP3   OH243614   3.070   0.370  11.379 -0.0202  0.4189  0.2065
 7400TIP3    H143615   2.991   0.414  11.411  0.3232  0.5461  0.9175
 7400TIP3    H243616   3.120   0.351  11.459  0.7912  0.5828 -0.2541
 7401TIP3   OH243617   3.415   3.078  13.715  0.3261 -0.2573  0.2225
 7401TIP3    H143618   3.440   3.013  13.649 -0.3890 -0.9911  0.6518
 7401TIP3    H243619   3.402   3.027  13.795 -0.3786  0.3896  0.5365
 7402TIP3   OH243620   3.572   5.589   3.844  0.1954  0.0287  0.6446
 7402TIP3    H143621   3.562   5.587   3.749  0.8187 -0.4194  0.5838
 7402TIP3    H243622   3.489   5.553   3.877  0.5059 -1.1238  0.2240
 7403TIP3   OH243623   0.111   5.650  16.551 -0.5859 -0.4049 -0.1182
 7403TIP3    H143624   0.074   5.618  16.633  0.2202 -1.3116 -0.0876
 7403TIP3    H243625   0.178   5.586  16.528  0.0820  0.5128 -0.8269
 7404TIP3   OH243626   6.127   3.463   5.608  0.4368 -0.3863 -0.7741
 7404TIP3    H143627   6.038   3.452   5.576  0.3876 -0.2363 -0.6877
 7404TIP3    H243628   6.165   3.375   5.604 -0.1259 -0.7025  0.4363
 7405TIP3   OH243629   1.264   2.782  15.972  0.7041 -0.1197 -0.5435
 7405TIP3    H143630   1.203   2.761  15.902  0.6357 -2.4247  0.1405
 7405TIP3    H243631   1.210   2.820  16.041  0.4826  0.3923 -0.9951
 7406TIP3   OH243632   6.118   1.515  13.974 -0.4586 -0.1736 -0.2103
 7406TIP3    H143633   6.186   1.479  13.916 -1.0611 -1.6775 -0.0341
 7406TIP3    H243634   6.131   1.610  13.970  1.2851 -0.3884 -0.6214
 7407TIP3   OH243635   1.051   0.183  15.125  0.7639  0.3130  0.4738
 7407TIP3    H143636   0.973   0.156  15.076  1.2882 -0.5675  0.0869
 7407TIP3    H243637   1.042   0.278  15.134 -0.3401  0.2257  0.4257
 7408TIP3   OH243638   3.096   1.795   3.001  0.3201  0.0882  0.4465
 7408TIP3    H143639   3.115   1.706   2.972 -0.9177 -1.0862  2.9162
 7408TIP3    H243640   3.005   1.809   2.975 -0.0112 -0.0333  1.5080
 7409TIP3   OH243641   4.910   1.978   0.057 -0.2241 -0.5048  0.1581
 7409TIP3    H143642   4.948   1.900   0.098 -1.3377 -2.3508 -2.0421
 7409TIP3    H243643   4.850   2.013   0.124  0.9692 -0.9712  1.5205
 7410TIP3   OH243644   3.014   3.075   0.768 -0.0749  0.0365  0.5995
 7410TIP3    H143645   3.038   3.052   0.678  2.4107 -2.4586  1.7410
 7410TIP3    H243646   3.042   3.166   0.778  0.5342  0.0349 -0.8834
 7411TIP3   OH243647   1.291   2.380   1.868  0.5424  0.2951 -0.1357
 7411TIP3    H143648   1.256   2.392   1.780 -0.0032  0.3218  0.0868
 7411TIP3    H243649   1.320   2.467   1.895 -1.5603  0.7893  0.6793
 7412TIP3   OH243650   6.386   1.969   1.113 -0.3151  0.1719 -0.1070
 7412TIP3    H143651   6.418   1.881   1.135 -2.1982 -0.7426 -0.8355
 7412TIP3    H243652   6.355   2.004   1.197  1.3032  0.5684  0.3669
 7413TIP3   OH243653   6.324   5.664  14.249  0.1240 -0.5769  0.6455
 7413TIP3    H143654   6.299   5.666  14.342  0.6411 -1.2937  0.8083
 7413TIP3    H243655   6.302   5.576  14.220  1.2513 -0.8131  0.4627
 7414TIP3   OH243656   4.805   2.691   3.635  0.2729 -0.2557  0.0296
 7414TIP3    H143657   4.892   2.689   3.675  0.6734 -0.9797 -0.8639
 7414TIP3    H243658   4.749   2.645   3.698  0.8402 -1.1210 -0.0755
 7415TIP3   OH243659   2.475   3.173   2.238 -0.1081  0.3599 -0.2309
 7415TIP3    H143660   2.536   3.210   2.174  1.1044  1.6698  1.5853
 7415TIP3    H243661   2.523   3.100   2.277  0.7279  1.8600  1.7401
 7416TIP3   OH243662   3.211   6.718   2.394 -0.2488  0.4919 -1.0504
 7416TIP3    H143663   3.264   6.650   2.352  0.4094  2.0544 -2.8786
 7416TIP3    H243664   3.244   6.723   2.483  2.1742  0.8603 -1.9134
 7417TIP3   OH243665   6.724   2.313   1.885 -0.3437  0.2936 -0.4485
 7417TIP3    H143666   6.664   2.302   1.958  2.4401 -0.2960  1.9501
 7417TIP3    H243667   6.770   2.229   1.879  0.9613  1.0449 -1.4882
 7418TIP3   OH243668   5.431   1.361   3.430  1.0629 -0.0844  0.3831
 7418TIP3    H143669   5.518   1.382   3.396  0.7548  2.0442  0.8081
 7418TIP3    H243670   5.370   1.400   3.368  0.4879  1.9942  2.1118
 7419TIP3   OH243671   2.524   5.284   4.981 -0.4364  0.6309  0.1105
 7419TIP3    H143672   2.462   5.302   4.910 -1.2021 -0.1406  0.5594
 7419TIP3    H243673   2.559   5.197   4.960 -0.3447  0.5888  0.4392
 7420TIP3   OH243674   2.962   2.927  15.635  0.4291 -1.1713  0.1373
 7420TIP3    H143675   3.004   2.848  15.599 -0.9274 -2.5532  1.4295
 7420TIP3    H243676   2.949   2.907  15.727 -0.4979  0.3522  0.3742
 7421TIP3   OH243677   2.743   6.667   0.628  0.7268  0.0665 -0.5910
 7421TIP3    H143678   2.762   6.760   0.613 -0.5150  0.6020  0.8718
 7421TIP3    H243679   2.715   6.663   0.720  0.6605 -1.7484 -0.6551
 7422TIP3   OH243680   5.261   0.176   4.282  0.5194 -0.1397  0.0411
 7422TIP3    H143681   5.269   0.262   4.240  0.8227 -0.5004 -0.6608
 7422TIP3    H243682   5.296   0.114   4.217  1.1716 -0.6975  0.9025
 7423TIP3   OH243683   0.939   3.116  13.771  0.7769  0.1863  0.1919
 7423TIP3    H143684   0.951   3.211  13.781 -0.4205  0.4793 -0.7768
 7423TIP3    H243685   1.020   3.085  13.731  0.7726  1.0017 -0.4796
 7424TIP3   OH243686   5.927   5.095  16.454  0.0757 -0.2047 -0.3752
 7424TIP3    H143687   5.975   5.164  16.500 -0.7578  0.3747 -0.3601
 7424TIP3    H243688   5.995   5.045  16.409  0.7232  0.4236 -0.1148
 7425TIP3   OH243689   3.238   0.229   2.429 -0.1773 -0.3183 -0.9468
 7425TIP3    H143690   3.221   0.141   2.396  2.8510 -2.1553  1.8336
 7425TIP3    H243691   3.187   0.234   2.510 -0.6011  0.6894 -1.2559
 7426TIP3   OH243692   5.025   5.305   5.270  0.0706 -0.0167 -0.0455
 7426TIP3    H143693   4.993   5.276   5.184  1.7521 -2.0073 -0.0845
 7426TIP3    H243694   5.097   5.365   5.251  2.4994 -2.7497 -0.2394
 7427TIP3   OH243695   3.606   1.412   1.564  0.0652 -0.0682 -0.0956
 7427TIP3    H143696   3.539   1.465   1.520  1.1578  0.1634 -1.5545
 7427TIP3    H243697   3.666   1.386   1.494  2.5271  1.2602  1.3845
 7428TIP3   OH243698   5.486   3.957   4.533  0.1922 -0.0760 -0.1965
 7428TIP3    H143699   5.503   3.925   4.622  0.2282 -2.3178 -0.9451
 7428TIP3    H243700   5.528   4.043   4.530  1.3552 -0.5197  1.5354
 7429TIP3   OH243701   5.691   2.434  12.199 -0.0608  0.1753  0.3499
 7429TIP3    H143702   5.668   2.481  12.118  1.0730 -0.0133 -0.1033
 7429TIP3    H243703   5.626   2.463  12.263 -2.0839 -1.0104 -1.0683
 7430TIP3   OH243704   1.406   3.281   5.297 -0.0128 -0.1142 -0.3502
 7430TIP3    H143705   1.421   3.374   5.278 -1.3080  0.0725 -0.5864
 7430TIP3    H243706   1.462   3.235   5.236 -0.3776  0.5214 -1.1919
 7431TIP3   OH243707   5.031   3.602  10.596 -0.2866  0.4152 -0.1013
 7431TIP3    H143708   4.957   3.569  10.545 -0.3480 -1.2076  0.9781
 7431TIP3    H243709   4.993   3.634  10.677  0.1734 -0.5177  0.5028
 7432TIP3   OH243710   1.219   6.697   5.417 -0.1803  0.6399 -0.3394
 7432TIP3    H143711   1.134   6.669   5.450 -0.9532  0.4088 -2.3947
 7432TIP3    H243712   1.206   6.712   5.323  1.6829  2.0813 -0.4455
 7433TIP3   OH243713   1.446   4.986   0.657  0.0080  0.0511 -0.4908
 7433TIP3    H143714   1.373   5.043   0.634  1.3244  1.9812 -0.1271
 7433TIP3    H243715   1.494   5.034   0.724  1.6767 -1.1008 -0.7816
 7434TIP3   OH243716   4.316   5.338  14.725 -0.3581 -0.1512  0.1169
 7434TIP3    H143717   4.338   5.245  14.718  0.1421  0.0866 -3.3969
 7434TIP3    H243718   4.388   5.375  14.776  0.6168 -1.3750 -0.3163
 7435TIP3   OH243719   6.095   4.575  15.562 -0.0143  0.5527  0.7093
 7435TIP3    H143720   6.045   4.651  15.532  2.4880  1.2206 -2.4618
 7435TIP3    H243721   6.185   4.607  15.567  0.7951 -1.6757  1.5501
 7436TIP3   OH243722   1.561   2.832   5.680  0.2419  0.5689 -0.2247
 7436TIP3    H143723   1.553   2.893   5.754 -1.1931  0.9886 -0.6862
 7436TIP3    H243724   1.636   2.777   5.702  1.4787  2.3744  0.2983
 7437TIP3   OH243725   1.619   0.420   3.463 -0.5653 -0.1657  0.2901
 7437TIP3    H143726   1.673   0.396   3.539 -1.9224 -0.2662  1.2537
 7437TIP3    H243727   1.680   0.418   3.389 -0.0979 -4.7930  0.4994
 7438TIP3   OH243728   6.512   6.534   4.319  0.4322  0.3642 -0.1916
 7438TIP3    H143729   6.495   6.604   4.381  0.4553  0.1356  0.0719
 7438TIP3    H243730   6.578   6.571   4.259  1.6851  0.0145  0.9168
 7439TIP3   OH243731   4.029   2.102  12.678 -0.8054  0.3866 -0.3080
 7439TIP3    H143732   4.061   2.056  12.755 -0.6270 -1.5374 -1.4854
 7439TIP3    H243733   4.074   2.187  12.680 -0.5676  0.2544  1.4966
 7440TIP3   OH243734   4.521   6.032   0.099 -0.1552 -0.4024 -0.6030
 7440TIP3    H143735   4.532   5.938   0.088 -0.1554 -0.4517 -0.2025
 7440TIP3    H243736   4.434   6.051   0.062 -0.3348 -0.6292 -0.3043
 7441TIP3   OH243737   2.217   3.360   1.106 -0.1281  0.3000  0.1173
 7441TIP3    H143738   2.215   3.452   1.078  0.8615  0.2598 -0.1193
 7441TIP3    H243739   2.291   3.323   1.059  2.5912  0.5454  3.7539
 7442TIP3   OH243740   3.750   5.471   0.527  0.1061 -0.2653 -0.0874
 7442TIP3    H143741   3.708   5.493   0.444  0.7198  0.7398 -0.1456
 7442TIP3    H243742   3.841   5.498   0.516  0.1278  0.1701  1.0192
 7443TIP3   OH243743   2.631   2.893  13.413  0.2358  0.1436 -0.3356
 7443TIP3    H143744   2.648   2.820  13.353  2.7204  0.9017 -0.6671
 7443TIP3    H243745   2.585   2.854  13.486 -0.1696 -1.3936 -1.3567
 7444TIP3   OH243746   2.362   4.186  14.146 -0.0453 -0.6601  0.1866
 7444TIP3    H143747   2.321   4.101  14.161 -0.6879 -0.3376  0.2988
 7444TIP3    H243748   2.384   4.185  14.052  0.0783 -1.0039  0.2175
 7445TIP3   OH243749   1.921   1.431  13.414  0.7407  0.2238 -0.0765
 7445TIP3    H143750   1.857   1.400  13.478 -0.5823 -0.6135 -1.7372
 7445TIP3    H243751   1.991   1.366  13.418  0.3795 -0.1649  0.0787
 7446TIP3   OH243752   1.025   6.623   0.062 -0.0603 -0.2282 -0.1830
 7446TIP3    H143753   1.039   6.554  -0.003  0.1982 -1.1342  0.8019
 7446TIP3    H243754   1.054   6.584   0.144 -1.3555  0.5241  0.6627
 7447TIP3   OH243755   5.273   0.845   0.414  0.0658 -0.3057  0.1078
 7447TIP3    H143756   5.262   0.752   0.394  1.8225 -0.4277 -0.3854
 7447TIP3    H243757   5.198   0.865   0.471  0.1043 -2.2286  0.9325
 7448TIP3   OH243758   2.908   1.733   4.014 -0.0741  0.2656  1.0781
 7448TIP3    H143759   2.905   1.653   4.066  1.1923 -0.0476  0.7117
 7448TIP3    H243760   2.844   1.718   3.944 -1.3036  0.4214  2.1153
 7449TIP3   OH243761   5.097   0.963  16.553 -0.4541 -0.0438 -0.3621
 7449TIP3    H143762   5.104   0.869  16.533  0.9315 -0.0721  0.1128
 7449TIP3    H243763   5.168   1.003  16.502 -0.6664  0.6717 -0.0987
 7450TIP3   OH243764   6.324   4.710   3.408 -0.1568 -0.0535  1.1587
 7450TIP3    H143765   6.280   4.717   3.324  0.4433 -2.4422  0.5520
 7450TIP3    H243766   6.254   4.718   3.473 -0.9546 -0.2238  0.3403
 7451TIP3   OH243767   2.318   2.425   1.984  0.5789  1.2283 -0.1011
 7451TIP3    H143768   2.397   2.458   1.940 -0.3219  3.2532 -0.3575
 7451TIP3    H243769   2.324   2.461   2.072 -0.4323  2.1377 -0.3815
 7452TIP3   OH243770   3.011   2.473   4.424  0.0750  0.1356 -0.7559
 7452TIP3    H143771   2.967   2.509   4.501 -0.1700 -0.6511 -0.5172
 7452TIP3    H243772   3.023   2.548   4.366 -0.7371  0.5365 -0.4219
 7453TIP3   OH243773   4.495   3.582   3.014 -0.1293 -0.6945  0.3555
 7453TIP3    H143774   4.555   3.533   3.071 -1.0950 -1.0433  1.0920
 7453TIP3    H243775   4.412   3.535   3.021 -0.4544 -0.3047 -0.7707
 7454TIP3   OH243776   3.438   5.076   5.068  0.1880  0.8073 -0.1432
 7454TIP3    H143777   3.454   5.116   4.982 -0.0722  1.3400  0.0517
 7454TIP3    H243778   3.363   5.019   5.054  1.4623 -0.8086 -0.7838
 7455TIP3   OH243779   5.199   1.524   6.149 -0.5624  0.3562  0.5193
 7455TIP3    H143780   5.220   1.517   6.055 -1.0464  1.1813  0.3455
 7455TIP3    H243781   5.257   1.460   6.191 -1.5894 -1.3480 -0.5227
 7456TIP3   OH243782   6.179   5.409  12.449  0.1165 -0.4497 -0.5380
 7456TIP3    H143783   6.145   5.354  12.378 -0.0968 -0.2410 -0.5986
 7456TIP3    H243784   6.273   5.412  12.433  0.1406 -0.8656 -0.4852
 7457TIP3   OH243785   5.825   5.789  13.507 -0.3131 -0.1665 -0.4473
 7457TIP3    H143786   5.861   5.704  13.531 -0.9793 -0.5806 -0.8708
 7457TIP3    H243787   5.804   5.781  13.414  1.0606  0.9923 -0.8817
 7458TIP3   OH243788   2.383   2.398  14.578  0.3422 -0.2162 -0.2412
 7458TIP3    H143789   2.455   2.442  14.533 -0.3811 -0.1525 -1.3700
 7458TIP3    H243790   2.304   2.433  14.537 -0.2765 -1.7141 -0.3799
 7459TIP3   OH243791   4.584   3.404   4.491 -0.3225 -0.0653 -0.0503
 7459TIP3    H143792   4.579   3.481   4.547 -1.5864 -0.1164 -0.0703
 7459TIP3    H243793   4.666   3.415   4.443  1.2169 -0.4225  2.3476
 7460TIP3   OH243794   0.904   3.678  16.904  0.2738 -0.2747 -0.1147
 7460TIP3    H143795   0.839   3.693  16.973 -2.1514 -0.3383 -2.2405
 7460TIP3    H243796   0.912   3.763  16.860  0.5028 -0.6305 -0.7782
 7461TIP3   OH243797   1.440   4.373  12.864 -0.0229 -0.0684  0.2158
 7461TIP3    H143798   1.433   4.452  12.916  0.1713  0.9286 -1.2189
 7461TIP3    H243799   1.353   4.362  12.825 -0.0990 -0.6661  0.5411
 7462TIP3   OH243800   6.237   6.270   6.533 -0.8236  0.5127 -0.1894
 7462TIP3    H143801   6.309   6.276   6.595 -1.5255 -0.4551  0.7615
 7462TIP3    H243802   6.260   6.197   6.476 -1.2694 -0.1335  0.4396
 7463TIP3   OH243803   3.122   0.263  14.215 -0.3395 -0.6914  0.6700
 7463TIP3    H143804   3.206   0.269  14.259  0.2962 -3.1363 -0.0517
 7463TIP3    H243805   3.143   0.271  14.122 -1.1754  0.5088  0.5541
 7464TIP3   OH243806   1.435   4.867   2.697 -0.1005  0.4735 -0.0110
 7464TIP3    H143807   1.364   4.818   2.738 -0.5043  2.3079  1.6637
 7464TIP3    H243808   1.479   4.804   2.640 -1.4960 -1.3794  0.8714
 7465TIP3   OH243809   2.881   1.095  13.917  0.0494 -0.1434  0.2940
 7465TIP3    H143810   2.936   1.116  13.992  0.0503 -1.0157  0.5450
 7465TIP3    H243811   2.939   1.045  13.859  0.4400  1.5975 -0.9023
 7466TIP3   OH243812   0.041   2.442   4.542 -0.0376 -0.3674 -0.4923
 7466TIP3    H143813  -0.052   2.443   4.516 -0.1994  3.5289 -0.3023
 7466TIP3    H243814   0.077   2.521   4.503  2.6391 -0.5240  1.4441
 7467TIP3   OH243815   5.349   2.961  16.866 -0.1139 -0.2484 -0.2501
 7467TIP3    H143816   5.284   3.008  16.918 -0.9845 -1.9768  0.3024
 7467TIP3    H243817   5.303   2.935  16.786  0.4816  0.1910 -0.7505
 7468TIP3   OH243818   4.253   3.738   2.490  0.0042  0.0861 -0.6369
 7468TIP3    H143819   4.240   3.663   2.432 -0.9004 -0.3091  0.0475
 7468TIP3    H243820   4.194   3.722   2.564 -0.1764  1.4518 -0.4541
 7469TIP3   OH243821   2.624   5.159  15.517 -0.4058  0.0869  0.5673
 7469TIP3    H143822   2.629   5.249  15.548  2.3156  0.5951 -1.0133
 7469TIP3    H243823   2.584   5.165  15.430 -2.2255 -0.5556  1.3156
 7470TIP3   OH243824   3.034   0.550   1.984  0.9442  0.0968 -0.1670
 7470TIP3    H143825   3.005   0.518   1.899  1.2691 -0.1995 -0.1673
 7470TIP3    H243826   3.127   0.571   1.973  0.9592  0.1740  0.0805
 7471TIP3   OH243827   3.617   1.565   2.305  0.2954  0.0548  0.1041
 7471TIP3    H143828   3.542   1.624   2.315  0.2370 -0.0397  0.2278
 7471TIP3    H243829   3.635   1.565   2.211  0.0875  0.0158  0.0635
 7472TIP3   OH243830   4.283   6.256   0.935  0.4758  0.6369 -0.4529
 7472TIP3    H143831   4.320   6.168   0.933  0.3141  0.5635 -0.2400
 7472TIP3    H243832   4.193   6.245   0.903 -0.0410  0.4759  1.0000
 7473TIP3   OH243833   6.475   2.197  13.398 -0.3898 -0.6462 -0.0174
 7473TIP3    H143834   6.491   2.116  13.446  0.3243  0.3799  1.5366
 7473TIP3    H243835   6.562   2.236  13.388 -0.4461 -0.9913 -2.5451
 7474TIP3   OH243836   3.566   3.601   3.428 -0.0583 -0.1348 -0.2754
 7474TIP3    H143837   3.475   3.624   3.414  0.2599  2.1887  0.9145
 7474TIP3    H243838   3.574   3.591   3.523  0.6862 -1.6590 -0.4571
 7475TIP3   OH243839   1.967   3.443   0.527  0.6130 -0.0379 -0.2413
 7475TIP3    H143840   1.926   3.357   0.539 -0.0296  0.1115 -1.2400
 7475TIP3    H243841   1.894   3.502   0.506  1.3061  0.2006 -2.2798
 7476TIP3   OH243842   6.247   3.635   3.739  0.5325  0.0820  0.3278
 7476TIP3    H143843   6.275   3.666   3.825 -1.5146  1.2524  0.6455
 7476TIP3    H243844   6.226   3.715   3.690 -0.9301 -0.6246 -0.2779
 7477TIP3   OH243845   0.407   3.427  16.871  0.7173  0.0160  0.2239
 7477TIP3    H143846   0.324   3.381  16.865  0.2591  0.8857 -0.5109
 7477TIP3    H243847   0.472   3.366  16.836  0.1983 -0.2411 -0.3051
 7478TIP3   OH243848   0.634   4.044  13.574  0.3870  0.4708  0.1364
 7478TIP3    H143849   0.688   4.111  13.532 -0.7472  2.2319  1.3974
 7478TIP3    H243850   0.544   4.073  13.559 -0.1536 -0.9606  0.4467
 7479TIP3   OH243851   4.944   5.648   4.890  0.3008 -0.3968 -0.0992
 7479TIP3    H143852   4.979   5.600   4.814  2.5816  0.5092  0.2893
 7479TIP3    H243853   5.010   5.634   4.959  1.6094  3.8569 -0.2099
 7480TIP3   OH243854   6.406   3.962   2.603 -0.6335  0.1457  0.5057
 7480TIP3    H143855   6.484   3.956   2.658 -0.7049  0.8620  0.6899
 7480TIP3    H243856   6.371   3.873   2.602  1.0674 -0.5700 -0.9104
 7481TIP3   OH243857   1.723   4.368  17.259  0.6489  0.1578  0.1860
 7481TIP3    H143858   1.632   4.395  17.267  0.1570 -1.2622 -0.2770
 7481TIP3    H243859   1.771   4.424  17.321 -0.5637  0.7159  0.6454
 7482TIP3   OH243860   0.314   1.897  13.713  0.0807  0.1638 -0.4165
 7482TIP3    H143861   0.336   1.975  13.763 -0.4415 -0.5464  0.9806
 7482TIP3    H243862   0.225   1.913  13.681  0.1017  0.2793 -0.4152
 7483TIP3   OH243863   1.323   1.572   4.280  0.2188 -0.1069  0.0235
 7483TIP3    H143864   1.409   1.546   4.247  1.4512  2.7379  0.6605
 7483TIP3    H243865   1.260   1.524   4.226  2.1518 -2.2839 -0.4631
 7484TIP3   OH243866   1.554   6.385   5.283 -0.0264  0.6429  0.2458
 7484TIP3    H143867   1.585   6.300   5.314 -0.6850  0.1578 -0.3984
 7484TIP3    H243868   1.510   6.424   5.359 -1.7445 -0.5910 -0.0814
 7485TIP3   OH243869   1.934   0.987   1.523 -0.6879  0.2272  0.6846
 7485TIP3    H143870   1.903   0.984   1.613  0.8340  0.4058  1.2449
 7485TIP3    H243871   1.885   0.918   1.478  1.0249 -2.3266  2.4746
 7486TIP3   OH243872   5.292   1.609   1.118 -0.2969 -0.3329  0.0268
 7486TIP3    H143873   5.309   1.661   1.196  0.4282  0.1193 -0.4187
 7486TIP3    H243874   5.290   1.673   1.047 -1.2770 -0.6932 -0.2933
 7487TIP3   OH243875   6.289   0.917   0.551  0.2053  0.1634 -0.5221
 7487TIP3    H143876   6.352   0.859   0.509  0.0507 -2.0829  2.0665
 7487TIP3    H243877   6.208   0.905   0.502  0.8355  0.2502 -1.6118
 7488TIP3   OH243878   0.401   3.055  15.178 -0.2345 -0.1580 -0.4247
 7488TIP3    H143879   0.461   3.041  15.105  2.5371  0.3711  1.5858
 7488TIP3    H243880   0.380   2.967  15.209  1.0285 -0.3679 -0.0747
 7489TIP3   OH243881   1.512   2.250  12.236  0.3987 -0.0472 -0.0026
 7489TIP3    H143882   1.517   2.253  12.140  1.6640 -2.1617 -0.0960
 7489TIP3    H243883   1.602   2.268  12.265  0.1279  0.1248  0.7474
 7490TIP3   OH243884   2.600   0.964   1.125 -0.3172 -0.0656 -0.4515
 7490TIP3    H143885   2.651   0.994   1.200 -0.1177 -0.4794 -0.4162
 7490TIP3    H243886   2.641   1.008   1.050 -0.5926  0.4406 -0.3067
 7491TIP3   OH243887   5.229   0.176  14.000 -0.0680  0.5656  0.3298
 7491TIP3    H143888   5.294   0.174  13.929 -0.4333  0.5320 -0.0090
 7491TIP3    H243889   5.152   0.131  13.963 -0.0817  0.0784  0.9259
 7492TIP3   OH243890   6.027   1.745  11.772  0.4892 -0.2171  0.0625
 7492TIP3    H143891   6.042   1.769  11.681 -0.8100  1.8483  0.3328
 7492TIP3    H243892   6.099   1.786  11.820 -0.2629  0.9499  0.2265
 7493TIP3   OH243893   6.507   4.885  17.138  0.1125  0.0336  0.2040
 7493TIP3    H143894   6.544   4.802  17.169  0.2450  0.2997  0.7829
 7493TIP3    H243895   6.494   4.937  17.218  0.8834  0.9230 -0.2290
 7494TIP3   OH243896   1.042   5.482   1.039 -0.5166 -0.0409 -0.4603
 7494TIP3    H143897   1.044   5.523   1.125 -0.4917 -0.3168 -0.3266
 7494TIP3    H243898   1.055   5.554   0.977  0.6840 -0.0058 -0.1845
 7495TIP3   OH243899   1.075   3.440  14.733 -0.5260  0.0477 -0.1605
 7495TIP3    H143900   1.051   3.359  14.688 -0.4218  0.2800 -0.6357
 7495TIP3    H243901   1.163   3.460  14.701 -1.3787  1.5267 -1.7207
 7496TIP3   OH243902   6.680   3.692  14.025 -0.0266  0.1531 -0.2122
 7496TIP3    H143903   6.650   3.760  14.084  0.8267  2.0465 -1.8616
 7496TIP3    H243904   6.607   3.679  13.964 -0.8997 -1.7856  1.1229
 7497TIP3   OH243905   1.665   2.337  10.519 -0.2501 -0.6041 -0.4054
 7497TIP3    H143906   1.687   2.244  10.519  0.7660 -0.3752 -1.1257
 7497TIP3    H243907   1.577   2.340  10.557  0.3145 -1.6968  1.1159
 7498TIP3   OH243908   2.547   2.204  14.040 -0.1065 -0.7718  0.1863
 7498TIP3    H143909   2.508   2.118  14.056  1.2755 -2.2644 -3.3456
 7498TIP3    H243910   2.641   2.190  14.054 -0.0359  0.7185  1.3777
 7499TIP3   OH243911   2.718   2.169   5.823  0.1308 -0.4364 -0.2357
 7499TIP3    H143912   2.643   2.160   5.764 -0.0032  1.7035 -0.4360
 7499TIP3    H243913   2.747   2.079   5.836 -2.8395 -1.4318  0.3564
 7500TIP3   OH243914   2.032   2.124  14.286 -0.1497  0.1511 -0.5645
 7500TIP3    H143915   2.089   2.180  14.339 -0.1348  1.1697 -1.6041
 7500TIP3    H243916   1.971   2.085  14.348  1.3699 -0.6004  0.5131
 7501TIP3   OH243917   1.116   5.683   0.865 -0.0200 -0.5297 -0.3230
 7501TIP3    H143918   1.112   5.765   0.913 -1.9002 -1.2767  0.8815
 7501TIP3    H243919   1.205   5.680   0.830  0.0691  2.0251 -0.4568
 7502TIP3   OH243920   3.708   1.042  16.105 -0.3740  0.1662 -0.0397
 7502TIP3    H143921   3.794   1.080  16.089 -0.8485  1.1630 -0.2860
 7502TIP3    H243922   3.680   1.007  16.021 -0.8737  1.2425 -0.3288
 7503TIP3   OH243923   5.398   5.890   5.415 -0.1581 -0.1308 -0.0142
 7503TIP3    H143924   5.306   5.900   5.393 -0.0369 -0.0758 -0.4946
 7503TIP3    H243925   5.424   5.975   5.450 -0.8883 -0.8064  2.3690
 7504TIP3   OH243926   5.674   3.739  17.020 -0.6410 -0.1083 -0.1294
 7504TIP3    H143927   5.675   3.670  17.086 -1.1364  1.5200  1.6680
 7504TIP3    H243928   5.746   3.717  16.961 -0.2503 -1.6857  0.8905
 7505TIP3   OH243929   2.483   6.114   3.959  0.6358 -0.1012  0.1722
 7505TIP3    H143930   2.420   6.181   3.986  0.7751 -0.0451  0.3646
 7505TIP3    H243931   2.463   6.039   4.015 -1.6551 -1.4098 -2.1874
 7506TIP3   OH243932   2.031   5.649   3.809 -0.3081  0.0275  0.6712
 7506TIP3    H143933   2.048   5.564   3.769 -1.1198  0.0499  0.2556
 7506TIP3    H243934   1.936   5.655   3.812 -0.2652  1.1681  0.1625
 7507TIP3   OH243935   5.058   1.498   4.896  0.4251 -0.0429 -0.4259
 7507TIP3    H143936   5.063   1.461   4.985  0.2222  0.3691 -0.2392
 7507TIP3    H243937   4.965   1.516   4.883  0.0880 -2.3091 -1.6566
 7508TIP3   OH243938   2.494   2.738   0.017  0.2040  0.1813 -0.8819
 7508TIP3    H143939   2.478   2.649  -0.015 -0.6197  0.3641 -0.9746
 7508TIP3    H243940   2.463   2.795  -0.052  0.5351  0.5528 -0.7288
 7509TIP3   OH243941   5.619   4.111  14.969 -0.0640  0.1198  1.0154
 7509TIP3    H143942   5.630   4.142  15.059  3.6050 -1.5506  1.3365
 7509TIP3    H243943   5.666   4.175  14.915 -1.9455  0.9211  0.2264
 7510TIP3   OH243944   3.461   3.542   4.007  0.2496  0.1114  0.0841
 7510TIP3    H143945   3.474   3.634   4.031 -0.8879  0.8637 -1.9010
 7510TIP3    H243946   3.536   3.521   3.951 -0.6374  0.6041 -1.3478
 7511TIP3   OH243947   0.053   3.336  15.604 -0.2815  0.3115 -0.1434
 7511TIP3    H143948   0.015   3.257  15.567 -0.9284 -0.1687  1.4652
 7511TIP3    H243949   0.143   3.337  15.573 -0.9426  0.2853 -2.1952
 7512TIP3   OH243950   5.375   4.042   2.318 -0.1149  0.3601  0.2532
 7512TIP3    H143951   5.398   4.126   2.279  3.0563  1.6230  4.0687
 7512TIP3    H243952   5.435   3.979   2.278  0.2922  0.7853  0.1844
 7513TIP3   OH243953   6.072   5.882  14.003  0.4160  0.5786 -0.1150
 7513TIP3    H143954   6.074   5.796  13.961 -0.3705 -0.1754  1.3196
 7513TIP3    H243955   6.014   5.870  14.079  0.4960  2.3086  0.2492
 7514TIP3   OH243956   5.517   0.416  12.278 -0.1463 -0.2819 -0.2650
 7514TIP3    H143957   5.555   0.431  12.191 -1.2527 -0.6367 -0.8211
 7514TIP3    H243958   5.445   0.355  12.263 -1.5350  1.0695  0.6161
 7515TIP3   OH243959   4.232   2.504   1.722 -1.1871 -0.0328 -0.2700
 7515TIP3    H143960   4.184   2.522   1.642  0.5335  0.7981 -1.1737
 7515TIP3    H243961   4.304   2.447   1.695 -0.4535  0.4359  0.6187
 7516TIP3   OH243962   2.070   6.630  12.136  0.7457  0.3911  0.3422
 7516TIP3    H143963   2.087   6.560  12.072 -1.3444  0.0444  0.1110
 7516TIP3    H243964   2.157   6.651  12.170  1.5526 -1.7422 -0.1689
 7517TIP3   OH243965   2.095   3.348   0.160  0.0031  0.4697  0.2763
 7517TIP3    H143966   2.084   3.253   0.162  0.9081  0.3449 -0.0626
 7517TIP3    H243967   2.159   3.366   0.230  0.0646  0.7931  0.1381
 7518TIP3   OH243968   4.827   0.523   0.361 -0.5037 -0.7673 -0.2559
 7518TIP3    H143969   4.748   0.563   0.325 -1.5512  0.0653  2.6774
 7518TIP3    H243970   4.798   0.438   0.394  0.4939 -1.6645 -1.6167
 7519TIP3   OH243971   0.896   3.055   4.095 -0.0228 -0.5839 -0.6036
 7519TIP3    H143972   0.814   3.096   4.068 -0.0658 -0.2219  0.0417
 7519TIP3    H243973   0.872   2.999   4.168  0.3112 -0.4295 -0.3718
 7520TIP3   OH243974   0.804   0.076  14.627  0.3609  0.2111  0.5083
 7520TIP3    H143975   0.881   0.046  14.675  0.7239  0.8994  0.3629
 7520TIP3    H243976   0.731   0.030  14.669  0.6988  0.5999  1.5487
 7521TIP3   OH243977   4.807   5.531   6.812  0.2660  0.3572  0.2928
 7521TIP3    H143978   4.895   5.538   6.849  0.1669  0.1872  0.5538
 7521TIP3    H243979   4.812   5.456   6.752  0.5233  0.8471 -0.3166
 7522TIP3   OH243980   6.036   4.419   3.829  0.1410 -0.2510 -0.2121
 7522TIP3    H143981   5.959   4.426   3.886 -0.2850  1.4535 -0.9661
 7522TIP3    H243982   6.002   4.386   3.746  0.5450 -1.3297  0.0286
 7523TIP3   OH243983   0.048   2.185   4.700  0.2821  0.0496  0.3223
 7523TIP3    H143984  -0.004   2.105   4.690 -0.7356  0.6203  0.8858
 7523TIP3    H243985   0.023   2.240   4.627  3.0144 -1.1536 -1.7058
 7524TIP3   OH243986   1.023   5.461  13.467 -0.5490  0.3067  0.1227
 7524TIP3    H143987   1.100   5.426  13.424  0.6081  0.8637  1.6582
 7524TIP3    H243988   0.977   5.510  13.399 -0.2226 -1.0346 -1.1091
 7525TIP3   OH243989   2.368   1.000  11.656 -0.1687  0.5082  0.4602
 7525TIP3    H143990   2.296   0.996  11.594  0.2629 -1.9441  0.0095
 7525TIP3    H243991   2.348   0.931  11.720  1.1080  0.6730  1.0684
 7526TIP3   OH243992   0.039   5.446   4.982  0.7444  0.7827  0.0070
 7526TIP3    H143993   0.108   5.384   5.008 -0.3592 -0.5810 -0.1962
 7526TIP3    H243994   0.064   5.474   4.894  0.3834 -0.7597 -0.6292
 7527TIP3   OH243995   3.933   3.178   1.749 -1.0342 -0.2523 -0.4579
 7527TIP3    H143996   3.965   3.140   1.831 -1.8161  2.7369  1.3735
 7527TIP3    H243997   3.932   3.104   1.688  0.8329 -2.3431  1.8068
 7528TIP3   OH243998   1.488   2.339  14.638  0.7305 -0.2507 -0.0112
 7528TIP3    H143999   1.507   2.285  14.561 -0.5535  0.2380 -0.6982
 7528TIP3    H244000   1.572   2.347  14.682  1.1197 -2.1324 -0.3139
 7529TIP3   OH244001   2.058   2.785  15.638  0.5928 -0.0180  0.0806
 7529TIP3    H144002   2.083   2.743  15.720  1.2609 -0.3951 -0.3105
 7529TIP3    H244003   2.136   2.779  15.583  0.1332  0.1813 -0.6061
 7530TIP3   OH244004   6.098   5.288  11.617 -0.4827 -0.1435  0.4354
 7530TIP3    H144005   6.072   5.376  11.590 -0.4041 -0.3871 -0.4752
 7530TIP3    H244006   6.184   5.300  11.658 -0.8890  0.3245  1.1585
 7531TIP3   OH244007   4.875   0.956  16.030  0.2821  0.0686 -0.0478
 7531TIP3    H144008   4.943   1.004  15.983  0.3212 -1.7943 -2.0828
 7531TIP3    H244009   4.793   1.001  16.006  0.5570  0.9775  0.6406
 7532TIP3   OH244010   3.668   3.721   3.662 -0.1818 -0.3384  0.1362
 7532TIP3    H144011   3.646   3.761   3.746 -0.5389  1.4150 -0.7381
 7532TIP3    H244012   3.709   3.791   3.612 -2.0362 -0.6185 -1.9514
 7533TIP3   OH244013   2.155   6.760   3.426 -0.1714 -0.6036 -0.4422
 7533TIP3    H144014   2.122   6.787   3.340  2.2629  1.5496 -0.8486
 7533TIP3    H244015   2.106   6.812   3.489  0.0390  0.0094 -0.7783
 7534TIP3   OH244016   1.025   1.496  12.753  1.1128  0.0394 -0.0687
 7534TIP3    H144017   0.988   1.410  12.773 -0.4600  0.2374 -1.8647
 7534TIP3    H244018   1.053   1.490  12.661  1.4585  1.2899 -0.0673
 7535TIP3   OH244019   3.936   2.749   1.689 -0.4384 -0.0477  0.6618
 7535TIP3    H144020   3.848   2.755   1.650  0.2399  2.6394 -0.6858
 7535TIP3    H244021   3.990   2.711   1.619 -0.3809 -1.1138  1.2702
 7536TIP3   OH244022   3.455   5.399  16.674  0.8083  0.3985  0.3384
 7536TIP3    H144023   3.540   5.425  16.709  0.5534  1.3722  0.2661
 7536TIP3    H244024   3.409   5.482  16.659  0.1833 -0.0783 -0.4649
 7537TIP3   OH244025   5.345   5.788   5.845  0.7168 -0.2125  0.4864
 7537TIP3    H144026   5.308   5.874   5.863  1.3667  0.2868 -0.4826
 7537TIP3    H244027   5.406   5.772   5.918  0.0501 -0.1903  1.0577
 7538TIP3   OH244028   5.782   1.995   0.754 -0.3520  0.1261 -0.0207
 7538TIP3    H144029   5.703   1.970   0.706  0.9142 -0.3036 -1.9909
 7538TIP3    H244030   5.846   1.928   0.733  1.2073  1.6290 -0.2737
 7539TIP3   OH244031   3.534   6.285   0.924  0.6499 -0.5492  0.4645
 7539TIP3    H144032   3.454   6.338   0.922  0.9650 -0.0640  0.4876
 7539TIP3    H244033   3.510   6.207   0.974  0.6886  0.4435  2.1447
 7540TIP3   OH244034   5.869   3.344  14.374 -0.6342  0.0683 -0.0653
 7540TIP3    H144035   5.853   3.410  14.441 -2.1656  0.1686 -0.4838
 7540TIP3    H244036   5.908   3.392  14.301  0.8776 -0.0120  0.6443
 7541TIP3   OH244037   0.872   2.852  15.166  0.2091 -0.0749 -0.0787
 7541TIP3    H144038   0.805   2.807  15.219  0.3131  0.1167  0.2186
 7541TIP3    H244039   0.839   2.845  15.076 -2.4168  3.5546  0.3521
 7542TIP3   OH244040   5.427   1.062  12.076  0.4153  0.7958 -0.6506
 7542TIP3    H144041   5.376   1.076  11.997 -0.8335  1.1125  0.1870
 7542TIP3    H244042   5.363   1.035  12.142  1.5559 -0.3599  0.0304
 7543TIP3   OH244043   1.869   4.597   4.232  0.0194  0.1665  0.2585
 7543TIP3    H144044   1.817   4.518   4.216 -0.3085  0.5280 -0.5272
 7543TIP3    H244045   1.899   4.589   4.323 -2.1862  0.3952  1.0577
 7544TIP3   OH244046   1.481   2.670   6.477  0.0052 -0.2206 -0.1586
 7544TIP3    H144047   1.469   2.576   6.467 -3.3525  0.3303 -3.4048
 7544TIP3    H244048   1.408   2.698   6.532 -0.1110  0.7116 -0.7734
 7545TIP3   OH244049   4.545   4.575   4.491 -0.3294  0.2395 -0.6352
 7545TIP3    H144050   4.514   4.566   4.401  0.9692  0.2212 -1.1129
 7545TIP3    H244051   4.467   4.593   4.543 -1.0797  0.3593 -1.7841
 7546TIP3   OH244052   2.116   4.127  15.249 -0.2287  0.4067  0.0440
 7546TIP3    H144053   2.074   4.197  15.199 -2.4020 -0.3780  0.6521
 7546TIP3    H244054   2.052   4.103  15.315  1.0557 -1.1736  0.7872
 7547TIP3   OH244055   1.795   5.100  13.701  0.0047 -0.0691 -0.0815
 7547TIP3    H144056   1.858   5.129  13.636  0.2507  0.4860  0.3908
 7547TIP3    H244057   1.843   5.103  13.784  0.0181 -1.7952 -0.0088
 7548TIP3   OH244058   0.235   6.184   4.207  0.1384 -0.2974 -0.0723
 7548TIP3    H144059   0.196   6.117   4.150  0.1973 -1.1634  0.8689
 7548TIP3    H244060   0.164   6.209   4.266  0.5370 -0.6582  0.5702
 7549TIP3   OH244061   5.249   5.357  11.663  0.0745 -0.4761  0.8076
 7549TIP3    H144062   5.210   5.392  11.583  1.1772  1.2836  0.9745
 7549TIP3    H244063   5.206   5.272  11.676  0.3053 -1.1104 -1.9619
 7550TIP3   OH244064   6.637   3.641   2.737  0.0777 -0.0916  0.1643
 7550TIP3    H144065   6.716   3.691   2.716  0.4909 -0.7609  0.0959
 7550TIP3    H244066   6.576   3.663   2.666  0.5500 -0.3235 -0.3198
 7551TIP3   OH244067   6.016   3.418   5.945 -0.1952 -0.5058  0.4262
 7551TIP3    H144068   5.927   3.391   5.925 -0.0949  0.2869 -1.1703
 7551TIP3    H244069   6.007   3.503   5.989 -0.1749  0.6587 -1.7090
 7552TIP3   OH244070   0.186   1.817  17.235 -0.3835 -0.7746 -0.0342
 7552TIP3    H144071   0.234   1.806  17.154 -0.6414  1.1972 -0.5152
 7552TIP3    H244072   0.114   1.754  17.230  1.5212 -3.0748  0.2733
 7553TIP3   OH244073   6.240   0.303  11.051  0.7508  0.4660 -0.4154
 7553TIP3    H144074   6.309   0.261  10.999  3.2355  2.8209  0.7072
 7553TIP3    H244075   6.164   0.307  10.993  1.4322 -2.4079 -1.6667
 7554TIP3   OH244076   4.530   2.999   3.345 -0.3259 -0.0099  0.3742
 7554TIP3    H144077   4.602   2.982   3.406  0.8136 -1.8990 -1.3491
 7554TIP3    H244078   4.574   3.017   3.262 -1.8552  0.7589 -0.2995
 7555TIP3   OH244079   4.906   0.260  14.123 -0.2793  0.7745  0.6989
 7555TIP3    H144080   4.933   0.319  14.053  1.1939  0.4497  0.9717
 7555TIP3    H244081   4.863   0.187  14.077  1.0894  0.3393  0.0713
 7556TIP3   OH244082   4.640   1.255  12.466 -0.1015 -0.4755  0.7453
 7556TIP3    H144083   4.698   1.193  12.423 -1.3316 -1.7743  0.8739
 7556TIP3    H244084   4.653   1.240  12.559 -0.2560 -0.4017  0.7795
 7557TIP3   OH244085   3.556   2.054  14.339  0.0825  0.0804  0.5845
 7557TIP3    H144086   3.625   2.086  14.281 -1.3357  3.1702  0.4173
 7557TIP3    H244087   3.600   2.037  14.422  1.0755  2.1683  0.5510
 7558TIP3   OH244088   1.835   4.175  13.654  0.1971  0.0575 -0.1575
 7558TIP3    H144089   1.816   4.192  13.747 -1.6240  0.0635 -0.4908
 7558TIP3    H244090   1.808   4.085  13.640  0.6883 -0.0212 -0.6412
 7559TIP3   OH244091   3.739   3.418  14.570 -0.7476 -0.4336  0.1970
 7559TIP3    H144092   3.746   3.373  14.654 -0.9396 -1.2785 -0.2252
 7559TIP3    H244093   3.675   3.487  14.584  0.7558  0.8205  1.3198
 7560TIP3   OH244094   0.128   5.094  14.887  0.0926 -0.2967 -0.3727
 7560TIP3    H144095   0.120   5.110  14.982 -0.3275  1.8210 -0.7163
 7560TIP3    H244096   0.218   5.119  14.866 -0.5787  1.8382 -0.9285
 7561TIP3   OH244097   6.089   0.175   2.921  0.0469  0.3016  0.9553
 7561TIP3    H144098   6.025   0.234   2.960 -0.1788  0.7225 -0.0271
 7561TIP3    H244099   6.074   0.091   2.963 -0.9543  0.4724  0.9524
 7562TIP3   OH244100   5.230   2.944  10.929  0.5662  0.1339 -0.1916
 7562TIP3    H144101   5.291   3.016  10.942  0.7832 -0.2994  1.3861
 7562TIP3    H244102   5.285   2.866  10.927  0.0795 -0.4073  2.5550
 7563TIP3   OH244103   0.181   0.693   0.715  0.3808  0.3774  0.0027
 7563TIP3    H144104   0.218   0.777   0.688 -0.0845  0.4160 -0.5363
 7563TIP3    H244105   0.106   0.716   0.770  0.8309  0.3022  0.6631
 7564TIP3   OH244106   4.534   3.084   5.844  0.5329  0.6260 -0.3310
 7564TIP3    H144107   4.522   3.087   5.939  1.1672  0.3349 -0.2386
 7564TIP3    H244108   4.516   2.993   5.820  2.7370  0.0892 -0.1467
 7565TIP3   OH244109   0.707   4.651  16.683 -0.2308 -0.1431 -0.5824
 7565TIP3    H144110   0.740   4.608  16.604 -0.5850  0.1433 -0.8919
 7565TIP3    H244111   0.723   4.588  16.753  1.5430  0.2516 -0.6047
 7566TIP3   OH244112   4.725   2.974  13.598  0.3560  0.2978  0.0272
 7566TIP3    H144113   4.689   2.894  13.635  1.2669 -0.2566 -0.2518
 7566TIP3    H244114   4.652   3.037  13.601 -0.3738 -0.5374  0.2217
 7567TIP3   OH244115   1.183   3.605   1.735  0.0987 -0.4221  0.2460
 7567TIP3    H144116   1.259   3.650   1.771 -0.0725 -1.1324  1.5707
 7567TIP3    H244117   1.192   3.514   1.765 -0.5259 -0.8570 -0.7987
 7568TIP3   OH244118   3.416   3.857   0.912  0.0589 -0.2070  0.4057
 7568TIP3    H144119   3.432   3.950   0.928  0.0603 -0.3827  1.4965
 7568TIP3    H244120   3.320   3.851   0.904  0.1020 -0.0213 -0.3478
 7569TIP3   OH244121   3.859   6.191  13.367  0.0902 -0.6256 -0.5586
 7569TIP3    H144122   3.790   6.256  13.351  0.0721 -1.3312 -4.2202
 7569TIP3    H244123   3.812   6.116  13.404 -0.8999 -0.5457 -1.5884
 7570TIP3   OH244124   5.710   3.885  12.159  0.0551  0.3943 -0.2330
 7570TIP3    H144125   5.672   3.858  12.242 -0.5148 -0.5577 -0.7841
 7570TIP3    H244126   5.796   3.843  12.157 -0.5445 -0.8759 -0.7751
 7571TIP3   OH244127   0.425   3.794   3.438  0.3883  0.3011 -0.2588
 7571TIP3    H144128   0.373   3.869   3.467 -0.0616 -0.7233  1.7096
 7571TIP3    H244129   0.403   3.724   3.498  5.0449  0.1204  1.7007
 7572TIP3   OH244130   4.407   6.402  11.397 -0.1926 -0.3070  0.6102
 7572TIP3    H144131   4.429   6.476  11.340  0.8034  0.2798  1.7110
 7572TIP3    H244132   4.369   6.443  11.475  1.0678 -0.8850  1.5525
 7573TIP3   OH244133   0.192   1.495   3.635  0.0227  0.5785  0.0465
 7573TIP3    H144134   0.210   1.523   3.725 -0.3680  1.2404 -0.0730
 7573TIP3    H244135   0.171   1.402   3.643 -1.6048  0.9771  0.8805
 7574TIP3   OH244136   2.468   6.290  13.563 -0.0775 -0.6044 -0.0283
 7574TIP3    H144137   2.549   6.296  13.613 -0.8393  0.4132  1.1644
 7574TIP3    H244138   2.430   6.378  13.569 -0.8675 -0.8317 -1.2735
 7575TIP3   OH244139   6.015   2.738  12.026  0.3610  0.9844  0.0824
 7575TIP3    H144140   5.931   2.728  12.071  1.3411  1.4415  2.1418
 7575TIP3    H244141   5.992   2.758  11.936 -1.7490  1.2810  0.6400
 7576TIP3   OH244142   3.494   1.844  16.680  0.0136  0.1483  0.1674
 7576TIP3    H144143   3.519   1.758  16.714  1.1118  1.3448  2.6551
 7576TIP3    H244144   3.423   1.872  16.738 -0.8134  0.6805 -1.0591
 7577TIP3   OH244145   3.943   3.397   5.353 -0.0712 -0.5176 -0.5203
 7577TIP3    H144146   3.888   3.429   5.424 -0.1867 -0.3041 -0.7085
 7577TIP3    H244147   3.886   3.339   5.303  0.5905 -2.4311  0.8117
 7578TIP3   OH244148   5.553   1.511   0.965 -0.1310 -0.3041 -0.9150
 7578TIP3    H144149   5.482   1.482   1.021  2.0326  0.5824  2.6153
 7578TIP3    H244150   5.546   1.607   0.964  2.0825  0.0127  1.4111
 7579TIP3   OH244151   1.124   4.899  14.464  0.3413 -0.1800  0.3733
 7579TIP3    H144152   1.051   4.960  14.453  0.8422  0.1159 -1.9771
 7579TIP3    H244153   1.194   4.936  14.411  0.6021 -2.8515 -1.3677
 7580TIP3   OH244154   0.684   1.505  14.296 -0.1339 -0.0635 -0.0343
 7580TIP3    H144155   0.686   1.446  14.221 -2.0885 -0.7714  0.4128
 7580TIP3    H244156   0.713   1.452  14.370 -1.9592 -0.5488  0.3812
 7581TIP3   OH244157   1.588   2.413   4.264 -0.0497 -0.4807 -0.3650
 7581TIP3    H144158   1.544   2.334   4.295 -0.1494  0.0487  0.9116
 7581TIP3    H244159   1.539   2.438   4.185 -0.8505 -0.9569 -0.0344
 7582TIP3   OH244160   5.657   1.819  12.244  0.5908  0.8109 -0.6836
 7582TIP3    H144161   5.603   1.835  12.321 -0.8841  0.3977 -1.5785
 7582TIP3    H244162   5.640   1.894  12.187 -0.3499 -0.0764 -1.6414
 7583TIP3   OH244163   2.063   0.474   1.892  0.5180 -0.3510 -0.2185
 7583TIP3    H144164   2.083   0.489   1.984 -1.5133 -1.8538  0.5551
 7583TIP3    H244165   2.119   0.401   1.867 -0.2688 -1.1929  0.4168
 7584TIP3   OH244166   0.796   3.065  15.331  0.2201 -0.5432  0.2675
 7584TIP3    H144167   0.851   2.999  15.290  1.6776 -0.6203  2.1773
 7584TIP3    H244168   0.730   3.015  15.380 -0.5539 -0.4898 -0.7063
 7585TIP3   OH244169   0.773   6.194  16.535  0.4866 -0.4946  0.1244
 7585TIP3    H144170   0.737   6.165  16.451  0.5567  0.7966 -0.3669
 7585TIP3    H244171   0.699   6.236  16.580  0.9396  0.6346 -0.1639
 7586TIP3   OH244172   4.887   1.597  11.020 -0.4180  0.9406  0.2971
 7586TIP3    H144173   4.836   1.604  10.940  0.1869  2.2076 -0.0062
 7586TIP3    H244174   4.910   1.504  11.026 -0.7604  0.7687 -0.8165
 7587TIP3   OH244175   5.453   0.139   1.544 -0.1103  0.0858 -0.0110
 7587TIP3    H144176   5.491   0.051   1.548 -0.8308 -0.2066  0.5737
 7587TIP3    H244177   5.498   0.181   1.470 -0.8851 -1.3125 -1.3438
 7588TIP3   OH244178   3.029   5.131  14.272 -0.3306 -0.3924  0.0480
 7588TIP3    H144179   3.001   5.209  14.319 -1.7361 -0.4259 -0.6925
 7588TIP3    H244180   2.976   5.060  14.309 -0.5468 -0.6290 -0.7014
 7589TIP3   OH244181   4.519   0.965  13.714  0.2584  0.0725  1.1124
 7589TIP3    H144182   4.537   1.020  13.638 -0.7422 -2.4428 -1.0972
 7589TIP3    H244183   4.439   1.003  13.751 -0.3109  0.2741 -0.2356
 7590TIP3   OH244184   6.053   1.785  15.043  0.1391  0.1532  0.1723
 7590TIP3    H144185   6.036   1.813  15.133 -1.7905  0.7557 -0.3248
 7590TIP3    H244186   6.051   1.690  15.046 -0.3501  0.1749  0.7080
 7591TIP3   OH244187   2.094   2.864  12.495 -0.2871 -0.0300 -0.0860
 7591TIP3    H144188   2.168   2.906  12.451  1.4911 -1.1010  1.6689
 7591TIP3    H244189   2.018   2.917  12.471  1.6639  3.9088  1.5460
 7592TIP3   OH244190   4.241   4.292  16.996  0.2305  0.0982 -0.0794
 7592TIP3    H144191   4.245   4.379  16.956  1.4705  0.4204  0.6705
 7592TIP3    H244192   4.281   4.234  16.931 -2.6152 -0.3694 -1.5556
 7593TIP3   OH244193   2.978   5.935   1.980  0.1829 -0.1876 -0.0765
 7593TIP3    H144194   2.913   5.953   2.048 -0.5724 -0.2522 -0.7589
 7593TIP3    H244195   3.063   5.944   2.024 -0.2629  0.8262  0.6199
 7594TIP3   OH244196   3.690   6.343   1.340 -0.1344 -0.1299 -0.8424
 7594TIP3    H144197   3.608   6.335   1.388  0.8270  0.5996  1.0392
 7594TIP3    H244198   3.741   6.267   1.367  0.6426  0.5966 -0.1823
 7595TIP3   OH244199   1.776   0.435  14.731  0.2188  0.0076  0.0328
 7595TIP3    H144200   1.713   0.391  14.789  1.1083 -1.7813 -0.2896
 7595TIP3    H244201   1.739   0.425  14.644  0.3187  0.0576 -0.0155
 7596TIP3   OH244202   1.552   4.998  12.487 -0.2711 -0.1750  0.3561
 7596TIP3    H144203   1.518   4.908  12.492  0.5879 -0.4493  1.7006
 7596TIP3    H244204   1.610   5.006  12.563 -1.6845  2.0899  1.2788
 7597TIP3   OH244205   2.686   4.530  15.867 -0.2017  0.1934 -0.4249
 7597TIP3    H144206   2.649   4.618  15.860 -1.3292 -0.3360 -1.4158
 7597TIP3    H244207   2.613   4.472  15.846  0.5389 -0.9863  0.1915
 7598TIP3   OH244208   4.355   6.635   5.376  0.2759  0.5836 -0.1021
 7598TIP3    H144209   4.361   6.569   5.446  1.7502  2.4207  1.6050
 7598TIP3    H244210   4.293   6.597   5.313 -0.4759 -1.5328  1.7679
 7599TIP3   OH244211   5.583   5.689   6.870 -0.0796  0.0770  0.0737
 7599TIP3    H144212   5.616   5.704   6.782 -0.4970 -0.3406 -0.1561
 7599TIP3    H244213   5.661   5.691   6.926  0.0986  1.0953 -0.1986
 7600TIP3   OH244214   0.417   2.454  17.091 -0.4154  0.9242  0.6885
 7600TIP3    H144215   0.370   2.373  17.071 -1.9696  2.1625 -1.0372
 7600TIP3    H244216   0.509   2.428  17.095 -0.8271 -0.8483 -0.3176
 7601TIP3   OH244217   2.203   1.715  10.994  0.2519  0.0540 -0.1200
 7601TIP3    H144218   2.229   1.746  11.080 -2.6958  0.9240  0.5795
 7601TIP3    H244219   2.221   1.621  10.995 -2.1448 -0.5066  2.5685
 7602TIP3   OH244220   4.955   6.181   0.583 -0.2792 -0.6502  0.0087
 7602TIP3    H144221   5.011   6.242   0.630  1.8322 -1.5014 -1.2849
 7602TIP3    H244222   4.901   6.141   0.651 -0.5110  1.3584  1.0809
 7603TIP3   OH244223   6.543   0.104  12.499  0.3970 -0.2759 -0.2038
 7603TIP3    H144224   6.495   0.122  12.580 -0.3774 -0.7087 -0.5538
 7603TIP3    H244225   6.491   0.146  12.430  0.9309 -0.0979 -0.5097
 7604TIP3   OH244226   3.746   4.451  13.833  0.4495 -0.3670  0.3358
 7604TIP3    H144227   3.719   4.465  13.924 -1.1346  2.4032 -0.4372
 7604TIP3    H244228   3.705   4.369  13.808 -2.3155  0.6794  1.0812
 7605TIP3   OH244229   2.921   2.948   3.545  0.0464  0.1138  0.5730
 7605TIP3    H144230   2.864   3.025   3.555 -0.1220 -0.0312  0.7271
 7605TIP3    H244231   2.970   2.966   3.465 -0.5104  0.0520  0.2072
 7606TIP3   OH244232   2.430   2.591  14.346  0.4206  0.4369 -0.6176
 7606TIP3    H144233   2.419   2.685  14.327  0.9750  0.9173  1.2753
 7606TIP3    H244234   2.518   2.571  14.315  1.5688  1.3693  1.8386
 7607TIP3   OH244235   4.435   0.108  13.502  0.5200 -0.5856 -0.0118
 7607TIP3    H144236   4.446   0.173  13.572 -1.1196  1.0534 -1.1698
 7607TIP3    H244237   4.407   0.029  13.548 -0.2173  0.3468  1.2381
 7608TIP3   OH244238   1.655   6.535  14.165  0.6228 -0.7048 -0.6560
 7608TIP3    H144239   1.595   6.572  14.101  2.2371  0.5074 -1.5377
 7608TIP3    H244240   1.648   6.440  14.153  0.9609 -0.5111 -2.7293
 7609TIP3   OH244241   5.019   0.063   0.074 -0.1230 -0.0355  0.0700
 7609TIP3    H144242   5.026   0.073  -0.020  2.2998 -4.8283 -0.5960
 7609TIP3    H244243   5.072   0.134   0.110 -1.6130  2.2811 -1.9833
 7610TIP3   OH244244   4.324   6.245  11.178  0.1065  0.0472 -0.1430
 7610TIP3    H144245   4.343   6.296  11.099 -1.2450  0.0701 -0.4858
 7610TIP3    H244246   4.335   6.306  11.250  2.6387 -0.2999 -0.1474
 7611TIP3   OH244247   5.796   5.136   4.773  0.1089  0.3991 -0.1878
 7611TIP3    H144248   5.843   5.121   4.855 -3.8539  2.8426  2.8984
 7611TIP3    H244249   5.756   5.051   4.753 -0.0253  0.0965  1.2595
 7612TIP3   OH244250   2.014   4.337  16.492  0.0681  0.0228 -0.2259
 7612TIP3    H144251   2.106   4.310  16.495  0.2732  0.7817  0.7657
 7612TIP3    H244252   1.970   4.280  16.555 -0.0176  0.1328 -0.1867
 7613TIP3   OH244253   1.343   0.506   3.506  1.0020 -0.4894 -0.1266
 7613TIP3    H144254   1.311   0.423   3.543 -1.0143  0.8271  1.2541
 7613TIP3    H244255   1.436   0.490   3.489  0.4303 -3.4354 -1.1282
 7614TIP3   OH244256   2.977   0.441   4.105 -0.2442  0.2835  0.2191
 7614TIP3    H144257   3.049   0.410   4.050 -0.4677  1.7116 -0.9403
 7614TIP3    H244258   2.906   0.459   4.044 -0.0625  3.2016  0.6954
 7615TIP3   OH244259   6.478   2.771   1.025  0.7310 -0.1445 -0.4138
 7615TIP3    H144260   6.471   2.812   1.111  0.8827  1.1029 -0.9842
 7615TIP3    H244261   6.528   2.691   1.041  0.2767 -0.2170  0.7488
 7616TIP3   OH244262   4.334   3.195   3.423  0.4885 -0.3473 -0.0203
 7616TIP3    H144263   4.386   3.120   3.398  2.3798  0.2815  1.7146
 7616TIP3    H244264   4.340   3.256   3.349  0.1020 -1.2963 -0.8485
 7617TIP3   OH244265   2.579   0.143  11.292  0.1540 -0.6303 -0.2338
 7617TIP3    H144266   2.570   0.144  11.197  0.1552 -1.0536 -0.2376
 7617TIP3    H244267   2.576   0.236  11.317  1.1170 -0.4542 -0.7302
 7618TIP3   OH244268   2.499   5.418   2.606  0.8380 -0.0711 -0.2266
 7618TIP3    H144269   2.592   5.396   2.606  1.4737  2.2015  1.2191
 7618TIP3    H244270   2.459   5.354   2.664  1.6025 -0.7020 -0.3816
 7619TIP3   OH244271   1.083   1.940   5.714 -0.0896  0.9196  0.4181
 7619TIP3    H144272   1.088   1.874   5.783 -0.3126  0.7568  0.2811
 7619TIP3    H244273   1.075   1.889   5.633 -4.0881  1.0136  0.5338
 7620TIP3   OH244274   6.536   4.577   3.606 -0.8956  0.2342 -0.1880
 7620TIP3    H144275   6.604   4.516   3.575 -1.1710  0.4935 -1.3398
 7620TIP3    H244276   6.554   4.658   3.560  0.1007  1.4160  2.1053
 7621TIP3   OH244277   3.606   5.351   3.422  0.0262 -0.0445  0.0071
 7621TIP3    H144278   3.621   5.434   3.467 -1.3021  0.7102 -0.8768
 7621TIP3    H244279   3.641   5.285   3.482  2.1957  1.1973  0.2004
 7622TIP3   OH244280   6.403   6.118  14.790  0.7133 -0.6253  0.0731
 7622TIP3    H144281   6.382   6.025  14.790  0.8783 -0.6629  0.6228
 7622TIP3    H244282   6.366   6.150  14.708 -1.3420 -0.7205  0.9075
 7623TIP3   OH244283   1.898   6.094   6.712 -0.6081 -0.2319 -0.1480
 7623TIP3    H144284   1.827   6.157   6.727 -0.9905 -0.3897 -1.2172
 7623TIP3    H244285   1.862   6.011   6.744  0.2045  0.1895  2.0542
 7624TIP3   OH244286   5.831   4.513  14.455 -0.1571  0.7642  0.4133
 7624TIP3    H144287   5.828   4.571  14.530  0.7196 -0.5179  1.4873
 7624TIP3    H244288   5.867   4.431  14.489 -0.6175 -0.1621 -1.2037
 7625TIP3   OH244289   3.113   6.107   5.554  0.5708  0.2668 -0.2380
 7625TIP3    H144290   3.038   6.111   5.494 -1.8729 -0.8680  2.5082
 7625TIP3    H244291   3.131   6.014   5.563 -1.4982  0.0382  3.3094
 7626TIP3   OH244292   1.798   1.856  14.745  0.0811  0.4025 -0.2195
 7626TIP3    H144293   1.805   1.901  14.829 -0.3503 -1.5175  0.8870
 7626TIP3    H244294   1.706   1.864  14.722 -0.0458 -0.0945  0.0991
 7627TIP3   OH244295   4.970   1.587   1.133  0.2753 -0.4062  0.1906
 7627TIP3    H144296   5.062   1.561   1.136  0.0691 -1.0759  0.9926
 7627TIP3    H244297   4.921   1.505   1.122 -0.2896 -0.1801  0.9405
 7628TIP3   OH244298   0.127   6.014  14.869  0.3456  0.1475 -1.2099
 7628TIP3    H144299   0.210   5.969  14.854 -0.1386 -1.1193 -0.3255
 7628TIP3    H244300   0.074   5.950  14.917 -0.4007  1.6475  0.0657
 7629TIP3   OH244301   2.960   2.551  13.641  0.0387 -0.4357 -1.5963
 7629TIP3    H144302   2.881   2.559  13.587  0.8966 -3.9138 -3.7240
 7629TIP3    H244303   2.941   2.479  13.701  1.0327 -0.1852 -0.9582
 7630TIP3   OH244304   1.399   1.501   2.254 -0.0566  0.4221 -0.1157
 7630TIP3    H144305   1.475   1.495   2.312 -0.7375 -0.1203  0.7465
 7630TIP3    H244306   1.436   1.521   2.168  1.0276  0.5646  0.3670
 7631TIP3   OH244307   0.701   1.373  16.634 -0.1915 -0.3426 -0.0679
 7631TIP3    H144308   0.689   1.467  16.620  2.6600 -0.0341 -0.9708
 7631TIP3    H244309   0.629   1.332  16.585 -0.4307  1.3110 -1.1675
 7632TIP3   OH244310   0.117   0.017   3.200 -0.3502  0.1592  0.4745
 7632TIP3    H144311   0.129   0.105   3.165 -4.4089  0.7637  0.1898
 7632TIP3    H244312   0.171  -0.038   3.143  2.9275  2.3740  1.1252
 7633TIP3   OH244313   2.488   6.382   1.852 -0.2786 -0.0258  0.2345
 7633TIP3    H144314   2.465   6.462   1.804  0.7740 -0.4108 -0.9775
 7633TIP3    H244315   2.451   6.311   1.799 -2.3997 -0.3494  2.0016
 7634TIP3   OH244316   1.281   1.953   0.115  0.6018 -0.2825  1.1907
 7634TIP3    H144317   1.288   2.043   0.147  1.2299 -0.1838  0.8017
 7634TIP3    H244318   1.194   1.947   0.077  1.4853  0.9725 -1.1836
 7635TIP3   OH244319   2.112   4.064  14.026  0.2525  0.5507  0.6739
 7635TIP3    H144320   2.062   3.988  14.058 -0.1210  0.5175  0.0222
 7635TIP3    H244321   2.144   4.038  13.940 -0.1290  1.2415  0.3166
 7636TIP3   OH244322   1.696   1.685   2.208 -0.4782 -0.3726 -0.1396
 7636TIP3    H144323   1.681   1.656   2.297 -0.3359  0.0144  0.0125
 7636TIP3    H244324   1.619   1.736   2.185  0.7626  2.1724  0.8734
 7637TIP3   OH244325   0.181   1.329   6.179 -0.4548 -0.1975  0.0344
 7637TIP3    H144326   0.219   1.417   6.177 -0.6149 -0.1232 -1.3989
 7637TIP3    H244327   0.198   1.296   6.267  2.8867 -0.1633 -0.4906
 7638TIP3   OH244328   5.690   2.493   1.559  0.1240  0.3506  0.4038
 7638TIP3    H144329   5.745   2.429   1.606 -1.1197  0.6703  2.4251
 7638TIP3    H244330   5.644   2.442   1.493 -0.6039 -0.8211  1.7702
 7639TIP3   OH244331   3.238   4.634   4.382  0.1321  0.5229  0.8610
 7639TIP3    H144332   3.249   4.675   4.296  1.2687 -0.4753  0.4920
 7639TIP3    H244333   3.206   4.546   4.362 -0.9052  0.7257  1.5507
 7640TIP3   OH244334   0.380   2.689  12.634 -0.2276 -0.0479 -0.1636
 7640TIP3    H144335   0.447   2.678  12.567 -0.0952 -0.8377  0.0830
 7640TIP3    H244336   0.377   2.604  12.678 -2.2779 -0.4811 -1.0060
 7641TIP3   OH244337   5.918   1.895   2.077  0.0857  0.5778  0.7398
 7641TIP3    H144338   5.847   1.902   2.013 -0.3460 -1.5435  0.9294
 7641TIP3    H244339   5.893   1.822   2.133  0.9572  1.7241  2.7502
 7642TIP3   OH244340   1.492   3.616  16.885 -0.7252  0.5188  0.0307
 7642TIP3    H144341   1.511   3.640  16.976  0.4265 -1.6306  0.4208
 7642TIP3    H244342   1.507   3.696  16.835  1.6182  1.0108  1.3876
 7643TIP3   OH244343   1.994   3.418  14.266  0.0815 -0.2217 -0.0328
 7643TIP3    H144344   2.058   3.355  14.233 -1.3855 -2.2792  0.8307
 7643TIP3    H244345   1.965   3.382  14.349 -1.5463  1.0915  0.0213
 7644TIP3   OH244346   4.528   1.566   2.991 -0.3352 -0.1229 -0.7310
 7644TIP3    H144347   4.469   1.642   2.987  0.2224  0.3423 -0.3831
 7644TIP3    H244348   4.564   1.559   2.903  0.5051  0.7602 -0.4803
 7645TIP3   OH244349   4.056   5.555  11.654 -0.2490  0.4357 -0.2143
 7645TIP3    H144350   4.076   5.549  11.561 -4.2704  3.1305 -1.4956
 7645TIP3    H244351   3.993   5.484  11.669 -0.9978  1.1340 -0.0253
 7646TIP3   OH244352   2.106   1.321  14.295  0.7558  0.3048  1.0662
 7646TIP3    H144353   2.177   1.302  14.357  1.6419 -0.2633 -0.0701
 7646TIP3    H244354   2.131   1.273  14.216 -0.6033  0.5987  0.4358
 7647TIP3   OH244355   6.477   1.861  16.555 -0.0846 -1.0181 -0.4243
 7647TIP3    H144356   6.451   1.907  16.475  0.3989  0.7894  0.4070
 7647TIP3    H244357   6.573   1.869  16.557 -0.1430 -0.4455  0.6633
 7648TIP3   OH244358   2.726   0.142  15.099  0.2556  0.6951 -0.4310
 7648TIP3    H144359   2.640   0.183  15.087  0.3518  0.7454 -0.9911
 7648TIP3    H244360   2.789   0.211  15.075  0.4584  0.6712  0.0155
 7649TIP3   OH244361   5.135   6.008   2.892 -0.2696 -0.1982 -0.5168
 7649TIP3    H144362   5.061   5.960   2.854 -1.9961  0.9540  1.1820
 7649TIP3    H244363   5.180   5.943   2.947  0.2470 -0.9954 -1.8307
 7650TIP3   OH244364   6.492   1.460  13.251 -0.1662  0.5228 -0.3863
 7650TIP3    H144365   6.542   1.527  13.297 -0.1254 -0.7618  1.5946
 7650TIP3    H244366   6.401   1.489  13.258 -0.2832 -0.1822  1.5870
 7651TIP3   OH244367   1.644   0.936   5.172  0.3975  0.6032 -0.6452
 7651TIP3    H144368   1.566   0.969   5.216  0.7769  4.2930 -2.3617
 7651TIP3    H244369   1.714   0.947   5.237 -0.1949 -1.7182  0.5155
 7652TIP3   OH244370   3.290   0.060  12.435  0.6514 -0.3802  0.5659
 7652TIP3    H144371   3.201   0.025  12.437  1.0737 -1.4609  1.0504
 7652TIP3    H244372   3.345  -0.013  12.462  1.6130  0.5254  1.1077
 7653TIP3   OH244373   1.730   3.579   0.477 -0.4819  0.3912 -0.0075
 7653TIP3    H144374   1.703   3.670   0.490 -0.2196  0.3936  0.5211
 7653TIP3    H244375   1.711   3.536   0.560  0.7751  0.3030  0.2407
 7654TIP3   OH244376   1.756   1.557  13.655  0.1318 -0.2273  0.1864
 7654TIP3    H144377   1.816   1.622  13.618 -0.3621  0.1003 -0.0407
 7654TIP3    H244378   1.669   1.592  13.639 -0.1154 -0.4914  0.9031
 7655TIP3   OH244379   5.431   2.838  12.923  0.2413 -0.2842  0.1824
 7655TIP3    H144380   5.379   2.895  12.979  1.3792 -1.0138  2.0709
 7655TIP3    H244381   5.434   2.755  12.969  0.6897 -1.1331 -1.3091
 7656TIP3   OH244382   6.548   4.389   4.718 -0.0835  0.1196  0.1178
 7656TIP3    H144383   6.641   4.412   4.722 -0.1266  0.4283 -0.5172
 7656TIP3    H244384   6.524   4.372   4.809  0.3929  0.8484  0.3945
 7657TIP3   OH244385   3.939   3.159   2.937 -0.2914 -0.3296  0.0781
 7657TIP3    H144386   3.967   3.189   3.023  1.8254 -0.8271 -0.3951
 7657TIP3    H244387   3.878   3.227   2.906  2.0269  1.9765  0.2764
 7658TIP3   OH244388   6.492   1.071  11.686  0.2452  0.5643  0.5329
 7658TIP3    H144389   6.530   1.144  11.735  0.6669 -0.0217  1.1155
 7658TIP3    H244390   6.551   0.997  11.705  1.0089  0.5330 -1.6654
 7659TIP3   OH244391   6.538   2.062  13.843  0.2895  0.3710 -0.4273
 7659TIP3    H144392   6.623   2.036  13.878  0.4918 -1.4242 -2.1150
 7659TIP3    H244393   6.512   2.137  13.897  2.6709  0.6310  0.4590
 7660TIP3   OH244394   3.587   6.764  17.053  1.1199  0.2257 -0.1949
 7660TIP3    H144395   3.539   6.690  17.092  2.2240 -0.3290  0.1400
 7660TIP3    H244396   3.614   6.733  16.967  1.4906  0.2770 -0.0981
 7661TIP3   OH244397   4.264   0.998  10.359  0.7021  0.4155  0.1501
 7661TIP3    H144398   4.309   0.965  10.437 -1.1018  0.6404  1.3538
 7661TIP3    H244399   4.329   0.990  10.289  2.1944 -0.3521  1.5345
 7662TIP3   OH244400   2.114   5.694   1.204 -0.4977  0.2267  0.0050
 7662TIP3    H144401   2.115   5.787   1.225  0.2531  0.3904 -0.7268
 7662TIP3    H244402   2.029   5.680   1.163 -0.9219  0.4258  0.7851
 7663TIP3   OH244403   4.180   0.547   5.863 -0.0807  0.2337 -0.0604
 7663TIP3    H144404   4.133   0.482   5.915 -1.4045  1.2508  0.0544
 7663TIP3    H244405   4.272   0.534   5.886 -0.4664 -0.5823  1.1125
 7664TIP3   OH244406   0.092   5.850   1.211  0.6862 -0.1500 -0.2462
 7664TIP3    H144407   0.032   5.785   1.245  0.9897  0.2465  1.0934
 7664TIP3    H244408   0.153   5.868   1.283 -0.1240  2.5090 -0.1018
 7665TIP3   OH244409   4.592   2.097   2.618 -0.3077 -0.0863  1.1101
 7665TIP3    H144410   4.501   2.074   2.599 -0.3923  1.4077 -0.5870
 7665TIP3    H244411   4.587   2.157   2.692 -0.9017  1.2646  0.0245
 7666TIP3   OH244412   2.488   0.878   1.955  0.2258 -0.4467  0.3965
 7666TIP3    H144413   2.568   0.921   1.927 -0.7323  0.6945 -0.6923
 7666TIP3    H244414   2.418   0.936   1.926 -1.0045 -1.3600  1.4137
 7667TIP3   OH244415   4.862   6.186  10.913  0.4321 -0.0767  0.2254
 7667TIP3    H144416   4.928   6.131  10.956  2.1838  2.1660  0.5839
 7667TIP3    H244417   4.875   6.170  10.820  0.2977 -0.9133  0.3363
 7668TIP3   OH244418   3.390   4.031  17.063 -0.3166 -0.4065  0.8529
 7668TIP3    H144419   3.373   4.107  17.007 -0.7099 -0.0787  1.4005
 7668TIP3    H244420   3.473   4.052  17.106  0.1088 -0.7677  0.2222
 7669TIP3   OH244421   2.554   3.966  16.306 -0.1895  0.4253 -0.4906
 7669TIP3    H144422   2.578   3.874  16.297  1.1639  0.6222  0.8372
 7669TIP3    H244423   2.465   3.965  16.341 -0.4783 -0.3451 -1.2142
 7670TIP3   OH244424   2.617   0.525   5.014  0.0436  0.0542 -0.4117
 7670TIP3    H144425   2.687   0.535   5.079  1.1613  0.1152 -1.5875
 7670TIP3    H244426   2.640   0.586   4.945 -1.7853  0.8817 -0.3502
 7671TIP3   OH244427   5.351   0.500   1.857 -0.1670  0.3250 -0.0235
 7671TIP3    H144428   5.313   0.442   1.792  0.5468  0.0592 -0.2176
 7671TIP3    H244429   5.331   0.459   1.941 -0.9107  0.5606 -0.0828
 7672TIP3   OH244430   2.792   4.947  12.625  0.0472  0.2579 -0.1113
 7672TIP3    H144431   2.742   5.026  12.607 -0.1575  1.1221  3.4334
 7672TIP3    H244432   2.883   4.976  12.627  0.2020 -0.1343 -1.1622
 7673TIP3   OH244433   2.640   3.848   2.276  0.5893 -0.1921 -0.1720
 7673TIP3    H144434   2.649   3.904   2.199 -0.0933  0.4104  0.1792
 7673TIP3    H244435   2.559   3.800   2.262 -1.1294  2.0097  1.4455
 7674TIP3   OH244436   1.012   0.066   2.463  0.1567  0.7742 -0.4984
 7674TIP3    H144437   0.990   0.105   2.547  2.3284  1.2426 -0.0857
 7674TIP3    H244438   1.090   0.014   2.481 -0.8432 -1.2866 -1.6973
 7675TIP3   OH244439   2.999   6.328   0.280 -0.1875  0.0211  0.2119
 7675TIP3    H144440   2.980   6.420   0.294 -1.3706 -0.2921  0.8367
 7675TIP3    H244441   2.917   6.283   0.299 -0.3179 -0.9874 -2.3107
 7676TIP3   OH244442   5.298   4.944   2.445 -0.2971 -0.4781 -0.1606
 7676TIP3    H144443   5.278   4.995   2.524 -1.3170  0.9417 -1.2744
 7676TIP3    H244444   5.275   4.854   2.468 -0.5430 -0.1004  1.1654
 7677TIP3   OH244445   1.496   3.703   1.339 -0.2370  0.3978  0.4391
 7677TIP3    H144446   1.411   3.746   1.342  0.6386  2.2546  0.2078
 7677TIP3    H244447   1.547   3.747   1.408  0.7299 -0.2377  0.1489
 7678TIP3   OH244448   2.995   3.745   2.236 -0.7047 -0.0493  0.2754
 7678TIP3    H144449   3.037   3.682   2.178 -0.8133 -0.1801  0.3398
 7678TIP3    H244450   3.038   3.828   2.215 -0.7686 -0.0868 -0.0204
 7679TIP3   OH244451   1.003   2.199   4.320 -0.4391  0.1977  0.1876
 7679TIP3    H144452   1.054   2.257   4.264 -0.2977  2.7142  2.7243
 7679TIP3    H244453   1.066   2.135   4.352  0.0652  0.4070 -0.3671
 7680TIP3   OH244454   6.657   1.385   5.458 -0.0618  0.8252 -0.0035
 7680TIP3    H144455   6.574   1.375   5.504 -0.2355 -1.0756 -0.6808
 7680TIP3    H244456   6.633   1.405   5.368  0.1735 -0.9432 -0.4770
 7681TIP3   OH244457   2.268   5.773   2.190  0.0766  0.5959  0.6146
 7681TIP3    H144458   2.224   5.777   2.275 -2.4440  0.3677 -0.5802
 7681TIP3    H244459   2.312   5.688   2.190 -0.7094  0.1737  1.3401
 7682TIP3   OH244460   1.784   5.355  15.265 -0.4631  0.2925 -0.2134
 7682TIP3    H144461   1.866   5.322  15.303 -0.0237 -1.0415 -2.1234
 7682TIP3    H244462   1.715   5.308  15.311 -0.4266  2.9745  2.9402
 7683TIP3   OH244463   3.686   4.309   5.567  0.1480 -0.1353  0.5800
 7683TIP3    H144464   3.647   4.225   5.591 -0.6338 -0.2622 -0.9988
 7683TIP3    H244465   3.621   4.374   5.594  0.9270  0.0270  2.1667
 7684TIP3   OH244466   6.534   0.937  16.858 -0.0236 -0.4478 -0.1484
 7684TIP3    H144467   6.440   0.930  16.839 -0.3870  2.3447  0.1225
 7684TIP3    H244468   6.577   0.916  16.775 -0.7501 -3.1934  0.0981
 7685TIP3   OH244469   2.145   6.326  16.728  0.0254  0.1385  0.1406
 7685TIP3    H144470   2.123   6.367  16.811  0.4920  1.7534 -0.4991
 7685TIP3    H244471   2.239   6.340  16.718 -0.0644  0.1921 -0.7673
 7686TIP3   OH244472   3.329   1.931  13.959 -0.4188 -0.0956 -0.3844
 7686TIP3    H144473   3.289   1.877  14.027  1.2681 -0.1359  0.6353
 7686TIP3    H244474   3.270   1.924  13.885 -2.5091  0.2181  1.1673
 7687TIP3   OH244475   0.286   4.552  15.494 -0.3199  0.0679 -0.0402
 7687TIP3    H144476   0.350   4.511  15.551  0.9164 -0.2626 -1.5888
 7687TIP3    H244477   0.208   4.562  15.549  0.7659 -0.2925  1.6463
 7688TIP3   OH244478   5.139   1.645   5.214 -0.0469 -0.2865  0.2078
 7688TIP3    H144479   5.184   1.714   5.166 -0.1079 -1.2677 -1.3055
 7688TIP3    H244480   5.209   1.586   5.242 -0.3234 -3.2492 -4.3963
 7689TIP3   OH244481   6.723   2.870   2.920 -0.0911 -0.0006 -0.0741
 7689TIP3    H144482   6.690   2.953   2.886 -0.5047 -0.2672 -0.3399
 7689TIP3    H244483   6.729   2.883   3.014  1.9110  1.0530 -0.2945
 7690TIP3   OH244484   4.780   2.478   0.802  0.7160 -0.1368 -0.0100
 7690TIP3    H144485   4.696   2.486   0.849  0.7675  0.2046  0.0219
 7690TIP3    H244486   4.756   2.482   0.710  0.8477  1.5319  0.0025
 7691TIP3   OH244487   1.663   4.280   4.919 -0.4663  0.5584  0.3158
 7691TIP3    H144488   1.590   4.225   4.891 -0.2357 -0.2626  1.2597
 7691TIP3    H244489   1.741   4.230   4.893 -0.2501  0.6857  0.7132
 7692TIP3   OH244490   6.418   3.104  16.895  0.3396 -0.4782 -0.4146
 7692TIP3    H144491   6.443   3.019  16.858  0.9841 -0.1939 -0.6333
 7692TIP3    H244492   6.329   3.090  16.927  0.8939 -1.6153  0.7211
 7693TIP3   OH244493   3.523   5.043   0.729  0.1790 -0.6145 -0.2493
 7693TIP3    H144494   3.553   4.953   0.741 -1.0322 -0.8710  1.1066
 7693TIP3    H244495   3.552   5.089   0.807 -0.1268 -0.0797 -0.4480
 7694TIP3   OH244496   6.547   2.392   1.508  1.0363  0.4697  0.4329
 7694TIP3    H144497   6.457   2.424   1.516  1.2956  1.4945 -0.4639
 7694TIP3    H244498   6.551   2.356   1.420  1.6350  0.8832  0.2874
 7695TIP3   OH244499   4.296   5.849   5.177  0.6080  0.4357 -0.2874
 7695TIP3    H144500   4.279   5.820   5.087  0.5259  2.0190 -0.8150
 7695TIP3    H244501   4.381   5.812   5.199  0.4450 -0.3050 -0.8536
 7696TIP3   OH244502   1.280   4.132   4.119 -0.5502 -0.0348  0.2753
 7696TIP3    H144503   1.205   4.072   4.121 -0.6696  0.0975 -0.1147
 7696TIP3    H244504   1.323   4.120   4.204 -0.0459 -1.3307 -0.1536
 7697TIP3   OH244505   2.667   5.566  11.443  0.1096  0.0404  0.1394
 7697TIP3    H144506   2.659   5.661  11.432 -0.7383  0.3909  3.0242
 7697TIP3    H244507   2.756   5.546  11.412  0.7180  1.9789  0.5097
 7698TIP3   OH244508   4.641   5.114   3.739  0.3923  0.0815  0.2677
 7698TIP3    H144509   4.658   5.089   3.648 -0.9118 -3.4129  0.8382
 7698TIP3    H244510   4.547   5.098   3.750  0.6322 -0.1069  2.3574
 7699TIP3   OH244511   3.414   5.212   4.283  0.3250 -0.6223  0.1179
 7699TIP3    H144512   3.470   5.286   4.262 -0.3268 -0.1576 -0.0032
 7699TIP3    H244513   3.345   5.214   4.217  0.7036 -1.7861 -0.3501
 7700TIP3   OH244514   5.038   3.471  15.401  0.0149  0.1083 -0.3685
 7700TIP3    H144515   5.126   3.454  15.435  0.2628 -0.1416 -1.1063
 7700TIP3    H244516   5.018   3.559  15.432  0.1077 -0.2114  0.6468
 7701TIP3   OH244517   4.527   2.863  17.123 -0.0964  0.1565 -0.4925
 7701TIP3    H144518   4.527   2.954  17.154 -2.3502  0.2143 -0.5030
 7701TIP3    H244519   4.582   2.865  17.044  1.2224  1.1350  0.3843
 7702TIP3   OH244520   4.195   1.022   0.567 -0.6101  0.2016  0.2338
 7702TIP3    H144521   4.130   0.975   0.516  0.5269 -0.2006 -0.8859
 7702TIP3    H244522   4.171   1.115   0.556  0.2708  0.2308 -2.0597
 7703TIP3   OH244523   6.678   5.265  11.464 -0.3048 -0.2400  0.1981
 7703TIP3    H144524   6.747   5.325  11.434  0.5405 -0.5068  1.5399
 7703TIP3    H244525   6.597   5.303  11.430  0.0419  2.3982  2.0549
 7704TIP3   OH244526   0.971   2.883   4.959  0.0878 -0.6333 -0.2138
 7704TIP3    H144527   0.989   2.887   4.865 -0.7248 -0.4239 -0.3753
 7704TIP3    H244528   1.042   2.932   5.000  1.3027 -2.0157 -0.5834
 7705TIP3   OH244529   4.458   5.662   5.308  0.4716  0.0675 -0.3576
 7705TIP3    H144530   4.499   5.604   5.245  0.0917 -0.7130  0.1069
 7705TIP3    H244531   4.409   5.604   5.367  0.5972  0.7969  0.4866
 7706TIP3   OH244532   3.010   3.285  12.822 -0.0727  0.1044  0.1625
 7706TIP3    H144533   3.098   3.322  12.812  0.4020 -1.0709 -0.1881
 7706TIP3    H244534   3.019   3.223  12.894 -0.9798  1.0160  1.0821
 7707TIP3   OH244535   6.325   0.712  10.582  0.4620  0.4570 -0.1695
 7707TIP3    H144536   6.312   0.807  10.574 -1.5501  0.2774  0.2589
 7707TIP3    H244537   6.319   0.695  10.676 -3.1502 -0.4472 -0.3875
 7708TIP3   OH244538   2.362   5.211  16.250  0.3723  0.1717  0.0157
 7708TIP3    H144539   2.450   5.218  16.286  0.0772 -1.0557  1.0632
 7708TIP3    H244540   2.318   5.291  16.279  0.9620  0.4890  0.0335
 7709TIP3   OH244541   2.275   5.703  16.667 -0.3310 -0.5151 -0.2037
 7709TIP3    H144542   2.367   5.679  16.653  0.0935 -0.2244  1.8281
 7709TIP3    H244543   2.228   5.657  16.597  1.1352 -2.3282 -0.0886
 7710TIP3   OH244544   3.978   5.208   2.744  0.4839 -0.1901  0.1305
 7710TIP3    H144545   4.058   5.242   2.783 -0.1061  1.2842  0.1420
 7710TIP3    H244546   3.956   5.132   2.797  1.8920 -0.6580  0.0810
 7711TIP3   OH244547   4.551   1.792  16.559  0.1754  0.3268  0.4458
 7711TIP3    H144548   4.504   1.723  16.512  0.4624  0.1837  0.3658
 7711TIP3    H244549   4.628   1.749  16.595  1.1687  0.8988 -0.8743
 7712TIP3   OH244550   5.681   0.058  16.305 -0.2188  0.1264  0.0588
 7712TIP3    H144551   5.718   0.136  16.264  2.1194 -0.3945  0.9844
 7712TIP3    H244552   5.729  -0.015  16.265 -0.4835 -0.6268  1.0620
 7713TIP3   OH244553   6.737   5.655   0.709  0.4273 -0.5372  0.1656
 7713TIP3    H144554   6.656   5.629   0.753 -0.3566 -0.4055 -1.1550
 7713TIP3    H244555   6.724   5.630   0.618  1.1579  1.1078 -0.4236
 7714TIP3   OH244556   2.656   1.711  10.635 -0.5248  0.1482 -0.0376
 7714TIP3    H144557   2.617   1.665  10.561  0.7943 -1.7131  0.3262
 7714TIP3    H244558   2.746   1.729  10.607 -1.0102  2.6422 -0.1712
 7715TIP3   OH244559   4.927   1.393   2.906 -0.2958 -0.2010  0.0751
 7715TIP3    H144560   4.889   1.452   2.841  0.7864 -0.3188 -0.6997
 7715TIP3    H244561   5.020   1.417   2.909  0.0396 -1.4230  0.2216
 7716TIP3   OH244562   3.366   6.338  13.425  0.3266  0.1974 -0.5497
 7716TIP3    H144563   3.337   6.429  13.433  0.6838  0.3169 -0.5965
 7716TIP3    H244564   3.410   6.320  13.508 -1.5674 -0.6058  0.3347
 7717TIP3   OH244565   1.722   6.687   4.134 -0.0927  0.3061  0.5741
 7717TIP3    H144566   1.754   6.598   4.143 -2.1948 -0.4037  1.6726
 7717TIP3    H244567   1.695   6.693   4.042  2.1511  0.6428 -0.1389
 7718TIP3   OH244568   5.001   4.447  11.343  0.1233 -0.5302 -0.2880
 7718TIP3    H144569   4.995   4.404  11.258 -0.5863  1.7393 -1.4706
 7718TIP3    H244570   5.065   4.516  11.331 -0.4363  0.2265  0.8521
 7719TIP3   OH244571   5.288   4.725   4.785 -0.4767 -0.5062  0.0425
 7719TIP3    H144572   5.366   4.754   4.833  0.5391 -1.3242 -1.0288
 7719TIP3    H244573   5.243   4.666   4.845  0.3577 -0.9163  0.2827
 7720TIP3   OH244574   0.672   6.756   6.511 -0.1834 -0.2888 -0.0430
 7720TIP3    H144575   0.704   6.832   6.560  2.1367 -0.0938 -1.6789
 7720TIP3    H244576   0.740   6.689   6.525 -0.7822 -1.0862 -0.8827
 7721TIP3   OH244577   0.549   1.392   0.789 -0.4264  0.1065  0.1350
 7721TIP3    H144578   0.553   1.304   0.825 -0.5476 -1.4459 -3.2356
 7721TIP3    H244579   0.641   1.419   0.783 -0.4192  0.5540  1.7781
 7722TIP3   OH244580   2.033   0.340   0.095  0.3666 -0.1567  0.0420
 7722TIP3    H144581   2.125   0.318   0.088  0.8524  1.3510  0.9875
 7722TIP3    H244582   2.014   0.391   0.016  0.6215  0.3633  0.3098
 7723TIP3   OH244583   1.819   2.895   4.546  0.0210  0.3739  0.3471
 7723TIP3    H144584   1.737   2.849   4.568 -0.5390  1.8136  1.4587
 7723TIP3    H244585   1.856   2.919   4.631  0.9185  0.8795 -0.1767
 7724TIP3   OH244586   6.018   6.472  16.677  0.6857 -0.3267 -0.1950
 7724TIP3    H144587   5.995   6.397  16.622  0.6732 -0.6024  0.1828
 7724TIP3    H244588   5.935   6.516  16.693  0.6584 -0.3670 -0.2233
 7725TIP3   OH244589   2.529   2.474   4.123  0.7449 -0.3504  0.3471
 7725TIP3    H144590   2.605   2.532   4.115  0.4351 -0.1344 -1.8655
 7725TIP3    H244591   2.555   2.396   4.072 -0.8211  0.1374 -1.3039
 7726TIP3   OH244592   5.411   3.375  14.588 -0.4834  0.0166 -0.0593
 7726TIP3    H144593   5.490   3.344  14.633 -0.2153  0.8198  0.0440
 7726TIP3    H244594   5.438   3.386  14.497 -0.2208  1.1210  0.1385
 7727TIP3   OH244595   0.403   0.111   0.176 -0.3638  0.0524 -0.0736
 7727TIP3    H144596   0.437   0.139   0.260  0.5083  0.5584 -0.5848
 7727TIP3    H244597   0.368   0.024   0.192 -0.2868  0.1844  0.8308
 7728TIP3   OH244598   2.751   6.464  15.964  0.2950 -0.0708 -0.6176
 7728TIP3    H144599   2.674   6.477  15.908 -0.2275 -1.0160 -0.1378
 7728TIP3    H244600   2.761   6.369  15.970  3.2909 -0.0899 -3.0726
 7729TIP3   OH244601   5.927   0.366   0.419 -0.2730 -0.6754  0.2555
 7729TIP3    H144602   5.971   0.388   0.501  1.0584  1.0811 -0.8595
 7729TIP3    H244603   5.849   0.422   0.418  0.4165  0.3012 -0.2533
 7730TIP3   OH244604   2.620   3.434  13.062 -0.4369 -0.2050 -0.1080
 7730TIP3    H144605   2.667   3.398  13.137 -0.7855  0.5368  0.4742
 7730TIP3    H244606   2.538   3.385  13.058 -0.6787  0.1580  0.3608
 7731TIP3   OH244607   3.296   3.577   0.306 -0.3851  0.4377 -0.5178
 7731TIP3    H144608   3.244   3.546   0.380 -1.5050  1.7497 -0.7157
 7731TIP3    H244609   3.268   3.523   0.233 -0.7305  0.4621 -0.4052
 7732TIP3   OH244610   1.738   3.862   0.709  0.2438 -0.4681  0.3368
 7732TIP3    H144611   1.798   3.915   0.658 -0.1220  0.0783  0.4678
 7732TIP3    H244612   1.666   3.842   0.650 -0.1738  0.1540  0.6220
 7733TIP3   OH244613   6.014   4.018  11.886  0.0317  0.6940  0.2689
 7733TIP3    H144614   6.090   4.071  11.861  0.5466  0.3090  0.9698
 7733TIP3    H244615   5.940   4.079  11.883  0.1154  0.7532 -1.7645
 7734TIP3   OH244616   0.248   4.599   5.464  0.0031  0.8985  1.1427
 7734TIP3    H144617   0.298   4.668   5.421  1.3519 -1.1787 -0.8042
 7734TIP3    H244618   0.159   4.633   5.468  0.8637  3.2874  1.5373
 7735TIP3   OH244619   4.727   4.861  15.541 -0.2639  0.8736  0.0358
 7735TIP3    H144620   4.754   4.914  15.615 -2.0378  1.9261 -0.0086
 7735TIP3    H244621   4.649   4.815  15.572 -1.6215  2.0764 -1.3977
 7736TIP3   OH244622   5.413   2.826  12.476 -0.1300 -0.1271 -0.2171
 7736TIP3    H144623   5.404   2.786  12.562  0.1730  1.6114  0.6593
 7736TIP3    H244624   5.343   2.786  12.424  0.2709 -1.8883  0.5311
 7737TIP3   OH244625   0.473   4.117  12.098 -0.6414 -0.5534  0.0348
 7737TIP3    H144626   0.384   4.081  12.098 -1.0707  0.4667  0.1209
 7737TIP3    H244627   0.528   4.044  12.069 -1.7653 -0.6066 -2.2537
 7738TIP3   OH244628   3.618   3.962  13.810  0.1448  0.9135  0.0955
 7738TIP3    H144629   3.642   3.911  13.887  1.3617 -0.1450 -0.9489
 7738TIP3    H244630   3.567   3.902  13.756  0.4053  1.2214 -0.5057
 7739TIP3   OH244631   5.086   2.479   1.575 -0.1844  0.0910  0.2124
 7739TIP3    H144632   5.066   2.435   1.658  3.1835  0.4443  1.3526
 7739TIP3    H244633   5.046   2.566   1.584  1.3724  0.6864  2.2189
 7740TIP3   OH244634   4.456   6.463  13.483 -0.8577 -0.1035  0.0356
 7740TIP3    H144635   4.396   6.506  13.423  1.1528  4.0890  0.6506
 7740TIP3    H244636   4.401   6.436  13.557 -2.2316  2.6634  0.1430
 7741TIP3   OH244637   5.269   0.202  13.029 -0.2526 -0.2115  0.1523
 7741TIP3    H144638   5.300   0.150  12.955  3.1624  0.3957  0.9808
 7741TIP3    H244639   5.244   0.286  12.990  2.2729  0.3912 -0.3620
 7742TIP3   OH244640   1.551   3.669  12.243  0.3618 -0.0345 -0.1107
 7742TIP3    H144641   1.462   3.657  12.209 -0.4568 -1.1800  2.2212
 7742TIP3    H244642   1.542   3.733  12.313  0.7522 -2.3182  2.1477
 7743TIP3   OH244643   6.485   0.484   3.894  0.0917  0.2973 -0.0991
 7743TIP3    H144644   6.528   0.477   3.809  2.2487 -0.8150  0.9823
 7743TIP3    H244645   6.411   0.424   3.888  0.4090 -0.0205 -1.0929
 7744TIP3   OH244646   2.811   2.181   3.815  0.2041  0.2551  0.2844
 7744TIP3    H144647   2.740   2.230   3.855  0.6113  1.4865 -0.4326
 7744TIP3    H244648   2.891   2.223   3.848  0.5556  0.5738 -0.9078
 7745TIP3   OH244649   0.190   0.295  11.638  0.3307  0.1864  0.0741
 7745TIP3    H144650   0.285   0.302  11.638  0.4524 -1.1214  0.6749
 7745TIP3    H244651   0.165   0.310  11.729 -0.0126  0.2308 -0.0258
 7746TIP3   OH244652   5.212   6.014   1.462  0.2020  0.1231 -0.7241
 7746TIP3    H144653   5.198   6.033   1.555 -0.0683 -0.0590 -0.7265
 7746TIP3    H244654   5.130   5.975   1.433  0.1295  0.5832 -1.1460
 7747TIP3   OH244655   0.703   4.603   5.468 -0.7343 -0.4274 -0.0743
 7747TIP3    H144656   0.629   4.628   5.524 -0.2784 -1.2370  0.9285
 7747TIP3    H244657   0.780   4.630   5.517 -0.2991 -1.8357  0.0622
 7748TIP3   OH244658   6.287   6.245   5.100 -0.2429  0.5112 -0.2144
 7748TIP3    H144659   6.367   6.273   5.055  1.7210  0.3384  2.8313
 7748TIP3    H244660   6.246   6.182   5.041  2.0174  0.4113 -1.8055
 7749TIP3   OH244661   5.273   5.572  12.853 -0.0370  0.2024 -0.3543
 7749TIP3    H144662   5.255   5.666  12.860 -0.0732  0.1051  1.2472
 7749TIP3    H244663   5.186   5.532  12.851 -0.0867  0.0747  1.7614
 7750TIP3   OH244664   4.498   0.144   6.031  0.2839  0.1028  0.6142
 7750TIP3    H144665   4.569   0.183   6.082  0.4762 -2.6303  2.6035
 7750TIP3    H244666   4.420   0.158   6.084 -0.3593  1.2219 -0.5676
 7751TIP3   OH244667   2.030   1.369   4.062 -0.0807  0.0654 -0.2900
 7751TIP3    H144668   2.022   1.399   3.971  0.4330 -0.8119 -0.6435
 7751TIP3    H244669   2.124   1.370   4.079 -0.0800 -0.8941 -0.1691
 7752TIP3   OH244670   0.584   0.134  13.993 -0.1465 -0.1472 -0.5373
 7752TIP3    H144671   0.574   0.086  14.076  1.5006  0.8920  0.3342
 7752TIP3    H244672   0.597   0.066  13.927 -1.9254 -1.0175 -0.0400
 7753TIP3   OH244673   3.842   2.515  14.563  0.2241 -0.1527  0.0426
 7753TIP3    H144674   3.806   2.545  14.646 -0.4485 -0.5581 -0.0897
 7753TIP3    H244675   3.865   2.423  14.578 -0.1283 -0.2973 -0.2855
 7754TIP3   OH244676   1.375   3.770   1.813  0.1419 -0.4856 -0.3829
 7754TIP3    H144677   1.334   3.779   1.898 -0.1964 -1.4889 -0.4283
 7754TIP3    H244678   1.435   3.844   1.807 -1.2557  0.7138 -0.1000
 7755TIP3   OH244679   0.480   4.395  13.606  0.0508  0.3713 -0.4093
 7755TIP3    H144680   0.407   4.389  13.667  0.0053 -0.3589 -0.5228
 7755TIP3    H244681   0.558   4.392  13.661  0.0557 -2.0592 -0.4511
 7756TIP3   OH244682   5.229   1.018  15.616 -0.5429 -0.0908 -0.5846
 7756TIP3    H144683   5.200   1.057  15.533 -1.5811 -0.6453 -0.4957
 7756TIP3    H244684   5.306   0.967  15.592 -0.9132 -0.3564 -1.2443
 7757TIP3   OH244685   3.399   2.741   3.389 -0.2482 -0.0481 -0.0371
 7757TIP3    H144686   3.466   2.758   3.455  0.0007  3.2398 -0.9431
 7757TIP3    H244687   3.316   2.744   3.437  0.0428 -0.0947  0.4711
 7758TIP3   OH244688   5.211   0.210   5.356 -0.0914 -0.1120 -0.3387
 7758TIP3    H144689   5.243   0.255   5.278 -0.2017  0.2477 -0.1819
 7758TIP3    H244690   5.132   0.165   5.326 -0.7987  0.9776 -0.1833
 7759TIP3   OH244691   4.975   2.598   3.195  0.1147  0.1973 -0.0487
 7759TIP3    H144692   4.911   2.542   3.237 -0.3410  1.6054  1.2337
 7759TIP3    H244693   5.060   2.557   3.214 -0.3171 -1.1584 -0.9470
 7760TIP3   OH244694   1.880   2.268  14.531 -0.3907 -0.4247 -0.0792
 7760TIP3    H144695   1.895   2.356  14.566  1.2315 -0.6321 -0.1856
 7760TIP3    H244696   1.933   2.211  14.586 -1.3457 -1.3337 -0.0776
 7761TIP3   OH244697   2.605   2.632   3.706  0.0474  0.5399 -0.1563
 7761TIP3    H144698   2.679   2.580   3.674 -1.5468 -0.8255 -1.8098
 7761TIP3    H244699   2.573   2.679   3.629 -2.1850 -0.6928 -0.0662
 7762TIP3   OH244700   3.744   0.239   1.066 -0.0942  0.4154  0.0370
 7762TIP3    H144701   3.717   0.232   1.158 -1.5652 -1.9986 -0.5191
 7762TIP3    H244702   3.670   0.280   1.022 -0.0386  0.1162 -0.3400
 7763TIP3   OH244703   6.399   6.492  14.772  0.8910  0.5520 -0.1020
 7763TIP3    H144704   6.326   6.441  14.737  1.5152 -0.5264  0.0944
 7763TIP3    H244705   6.388   6.488  14.867 -0.9471  3.6931 -0.0614
 7764TIP3   OH244706   6.388   4.935   5.469  0.0892 -0.3352  0.0184
 7764TIP3    H144707   6.324   4.959   5.535 -1.2561 -1.3188 -0.8747
 7764TIP3    H244708   6.458   4.999   5.478 -1.7268  1.7380  0.0103
 7765TIP3   OH244709   3.668   3.430   3.852 -0.3948  0.3510 -0.0567
 7765TIP3    H144710   3.685   3.339   3.873 -0.8872  0.4558  0.8639
 7765TIP3    H244711   3.729   3.451   3.781 -0.0339 -0.5832 -0.0286
 7766TIP3   OH244712   4.376   1.429   0.122 -0.5273 -0.3594  0.1001
 7766TIP3    H144713   4.400   1.435   0.030  2.1007 -2.1618  0.5510
 7766TIP3    H244714   4.284   1.403   0.122 -0.1244 -2.0388 -2.0766
 7767TIP3   OH244715   4.444   5.857  17.131  0.5979 -0.2190  0.4293
 7767TIP3    H144716   4.472   5.778  17.085  1.1218 -0.4641  1.1516
 7767TIP3    H244717   4.436   5.923  17.062  0.5698 -0.7828 -0.1225
 7768TIP3   OH244718   6.578   1.557  11.565  0.1253  0.0156 -0.2422
 7768TIP3    H144719   6.664   1.588  11.537 -0.0165  0.1806 -0.5040
 7768TIP3    H244720   6.517   1.595  11.502 -0.3575  1.5078  1.0658
 7769TIP3   OH244721   5.923   5.642  16.938 -0.1783 -0.2957 -0.5073
 7769TIP3    H144722   5.841   5.627  16.890 -0.6622 -0.2909  0.3022
 7769TIP3    H244723   5.897   5.694  17.013  0.0001 -2.8335  1.4645
 7770TIP3   OH244724   5.359   0.576   2.239  0.3969  0.1608 -0.3335
 7770TIP3    H144725   5.429   0.515   2.260  0.5429 -0.1313 -1.5602
 7770TIP3    H244726   5.305   0.529   2.175 -1.0522  0.2890  0.7376
 7771TIP3   OH244727   4.453   5.972   3.348 -0.0118 -0.1056 -0.3178
 7771TIP3    H144728   4.458   5.992   3.255  0.4379  1.2144 -0.0372
 7771TIP3    H244729   4.364   5.998   3.374 -0.4414 -1.2971 -0.5379
 7772TIP3   OH244730   0.950   6.705   1.344 -0.0584 -0.4488 -0.0007
 7772TIP3    H144731   0.998   6.729   1.264  0.6515 -1.1195  0.2105
 7772TIP3    H244732   0.979   6.769   1.409  1.0175 -1.2135  0.2832
 7773TIP3   OH244733   3.827   4.377  11.744  0.8326 -0.0091  0.2113
 7773TIP3    H144734   3.916   4.347  11.761  0.2022 -1.4575  1.1400
 7773TIP3    H244735   3.778   4.355  11.823 -0.5434 -0.0357 -0.6097
 7774TIP3   OH244736   4.184   0.065  12.934 -0.2687  0.1863 -0.3900
 7774TIP3    H144737   4.141   0.013  13.002  1.8528  0.0447  0.9496
 7774TIP3    H244738   4.156   0.155  12.951  0.7609  0.2538  1.1791
 7775TIP3   OH244739   1.777   1.157   0.683  0.1131  0.0544  0.3466
 7775TIP3    H144740   1.762   1.065   0.663  1.8260 -0.5226  1.5373
 7775TIP3    H244741   1.835   1.157   0.758 -0.9008  2.1370  1.2351
 7776TIP3   OH244742   5.823   4.338  13.754 -0.3462 -0.5658 -0.0101
 7776TIP3    H144743   5.838   4.423  13.796  1.3235 -1.2078  0.7800
 7776TIP3    H244744   5.850   4.351  13.663 -1.7904  0.2030 -0.3551
 7777TIP3   OH244745   4.623   1.731   4.735  0.4128  0.4887  0.2388
 7777TIP3    H144746   4.617   1.720   4.640 -0.8700  0.4856  0.3075
 7777TIP3    H244747   4.567   1.662   4.770 -1.6527  2.4118  0.9010
 7778TIP3   OH244748   3.387   6.083  17.113 -0.5844  0.2491  0.5607
 7778TIP3    H144749   3.399   6.003  17.062  0.4690 -0.0878  1.3093
 7778TIP3    H244750   3.316   6.129  17.068 -1.3693 -1.1958  0.2387
 7779TIP3   OH244751   3.653   6.584  14.893 -0.1205 -0.3690  0.4704
 7779TIP3    H144752   3.599   6.569  14.816 -0.0314 -0.5328  0.4397
 7779TIP3    H244753   3.683   6.675  14.884 -0.6548 -0.1725  0.6568
 7780TIP3   OH244754   6.217   1.617   3.985  0.9415  0.5602  0.4269
 7780TIP3    H144755   6.144   1.659   3.940  1.5903  1.7612  0.4424
 7780TIP3    H244756   6.273   1.584   3.915  0.0375 -1.0331  0.4201
 7781TIP3   OH244757   2.659   1.513   1.082  0.6188 -0.4970  0.4399
 7781TIP3    H144758   2.583   1.571   1.074 -0.4822 -1.9353 -0.0735
 7781TIP3    H244759   2.663   1.491   1.175  1.8858  1.4195  0.8930
 7782TIP3   OH244760   0.300   3.442   2.144  0.1094 -0.3223  0.0707
 7782TIP3    H144761   0.333   3.530   2.122 -1.9949  0.2442 -1.0642
 7782TIP3    H244762   0.259   3.453   2.229  0.5091 -0.3871  0.2723
 7783TIP3   OH244763   3.936   4.345  14.452 -0.2664  0.0550  0.6100
 7783TIP3    H144764   3.884   4.340  14.371  1.4572  0.6469 -0.5859
 7783TIP3    H244765   3.907   4.427  14.493 -0.2414  0.4249 -0.0836
 7784TIP3   OH244766   3.891   2.298  13.498  0.2444  0.2723  0.1088
 7784TIP3    H144767   3.843   2.226  13.539 -0.4115  0.9999  0.6568
 7784TIP3    H244768   3.895   2.365  13.566 -0.3104  1.2632 -0.8059
 7785TIP3   OH244769   0.742   3.171   5.664  0.2370  0.1741 -0.2638
 7785TIP3    H144770   0.685   3.235   5.622  0.6289  1.1720  0.6599
 7785TIP3    H244771   0.732   3.189   5.758  0.9536 -0.5990 -0.0313
 7786TIP3   OH244772   5.232   3.778   2.950  0.5349  0.2952  0.2318
 7786TIP3    H144773   5.221   3.828   3.031  2.7483  1.6347 -0.2127
 7786TIP3    H244774   5.285   3.703   2.976 -0.4230 -0.3464  0.3691
 7787TIP3   OH244775   0.110   2.182   0.497 -0.0334  0.2962  0.5548
 7787TIP3    H144776   0.059   2.195   0.577 -2.2156  3.4916 -1.1122
 7787TIP3    H244777   0.129   2.271   0.466  1.9350 -0.8205 -1.7704
 7788TIP3   OH244778   0.508   5.616   1.718 -0.7466 -0.0637  0.2888
 7788TIP3    H144779   0.560   5.629   1.639 -0.6856  3.5543  0.7602
 7788TIP3    H244780   0.540   5.533   1.755  2.8965  0.7083 -0.7868
 7789TIP3   OH244781   3.747   3.332  12.956 -0.2440  0.2597  0.4063
 7789TIP3    H144782   3.677   3.276  12.922 -0.4717  0.4398  0.5737
 7789TIP3    H244783   3.826   3.300  12.913 -0.4366  0.0839  0.1791
 7790TIP3   OH244784   2.539   6.429  13.082 -0.6989  0.1421 -0.0584
 7790TIP3    H144785   2.496   6.452  12.999 -0.7788  1.2572  0.2649
 7790TIP3    H244786   2.519   6.503  13.140  1.1589  0.4120  0.2883
 7791TIP3   OH244787   2.006   0.298  15.678 -0.1165 -0.4455 -0.0464
 7791TIP3    H144788   1.978   0.377  15.631  0.6828 -0.2730 -0.2470
 7791TIP3    H244789   1.958   0.227  15.635  0.3250 -0.2454 -0.9085
 7792TIP3   OH244790   2.278   1.430   4.608 -0.1580 -0.1189  0.2672
 7792TIP3    H144791   2.357   1.482   4.623  1.6188 -2.1630 -1.3248
 7792TIP3    H244792   2.281   1.406   4.516 -2.3759 -0.7591  0.2874
 7793TIP3   OH244793   2.758   5.642   1.337 -0.0091  0.5843 -0.2459
 7793TIP3    H144794   2.673   5.683   1.322 -0.9594 -1.2315 -0.1279
 7793TIP3    H244795   2.741   5.548   1.329  1.3391 -0.0335  2.6396
 7794TIP3   OH244796   5.007   1.899   1.551  0.1303  0.2907  0.2267
 7794TIP3    H144797   4.927   1.891   1.499  0.5807 -1.0845 -0.2884
 7794TIP3    H244798   5.077   1.912   1.486  0.5120  0.0307  0.5826
 7795TIP3   OH244799   1.423   1.549  13.643 -0.6175 -0.5875  0.1414
 7795TIP3    H144800   1.483   1.516  13.576  0.9674 -0.8029  1.5992
 7795TIP3    H244801   1.336   1.528  13.610  0.0603 -0.0251 -2.1865
 7796TIP3   OH244802   5.914   3.455  16.677 -0.0862 -0.7506  0.2501
 7796TIP3    H144803   5.954   3.474  16.762  1.0934  0.6565 -0.5951
 7796TIP3    H244804   5.820   3.465  16.693  0.0461 -1.2572  1.5509
 7797TIP3   OH244805   6.588   6.477  17.220  0.0785  0.1267 -0.3931
 7797TIP3    H144806   6.589   6.382  17.232 -0.8260 -0.0179 -1.3137
 7797TIP3    H244807   6.664   6.508  17.269  1.2039 -1.2115 -1.2066
 7798TIP3   OH244808   2.292   0.219  15.184  0.2259 -0.6770 -0.2483
 7798TIP3    H144809   2.290   0.123  15.181 -0.2847 -0.6640 -0.4622
 7798TIP3    H244810   2.266   0.241  15.274 -0.6366 -0.7189 -0.4857
 7799TIP3   OH244811   1.865   5.921  11.882  0.4235  0.0463  0.1998
 7799TIP3    H144812   1.845   5.830  11.862  0.5613 -0.2650  1.4425
 7799TIP3    H244813   1.832   5.970  11.806 -1.9186 -0.7689  0.6306
 7800TIP3   OH244814   3.265   5.285   0.210 -0.6217 -0.1587  0.2182
 7800TIP3    H144815   3.259   5.209   0.268  1.1390  0.2505  0.9886
 7800TIP3    H244816   3.213   5.353   0.253 -1.2134 -0.5581  0.1352
 7801TIP3   OH244817   6.307   0.074  16.299 -0.1973  0.2404  0.1096
 7801TIP3    H144818   6.357   0.152  16.275 -0.5662 -0.0158 -1.6904
 7801TIP3    H244819   6.372   0.009  16.324  0.1932  0.6961  0.2846
 7802TIP3   OH244820   3.624   6.375  11.798  0.2334  0.5532 -0.0448
 7802TIP3    H144821   3.687   6.418  11.739  1.1314  0.2996  0.7143
 7802TIP3    H244822   3.666   6.376  11.884 -1.3730  1.5949  0.7826
 7803TIP3   OH244823   4.892   1.734  13.738  0.4069  0.0171 -0.0242
 7803TIP3    H144824   4.985   1.735  13.758  0.1169  0.1978  1.3986
 7803TIP3    H244825   4.858   1.816  13.774 -0.7659 -1.2778  2.0081
 7804TIP3   OH244826   3.605   4.212  16.857 -0.2341 -0.1350 -0.4660
 7804TIP3    H144827   3.638   4.165  16.933  0.9774  1.0523 -0.2202
 7804TIP3    H244828   3.620   4.153  16.784  2.9733  0.4657 -0.4388
 7805TIP3   OH244829   0.285   3.494  12.305 -0.2785  0.7196 -0.0085
 7805TIP3    H144830   0.368   3.506  12.352  0.6542  0.7536 -1.5947
 7805TIP3    H244831   0.243   3.580  12.308  0.0695  0.8831  0.1914
 7806TIP3   OH244832   5.109   3.232  13.940 -0.3528  0.5557 -0.1829
 7806TIP3    H144833   5.063   3.158  13.899  1.6343 -1.0613  0.3667
 7806TIP3    H244834   5.085   3.227  14.032  2.0924 -1.3420  0.4382
 7807TIP3   OH244835   5.800   4.529  12.323  0.6240 -0.0429  0.5932
 7807TIP3    H144836   5.832   4.529  12.232 -0.8742 -3.3792 -0.1074
 7807TIP3    H244837   5.717   4.577  12.319  0.8171  0.2728  0.3069
 7808TIP3   OH244838   2.073   4.407  15.965  0.2710  0.2110 -0.5981
 7808TIP3    H144839   2.070   4.440  16.055  1.6877  0.2390 -0.5455
 7808TIP3    H244840   1.986   4.427  15.930 -0.8851 -1.1912  1.2228
 7809TIP3   OH244841   5.413   1.452  12.223 -0.2058  0.3519 -0.0586
 7809TIP3    H144842   5.480   1.383  12.227 -1.4336 -0.9163 -0.6930
 7809TIP3    H244843   5.428   1.504  12.302  0.9074 -0.4708  0.3034
 7810TIP3   OH244844   4.349   2.991  11.772 -0.5199 -0.4968  0.3755
 7810TIP3    H144845   4.297   3.067  11.744 -2.5617 -2.1904 -0.7820
 7810TIP3    H244846   4.437   3.007  11.738 -0.9009  1.3381  0.1865
 7811TIP3   OH244847   3.062   0.550  16.121  0.3066  0.9126  0.0502
 7811TIP3    H144848   3.095   0.564  16.210  0.4512 -2.2766  0.6185
 7811TIP3    H244849   2.974   0.589  16.123  0.4835  1.3239  1.4462
 7812TIP3   OH244850   3.192   1.907  13.719 -0.2072 -0.3096 -0.1143
 7812TIP3    H144851   3.170   1.969  13.649 -1.1568 -0.1740  0.2891
 7812TIP3    H244852   3.127   1.838  13.711  0.5806 -1.0472 -0.2804
 7813TIP3   OH244853   1.893   1.801   2.470  0.5658  0.1708  0.1568
 7813TIP3    H144854   1.800   1.825   2.474  0.5703  0.0841  1.1449
 7813TIP3    H244855   1.939   1.881   2.497  0.7003 -0.1770  1.0009
 7814TIP3   OH244856   2.126   3.161  15.556 -0.2174  0.3171  0.5003
 7814TIP3    H144857   2.108   3.240  15.506  0.3905  0.1255 -0.0311
 7814TIP3    H244858   2.186   3.111  15.501 -2.0546 -1.4110 -0.0468
 7815TIP3   OH244859   2.142   6.559   4.538 -0.6027 -0.2838  0.5218
 7815TIP3    H144860   2.110   6.511   4.461  0.6092  0.2052 -0.3291
 7815TIP3    H244861   2.158   6.648   4.506  1.4790 -0.4758  0.8731
 7816TIP3   OH244862   2.659   6.052   4.623  0.1777 -0.0014 -0.2065
 7816TIP3    H144863   2.694   6.102   4.550  0.7569 -2.0335 -1.3823
 7816TIP3    H244864   2.675   6.107   4.700  1.3928  1.2868 -1.3398
 7817TIP3   OH244865   5.708   6.291   1.486 -0.1826  0.0968 -0.3119
 7817TIP3    H144866   5.797   6.308   1.517 -0.0961  0.8765 -0.9634
 7817TIP3    H244867   5.653   6.298   1.565  0.3220 -0.3660  0.0878
 7818TIP3   OH244868   4.107   2.725  14.037 -0.7027  0.2544 -0.6970
 7818TIP3    H144869   4.177   2.744  14.100  0.1765 -1.6263 -1.0382
 7818TIP3    H244870   4.032   2.701  14.092 -0.5154  0.4569 -0.3474
 7819TIP3   OH244871   4.548   1.370  14.461  0.4854  0.0967 -0.3540
 7819TIP3    H144872   4.565   1.325  14.544  0.5940 -2.0125 -1.4574
 7819TIP3    H244873   4.480   1.434  14.483  1.6830  0.7658  1.6851
 7820TIP3   OH244874   5.857   2.638   4.557  0.7136  0.5149 -0.2243
 7820TIP3    H144875   5.809   2.719   4.541 -1.2680 -0.5932 -0.3013
 7820TIP3    H244876   5.891   2.647   4.646 -1.3335  0.6304  0.6114
 7821TIP3   OH244877   0.599   6.130   3.637 -0.3724 -0.4972  0.5470
 7821TIP3    H144878   0.585   6.184   3.559  0.3724  0.6849  1.1960
 7821TIP3    H244879   0.622   6.043   3.603 -0.8061 -0.1999 -0.5284
 7822TIP3   OH244880   0.481   5.512   5.083  0.4593 -0.2936  0.9215
 7822TIP3    H144881   0.566   5.512   5.039  0.1035  0.6903  0.1765
 7822TIP3    H244882   0.493   5.455   5.159  1.5726 -0.7332  0.4459
 7823TIP3   OH244883   0.772   3.324  16.047 -0.0712  0.8387 -0.1973
 7823TIP3    H144884   0.854   3.334  16.096 -0.4463  0.3978  0.5451
 7823TIP3    H244885   0.800   3.305  15.957  0.6294  1.8519 -0.2063
 7824TIP3   OH244886   2.526   5.558  17.135  0.0143 -0.6435  0.4059
 7824TIP3    H144887   2.537   5.645  17.097  1.8781 -0.8432  0.4035
 7824TIP3    H244888   2.492   5.574  17.223 -0.5969  0.0156  0.0624
 7825TIP3   OH244889   4.331   1.312  16.948  0.0087 -0.2703 -0.5933
 7825TIP3    H144890   4.395   1.246  16.976 -0.4420 -0.8927 -0.9981
 7825TIP3    H244891   4.373   1.353  16.872  0.2522 -0.1594 -0.3998
 7826TIP3   OH244892   3.926   5.226   0.890 -0.1890 -0.1673  0.3276
 7826TIP3    H144893   3.919   5.320   0.903  2.3271 -0.0294  1.1054
 7826TIP3    H244894   3.899   5.212   0.799  1.1301  1.5674 -0.3833
 7827TIP3   OH244895   2.585   2.174  12.991  0.0983  0.0550  0.6249
 7827TIP3    H144896   2.571   2.092  13.039 -0.4720 -0.3582 -0.2318
 7827TIP3    H244897   2.622   2.146  12.907  1.8240  0.8237  1.0891
 7828TIP3   OH244898   3.272   6.161   5.343  0.0554 -0.3199  0.1725
 7828TIP3    H144899   3.349   6.107   5.327  0.8830  0.8233  0.1415
 7828TIP3    H244900   3.272   6.177   5.438  1.6050  2.0956 -0.1440
 7829TIP3   OH244901   2.059   5.869   0.706  0.0272 -0.3053  0.0765
 7829TIP3    H144902   2.116   5.875   0.783  1.0974  2.6638 -0.7879
 7829TIP3    H244903   2.111   5.822   0.642  0.9946  1.0891 -0.2135
 7830TIP3   OH244904   1.151   4.455   5.519 -0.4960  0.1933 -0.0436
 7830TIP3    H144905   1.207   4.515   5.470 -0.3119 -1.7290 -2.4605
 7830TIP3    H244906   1.065   4.463   5.477 -0.8543 -0.1148  0.6184
 7831TIP3   OH244907   6.259   0.174  17.315  0.5083  0.2587  0.2420
 7831TIP3    H144908   6.299   0.204  17.397  1.4256  0.2156 -0.1849
 7831TIP3    H244909   6.192   0.111  17.343  1.2240 -0.2166  0.9315
 7832TIP3   OH244910   0.181   6.359   1.152 -0.2475  0.0668  0.6988
 7832TIP3    H144911   0.211   6.278   1.110  0.7177  0.5411  0.4487
 7832TIP3    H244912   0.261   6.409   1.168 -0.8727  1.1858  0.4204
 7833TIP3   OH244913   6.325   5.403  16.485 -0.0432 -0.4764  0.1727
 7833TIP3    H144914   6.340   5.407  16.579  1.0692  0.9711 -0.0315
 7833TIP3    H244915   6.263   5.474  16.468  0.2642 -0.3104 -0.2672
 7834TIP3   OH244916   5.507   3.597  11.061  0.3572 -0.1889 -0.4280
 7834TIP3    H144917   5.442   3.667  11.057 -1.6545 -1.9911 -1.2074
 7834TIP3    H244918   5.512   3.574  11.154  0.4154  0.4248 -0.2765
 7835TIP3   OH244919   6.738   2.720  16.556  0.3882  0.2383  0.2702
 7835TIP3    H144920   6.803   2.650  16.544 -1.3709 -1.2414 -1.2234
 7835TIP3    H244921   6.660   2.688  16.511 -0.4001  3.3644 -0.8393
 7836TIP3   OH244922   1.873   5.523  17.023  0.0133 -0.0616 -0.6086
 7836TIP3    H144923   1.849   5.505  16.932 -0.2142  2.0392 -1.0012
 7836TIP3    H244924   1.849   5.443  17.070 -0.1209 -1.0871 -2.3254
 7837TIP3   OH244925   5.460   3.430  13.773  0.1512 -0.1892  0.1651
 7837TIP3    H144926   5.409   3.476  13.705  0.1793  1.0436  0.9481
 7837TIP3    H244927   5.540   3.482  13.782  0.5206 -0.8192  0.5707
 7838TIP3   OH244928   1.679   1.718   3.931  0.6212  0.1329 -0.4868
 7838TIP3    H144929   1.663   1.795   3.875 -0.1471 -1.3406 -2.4015
 7838TIP3    H244930   1.591   1.682   3.947  0.8158  0.5364  1.7849
 7839TIP3   OH244931   1.728   3.707   5.216  0.5682 -0.3163  0.0368
 7839TIP3    H144932   1.793   3.675   5.153  1.1754 -0.8156  0.8991
 7839TIP3    H244933   1.779   3.749   5.285 -0.1166  0.6962 -0.0464
 7840TIP3   OH244934   5.332   4.007  15.252 -0.5316  0.4446 -0.1927
 7840TIP3    H144935   5.313   3.990  15.160 -1.4019  1.4806 -0.2271
 7840TIP3    H244936   5.246   4.008  15.295 -0.1881  0.5863  0.5080
 7841TIP3   OH244937   2.483   6.747   4.520 -0.5705  0.1650  0.0792
 7841TIP3    H144938   2.499   6.804   4.596 -0.7846  1.0181 -0.5021
 7841TIP3    H244939   2.484   6.659   4.556  4.1949  0.0962  0.3416
 7842TIP3   OH244940   1.291   3.232   5.989 -0.0761  0.3007  0.0143
 7842TIP3    H144941   1.242   3.221   6.071  2.9533 -0.1165  1.9282
 7842TIP3    H244942   1.341   3.313   6.002  1.3208 -0.3751 -0.9375
 7843TIP3   OH244943   6.604   2.808   2.630  0.7061  0.5053 -0.7608
 7843TIP3    H144944   6.650   2.751   2.691  0.7059 -0.1996 -1.4069
 7843TIP3    H244945   6.544   2.859   2.685  0.4635 -0.3523 -0.2073
 7844TIP3   OH244946   2.912   2.880   3.802  0.2286 -0.4613 -0.1918
 7844TIP3    H144947   2.828   2.910   3.837  1.6908  0.5320  2.7586
 7844TIP3    H244948   2.905   2.897   3.708 -2.4509  0.6207  0.0999
 7845TIP3   OH244949   3.022   6.567   4.490 -0.3542 -0.0235 -0.0480
 7845TIP3    H144950   3.042   6.660   4.503  1.3273 -0.3047 -0.3923
 7845TIP3    H244951   2.957   6.567   4.420  0.1215  0.8739 -0.5151
 7846TIP3   OH244952   1.050   6.457  12.264 -0.5683 -0.6685  0.1349
 7846TIP3    H144953   1.030   6.540  12.220  0.3282 -0.9216 -0.8012
 7846TIP3    H244954   1.137   6.471  12.302 -1.4293 -0.3705  2.0999
 7847TIP3   OH244955   3.116   1.964   1.528  0.3587 -0.2465  0.2180
 7847TIP3    H144956   3.153   1.968   1.616  0.0854  0.1010  0.3185
 7847TIP3    H244957   3.081   2.051   1.513  1.8354  0.1974 -0.8694
 7848TIP3   OH244958   5.616   4.860  15.547 -0.4760 -0.1252  0.1300
 7848TIP3    H144959   5.658   4.856  15.633 -1.5721  1.9406  0.8137
 7848TIP3    H244960   5.527   4.889  15.565 -0.4516  1.2825 -1.7539
 7849TIP3   OH244961   5.872   1.640   2.189  0.0357  0.2070 -0.2276
 7849TIP3    H144962   5.895   1.594   2.109  0.1781 -1.7180  0.8498
 7849TIP3    H244963   5.779   1.620   2.202 -0.2327  1.3201 -0.4261
 7850TIP3   OH244964   4.911   6.682  14.376 -0.0347 -0.4048  0.8797
 7850TIP3    H144965   4.991   6.715  14.335 -1.5107  1.0991 -0.9568
 7850TIP3    H244966   4.900   6.736  14.454 -1.0030  1.8164 -0.6870
 7851TIP3   OH244967   0.103   3.462   2.517 -0.1631  0.1205  0.3486
 7851TIP3    H144968   0.012   3.450   2.490 -0.0271 -0.4324  0.1344
 7851TIP3    H244969   0.133   3.537   2.465 -0.2602 -0.1933 -0.1710
 7852TIP3   OH244970   3.516   3.524  12.241  0.4220 -0.2001 -0.0002
 7852TIP3    H144971   3.510   3.428  12.245  1.9568 -0.3548 -0.5327
 7852TIP3    H244972   3.495   3.553  12.330  1.4634 -1.1597  0.5881
 7853TIP3   OH244973   0.489   6.460  15.658  0.0088 -0.2749  0.0075
 7853TIP3    H144974   0.448   6.487  15.740 -2.2596 -1.9539 -0.4777
 7853TIP3    H244975   0.576   6.429  15.683 -0.0288  0.7562  1.5032
 7854TIP3   OH244976   1.353   4.594  11.077  0.1444  0.1199  0.3393
 7854TIP3    H144977   1.387   4.573  10.990 -1.0456 -0.0546 -0.1047
 7854TIP3    H244978   1.419   4.560  11.137 -0.5595 -2.8151 -0.3936
 7855TIP3   OH244979   5.771   0.717   1.327  0.0019  0.1318 -0.2610
 7855TIP3    H144980   5.711   0.775   1.375 -2.2664 -2.1339 -0.1461
 7855TIP3    H244981   5.713   0.660   1.276  2.1975 -0.5900 -2.1269
 7856TIP3   OH244982   0.197   4.821  12.872 -0.1419  0.0551  0.5283
 7856TIP3    H144983   0.231   4.734  12.894 -0.3071  0.1911  1.3466
 7856TIP3    H244984   0.186   4.819  12.777  0.1071 -0.7312  0.5110
 7857TIP3   OH244985   6.723   6.044  16.075 -0.9391  0.0257  0.1333
 7857TIP3    H144986   6.745   6.128  16.034  0.7522 -0.4521 -0.0334
 7857TIP3    H244987   6.689   5.990  16.003 -1.2929  0.3070  0.0864
 7858TIP3   OH244988   4.430   5.729   0.861 -0.0286  0.0627  0.1231
 7858TIP3    H144989   4.507   5.712   0.915 -1.3628 -0.8515  1.8190
 7858TIP3    H244990   4.442   5.673   0.784  2.0214  1.5902 -0.7563
 7859TIP3   OH244991   2.584   3.678   1.843 -0.7401  0.1205  0.1301
 7859TIP3    H144992   2.511   3.729   1.878 -1.0788 -0.0704 -0.2939
 7859TIP3    H244993   2.657   3.698   1.901 -1.2465 -0.0385  0.8412
 7860TIP3   OH244994   5.917   1.026   4.416  0.0688 -0.3263 -0.2209
 7860TIP3    H144995   5.901   1.120   4.400  2.0225 -0.1907 -1.6502
 7860TIP3    H244996   6.008   1.022   4.445 -0.3164 -1.7188  0.9078
 7861TIP3   OH244997   4.688   6.267   0.967 -0.3185  0.6941  0.8232
 7861TIP3    H144998   4.635   6.272   0.888 -0.4035  0.0968  0.8378
 7861TIP3    H244999   4.702   6.358   0.992 -2.6056  0.8880  1.6640
 7862TIP3   OH245000   5.409   4.775   3.837  0.0646 -0.3608  0.0837
 7862TIP3    H145001   5.390   4.730   3.919 -2.0448  0.3439  0.0392
 7862TIP3    H245002   5.462   4.851   3.863  0.3190 -0.7241  0.6418
 7863TIP3   OH245003   5.689   4.488   6.458 -0.4478 -0.2987 -0.7692
 7863TIP3    H145004   5.638   4.530   6.388 -0.3826  1.5952  0.2810
 7863TIP3    H245005   5.741   4.422   6.412 -2.4008 -0.9993 -2.1410
 7864TIP3   OH245006   3.341   4.763   0.159  0.5076  0.3754 -0.7508
 7864TIP3    H145007   3.316   4.855   0.151  0.2127  0.2277 -1.6856
 7864TIP3    H245008   3.337   4.730   0.069 -1.8561 -1.2035 -0.1355
 7865TIP3   OH245009   2.421   2.233  13.798  0.2012 -0.9278 -0.3334
 7865TIP3    H145010   2.473   2.201  13.872 -0.1346  2.5543  1.6186
 7865TIP3    H245011   2.330   2.228  13.829  0.1070  1.2076 -0.1492
 7866TIP3   OH245012   5.903   0.294   3.601 -0.0252 -0.3533 -0.5687
 7866TIP3    H145013   5.925   0.228   3.667 -0.3115 -0.8059 -0.9210
 7866TIP3    H245014   5.986   0.339   3.584  0.2071 -0.7132 -0.4199
 7867TIP3   OH245015   4.439   6.461  15.621  0.4295 -1.1654  0.1411
 7867TIP3    H145016   4.344   6.473  15.617  0.5941  0.7682  0.8157
 7867TIP3    H245017   4.463   6.491  15.709  1.8939  0.6694 -0.7992
 7868TIP3   OH245018   5.694   3.727  12.993 -0.1921 -0.5616 -0.3274
 7868TIP3    H145019   5.713   3.807  12.945 -1.9141 -0.2961 -0.6460
 7868TIP3    H245020   5.641   3.756  13.068 -1.3459 -1.4281 -0.7695
 7869TIP3   OH245021   4.944   5.289   2.221 -0.4152  0.1220 -0.5404
 7869TIP3    H145022   5.013   5.327   2.167 -1.1891  2.3175 -0.1086
 7869TIP3    H245023   4.990   5.259   2.300  0.3828 -0.9400 -1.3773
 7870TIP3   OH245024   2.224   6.416   1.998  0.3498  0.2863  0.4313
 7870TIP3    H145025   2.316   6.442   2.006 -0.0013  1.7220  0.1044
 7870TIP3    H245026   2.196   6.454   1.914 -0.1581 -1.3880 -0.1970
 7871TIP3   OH245027   6.760   0.505   5.658  0.0310 -0.5068  0.5227
 7871TIP3    H145028   6.677   0.459   5.672 -0.4791  0.2756  0.1413
 7871TIP3    H245029   6.815   0.477   5.731  0.1286 -2.5431 -0.2652
 7872TIP3   OH245030   2.318   4.434   3.261 -0.3416  0.4973 -0.5214
 7872TIP3    H145031   2.260   4.450   3.336 -0.5006 -2.0832 -0.0068
 7872TIP3    H245032   2.279   4.360   3.215  2.1790 -0.9744 -0.4805
 7873TIP3   OH245033   3.967   3.873   2.245 -0.1181 -0.4019  0.1135
 7873TIP3    H145034   3.971   3.897   2.338  3.9382  0.5945 -0.1631
 7873TIP3    H245035   4.039   3.811   2.233 -1.6860 -1.9598 -2.0961
 7874TIP3   OH245036   4.026   4.550  12.544  0.9515 -0.4640 -0.3959
 7874TIP3    H145037   3.972   4.509  12.477  1.1825 -0.3640 -0.6484
 7874TIP3    H245038   4.024   4.643  12.522  2.0516 -0.5679 -1.0302
 7875TIP3   OH245039   2.742   1.762  17.041 -0.2956 -0.2324  0.0695
 7875TIP3    H145040   2.747   1.802  16.954 -1.4689 -0.6976 -0.2306
 7875TIP3    H245041   2.816   1.701  17.044  0.7593  1.0045  0.0535
 7876TIP3   OH245042   2.798   2.809  12.326 -0.3121 -0.2957 -0.0521
 7876TIP3    H145043   2.785   2.749  12.399  1.2509 -1.2582 -0.4883
 7876TIP3    H245044   2.886   2.844  12.339 -1.2299  2.0876  0.2604
 7877TIP3   OH245045   1.696   4.891   1.255 -0.5141  0.1615  0.0704
 7877TIP3    H145046   1.647   4.969   1.280 -0.7857 -0.2616  0.8939
 7877TIP3    H245047   1.743   4.866   1.335 -0.7923 -0.7807 -0.0521
 7878TIP3   OH245048   0.598   3.162  12.886  0.1058  0.8500  0.5916
 7878TIP3    H145049   0.678   3.196  12.927  0.6393  0.4405 -0.1020
 7878TIP3    H245050   0.610   3.068  12.885 -0.3902  0.7864  0.4691
 7879TIP3   OH245051   5.105   0.355   6.577 -0.6720 -0.4678  0.0522
 7879TIP3    H145052   5.022   0.402   6.566 -0.8398 -0.7948 -0.1063
 7879TIP3    H245053   5.130   0.329   6.488 -0.0942  0.1437  0.0341
 7880TIP3   OH245054   5.324   0.834  13.208 -0.1093  0.7119 -0.2273
 7880TIP3    H145055   5.240   0.879  13.215  0.0759  0.9077  0.9035
 7880TIP3    H245056   5.389   0.905  13.208  0.1163  0.5128  0.2339
 7881TIP3   OH245057   2.760   0.417   0.380  0.0389 -0.0044  0.2753
 7881TIP3    H145058   2.738   0.447   0.468  0.2002  0.1880  0.2493
 7881TIP3    H245059   2.683   0.439   0.328 -0.2005 -0.4329  0.4367
 7882TIP3   OH245060   5.864   5.685   2.894 -0.6676  0.1544  0.2260
 7882TIP3    H145061   5.956   5.663   2.886 -1.1041 -1.3546 -1.2082
 7882TIP3    H245062   5.847   5.688   2.988  0.5675 -0.7981  0.4976
 7883TIP3   OH245063   3.780   6.271   1.050 -1.0274 -0.4965  0.1325
 7883TIP3    H145064   3.769   6.273   1.145 -1.6926 -0.8052  0.0713
 7883TIP3    H245065   3.710   6.327   1.017 -0.6698 -0.2258 -0.1690
 7884TIP3   OH245066   1.300   2.169  12.796  0.7400  0.3683  0.3739
 7884TIP3    H145067   1.224   2.137  12.844  1.1390 -0.6713  0.3219
 7884TIP3    H245068   1.316   2.256  12.833  1.1466 -0.4699  2.2665
 7885TIP3   OH245069   6.331   2.503   5.533 -0.1825 -0.1468 -0.7075
 7885TIP3    H145070   6.326   2.578   5.475 -2.1072  1.7930  1.7259
 7885TIP3    H245071   6.245   2.499   5.575  0.8843 -1.7195  1.5595
 7886TIP3   OH245072   1.429   0.698  16.464 -0.7147  0.4026  0.2194
 7886TIP3    H145073   1.373   0.621  16.450 -0.9436  0.3231  1.4543
 7886TIP3    H245074   1.485   0.673  16.537  0.2186  0.8869 -0.3161
 7887TIP3   OH245075   1.258   5.487   2.724  0.5126  0.1745 -0.0343
 7887TIP3    H145076   1.337   5.533   2.753 -0.8340  2.1627  0.6773
 7887TIP3    H245077   1.194   5.556   2.708 -1.6243 -1.4290  1.0359
 7888TIP3   OH245078   4.974   1.628   5.895  0.4776 -0.2996  0.4411
 7888TIP3    H145079   4.938   1.703   5.941 -1.1132 -1.3903  1.0751
 7888TIP3    H245080   4.905   1.601   5.835  0.4194 -2.0777  1.2422
 7889TIP3   OH245081   4.380   2.849   5.361  0.4848 -0.1438 -0.0751
 7889TIP3    H145082   4.454   2.890   5.317  0.6876 -0.5197 -0.0885
 7889TIP3    H245083   4.383   2.757   5.333 -0.7885  0.1163 -1.1659
 7890TIP3   OH245084   2.085   1.705  12.483 -0.3959 -0.3075  0.6101
 7890TIP3    H145085   2.030   1.749  12.548  1.5198  1.8372  0.8889
 7890TIP3    H245086   2.174   1.712  12.518  0.2298 -2.9305 -0.2278
 7891TIP3   OH245087   2.038   2.538  16.243  0.2564 -0.1401  0.0791
 7891TIP3    H145088   1.980   2.594  16.294  0.7373  0.3622  0.0914
 7891TIP3    H245089   2.124   2.581  16.249  0.2570  0.1040 -1.4211
 7892TIP3   OH245090   0.743   5.662  16.013  0.1109  0.3495  0.3824
 7892TIP3    H145091   0.731   5.716  16.091  0.9647 -1.4604  1.8609
 7892TIP3    H245092   0.835   5.672  15.990 -0.3500  1.6273 -1.0393
 7893TIP3   OH245093   2.727   0.831  12.220  0.1611  0.6586  0.1230
 7893TIP3    H145094   2.795   0.889  12.255  2.9894 -2.9411  1.1738
 7893TIP3    H245095   2.769   0.787  12.146 -1.3055 -1.0452  0.2466
 7894TIP3   OH245096   3.351   6.712   3.260  0.0096 -0.1157  0.4821
 7894TIP3    H145097   3.283   6.696   3.325 -2.3274  2.0243 -1.2518
 7894TIP3    H245098   3.346   6.637   3.201 -1.5975  0.4673 -0.1748
 7895TIP3   OH245099   2.924   6.455  11.260 -0.1716 -0.5981 -0.1365
 7895TIP3    H145100   2.844   6.412  11.290  0.7415 -1.1820  1.5707
 7895TIP3    H245101   2.952   6.508  11.335  0.4160  0.5268 -1.1223
 7896TIP3   OH245102   3.464   0.280   5.180 -0.1034 -0.1733  0.0618
 7896TIP3    H145103   3.534   0.236   5.230  0.0671 -0.2485 -0.2427
 7896TIP3    H245104   3.453   0.364   5.225  0.9428  0.3027 -0.5366
 7897TIP3   OH245105   5.937   3.531  16.434 -0.3818 -0.7135 -0.1241
 7897TIP3    H145106   5.909   3.541  16.525 -0.1842  0.4225 -0.1718
 7897TIP3    H245107   5.856   3.533  16.384 -0.4535 -0.7935 -0.0116
 7898TIP3   OH245108   3.972   4.576  12.233  0.1145 -0.5384  0.4703
 7898TIP3    H145109   3.913   4.511  12.195 -2.2515  0.6014  1.9764
 7898TIP3    H245110   3.956   4.655  12.181  0.2558 -0.1925  0.9481
 7899TIP3   OH245111   0.508   3.917  11.524 -0.0309  0.1410 -0.2765
 7899TIP3    H145112   0.486   4.009  11.543  1.8646  0.6412 -0.3844
 7899TIP3    H245113   0.575   3.922  11.457  1.8289 -1.2154  1.3822
 7900TIP3   OH245114   3.037   1.912   5.949  0.3963  0.3504 -0.1781
 7900TIP3    H145115   3.063   1.845   6.012  2.3279  1.4885  0.3159
 7900TIP3    H245116   2.996   1.981   6.001  1.7245  1.1567 -0.1401
 7901TIP3   OH245117   4.228   5.035  17.284 -0.1454 -0.3152  0.6986
 7901TIP3    H145118   4.143   5.078  17.274 -1.3901 -3.0384 -2.0062
 7901TIP3    H245119   4.207   4.951  17.324  1.0917 -1.3867 -0.7906
 7902TIP3   OH245120   1.730   2.042  11.967 -0.6074  0.1554  0.6312
 7902TIP3    H145121   1.755   2.108  12.031  0.2192  1.9355 -1.3987
 7902TIP3    H245122   1.663   2.085  11.913 -0.7442 -1.0075 -0.1761
 7903TIP3   OH245123   4.111   3.407  14.923  0.0486 -0.0458 -0.0373
 7903TIP3    H145124   4.165   3.334  14.892 -1.3581 -0.9242 -0.5148
 7903TIP3    H245125   4.049   3.367  14.984  0.1361  1.0003  0.7690
 7904TIP3   OH245126   6.637   3.368  16.077  0.5346  0.5425  0.2269
 7904TIP3    H145127   6.638   3.346  15.984  0.6589  2.7726 -0.3581
 7904TIP3    H245128   6.713   3.324  16.114  0.9718  0.3372 -0.8935
 7905TIP3   OH245129   1.802   5.361  10.860  0.7834 -0.2398  0.0173
 7905TIP3    H145130   1.750   5.434  10.828  2.8917  1.2016 -0.3658
 7905TIP3    H245131   1.750   5.323  10.931 -1.3238  0.2196 -1.1970
 7906TIP3   OH245132   1.648   6.083   4.509  0.1529 -0.6172 -0.7081
 7906TIP3    H145133   1.578   6.071   4.445  0.1799  0.1346 -0.8864
 7906TIP3    H245134   1.628   6.165   4.552  0.5765 -0.7191 -0.3076
 7907TIP3   OH245135   5.608   1.766  13.356 -0.2679 -0.2741 -1.0431
 7907TIP3    H145136   5.580   1.697  13.296 -4.1213 -0.3762  0.5813
 7907TIP3    H245137   5.557   1.843  13.330  2.0834  1.3328 -1.2223
 7908TIP3   OH245138   0.958   2.099   6.048 -0.6913 -1.0248 -0.8466
 7908TIP3    H145139   0.952   2.004   6.037  1.1627 -1.4781  1.3365
 7908TIP3    H245140   1.052   2.118   6.053 -1.0346  0.7902 -0.2831
 7909TIP3   OH245141   3.671   4.591   5.371  0.2966  0.3011  0.0889
 7909TIP3    H145142   3.657   4.521   5.308 -1.0662 -0.1756  0.8903
 7909TIP3    H245143   3.598   4.584   5.432  0.4848  2.0152  0.5673
 7910TIP3   OH245144   4.139   6.199   4.859  0.6038 -0.0670  0.2240
 7910TIP3    H145145   4.077   6.163   4.923  0.4364 -0.2087 -0.0127
 7910TIP3    H245146   4.083   6.236   4.791  0.7659  1.2783  0.7997
 7911TIP3   OH245147   4.116   6.635   1.743  0.0948 -0.3348 -0.0093
 7911TIP3    H145148   4.080   6.633   1.832  1.1602 -0.1110  0.4395
 7911TIP3    H245149   4.211   6.631   1.755  0.2523 -0.4455 -1.1467
 7912TIP3   OH245150   1.859   0.652   0.544 -0.1714 -0.4190 -0.0149
 7912TIP3    H145151   1.809   0.593   0.487  1.9589 -1.1374 -1.2667
 7912TIP3    H245152   1.900   0.714   0.484  0.8640 -0.1969  0.9039
 7913TIP3   OH245153   6.115   1.556  15.287 -0.0359 -0.2521 -0.6156
 7913TIP3    H145154   6.066   1.497  15.344 -1.6218  1.3591 -0.2175
 7913TIP3    H245155   6.098   1.524  15.199  0.9230 -1.6592 -0.3277
 7914TIP3   OH245156   1.054   0.998   7.196 -0.1778  0.0088  0.4324
 7914TIP3    H145157   1.023   1.071   7.249 -0.4718 -0.2496  0.6206
 7914TIP3    H245158   0.999   1.000   7.118  0.0814  0.2322  0.2572
 7915TIP3   OH245159   3.257   4.267   1.670  0.1239 -0.1217  0.0380
 7915TIP3    H145160   3.328   4.231   1.617 -0.2888  1.3157 -1.5398
 7915TIP3    H245161   3.181   4.269   1.612 -0.6455  0.4702  1.0177
 7916TIP3   OH245162   4.980   2.848  15.185  0.3734  0.8453  0.0417
 7916TIP3    H145163   4.998   2.913  15.118 -2.1996  2.4559  0.7728
 7916TIP3    H245164   5.023   2.882  15.264  1.0354  0.3921 -0.1134
 7917TIP3   OH245165   4.358   6.456  16.664 -0.5523  0.0327 -0.0536
 7917TIP3    H145166   4.384   6.374  16.707  0.9752 -0.1485 -1.2285
 7917TIP3    H245167   4.440   6.504  16.653 -0.8458  0.0974 -2.6134
 7918TIP3   OH245168   3.297   6.395  15.897 -0.0514 -0.3391 -0.0455
 7918TIP3    H145169   3.294   6.486  15.926 -1.3914 -0.5195  0.4208
 7918TIP3    H245170   3.223   6.353  15.940 -0.6780 -1.1764 -1.8547
 7919TIP3   OH245171   3.198   3.850  11.932 -0.6013  0.7264 -0.4579
 7919TIP3    H145172   3.189   3.943  11.954 -2.4986  0.9198 -1.8379
 7919TIP3    H245173   3.162   3.804  12.008 -0.2211  1.1355 -0.0267
 7920TIP3   OH245174   3.209   1.989  12.485 -0.8239 -0.2794 -0.0529
 7920TIP3    H145175   3.165   2.062  12.442 -3.0059 -2.1123 -1.0669
 7920TIP3    H245176   3.231   1.929  12.415  0.4357 -0.8943  0.8303
 7921TIP3   OH245177   0.857   2.725   6.575  0.6004 -0.5123 -0.4836
 7921TIP3    H145178   0.935   2.676   6.601 -0.1085 -1.1481  0.4901
 7921TIP3    H245179   0.866   2.810   6.618  0.0189 -1.1347  0.9218
 7922TIP3   OH245180   6.507   0.854   0.402 -0.2129 -0.3033 -0.0318
 7922TIP3    H145181   6.502   0.915   0.476  0.6052 -0.4788  0.1770
 7922TIP3    H245182   6.590   0.808   0.415  0.3690  0.2577 -1.5270
 7923TIP3   OH245183   1.561   5.502  15.153 -0.5885 -0.4798  0.0371
 7923TIP3    H145184   1.655   5.490  15.163 -0.3523  0.8516 -0.4523
 7923TIP3    H245185   1.549   5.595  15.136 -2.0584 -0.5056  0.7168
 7924TIP3   OH245186   3.376   0.724  16.101 -0.6928 -0.1773  0.3721
 7924TIP3    H145187   3.374   0.819  16.097  2.0302 -0.0876 -1.7242
 7924TIP3    H245188   3.307   0.696  16.040  0.1454  0.5227 -0.9232
 7925TIP3   OH245189   5.860   5.632   2.519 -0.1121  0.0267 -0.4064
 7925TIP3    H145190   5.840   5.611   2.428  0.2662 -1.2195 -0.2221
 7925TIP3    H245191   5.776   5.627   2.564 -0.1120 -0.6727 -0.4627
 7926TIP3   OH245192   6.198   6.294   0.606 -0.2108  0.8298  0.3943
 7926TIP3    H145193   6.268   6.358   0.618  1.8689 -0.9951 -1.1264
 7926TIP3    H245194   6.222   6.222   0.664  0.4815 -0.7429 -1.7202
 7927TIP3   OH245195   0.380   2.078  15.198  0.2276 -0.1193  0.1390
 7927TIP3    H145196   0.307   2.018  15.188  1.2958 -1.5176  0.4017
 7927TIP3    H245197   0.390   2.119  15.112 -1.1687  0.4963  0.2485
 7928TIP3   OH245198   2.914   1.990   4.804  0.0703 -0.1327 -0.3476
 7928TIP3    H145199   2.979   1.944   4.752 -0.9335  0.1316 -1.8957
 7928TIP3    H245200   2.946   1.982   4.894  1.8347 -0.6320 -0.9724
 7929TIP3   OH245201   5.389   6.052  17.230  0.3080  0.0787 -0.1370
 7929TIP3    H145202   5.383   5.963  17.263 -0.9535  0.5516  0.9833
 7929TIP3    H245203   5.328   6.056  17.157  1.8100 -0.4834 -1.4755
 7930TIP3   OH245204   1.682   5.297   0.676 -0.3247 -0.0250  0.6389
 7930TIP3    H145205   1.613   5.319   0.739 -1.1391 -0.2760 -0.1383
 7930TIP3    H245206   1.639   5.240   0.612  0.1823  1.0571 -0.7293
 7931TIP3   OH245207   0.026   3.719   2.067  0.1646 -0.5051 -0.2703
 7931TIP3    H145208   0.055   3.792   2.012 -0.8663 -1.2005 -1.8094
 7931TIP3    H245209  -0.062   3.743   2.096  0.1511 -0.7668 -0.0851
 7932TIP3   OH245210   3.008   6.588   3.524 -0.9052 -0.1060 -0.1413
 7932TIP3    H145211   3.082   6.544   3.567 -1.9271  1.2376  3.3441
 7932TIP3    H245212   2.942   6.519   3.515 -1.0233 -0.2661  1.5194
 7933TIP3   OH245213   5.692   0.540   0.363 -0.3161  0.3914  0.4752
 7933TIP3    H145214   5.629   0.470   0.349  0.0201 -0.0013  0.8818
 7933TIP3    H245215   5.658   0.588   0.438 -0.1205  0.1608  0.7141
 7934TIP3   OH245216   6.445   4.321  13.247 -0.0364  0.3593  0.2854
 7934TIP3    H145217   6.513   4.257  13.268 -0.4521 -0.0223  0.5127
 7934TIP3    H245218   6.492   4.398  13.217  0.4744 -0.1915 -0.3908
 7935TIP3   OH245219   4.869   6.417  14.402  0.7367  0.1101 -0.3172
 7935TIP3    H145220   4.862   6.512  14.388 -1.3652 -0.3493 -3.6594
 7935TIP3    H245221   4.923   6.386  14.330  0.4219 -1.3504  0.0361
 7936TIP3   OH245222   2.957   0.935  12.361  0.0815  0.3615  0.6271
 7936TIP3    H145223   2.944   0.897  12.448  0.4753  0.6915  0.8330
 7936TIP3    H245224   3.038   0.986  12.369  0.2811  0.1489 -0.0176
 7937TIP3   OH245225   0.494   2.207  14.407 -0.3658  0.0378 -0.2439
 7937TIP3    H145226   0.468   2.195  14.498  1.0907 -0.9083  0.0937
 7937TIP3    H245227   0.412   2.209  14.358 -1.2471  1.7941  1.1864
 7938TIP3   OH245228   1.826   3.708  13.228 -0.3096  0.6991  0.6733
 7938TIP3    H145229   1.844   3.783  13.171  0.2080  0.6768  0.8034
 7938TIP3    H245230   1.777   3.648  13.173 -1.6117  1.5458  0.8552
 7939TIP3   OH245231   3.359   0.658   2.962  0.5029  0.3722 -0.2655
 7939TIP3    H145232   3.289   0.641   3.025 -0.5480 -1.0705 -1.7348
 7939TIP3    H245233   3.357   0.583   2.903  2.6257  0.8030 -0.9875
 7940TIP3   OH245234   0.211   6.101   5.452  0.5219 -0.0257  0.1029
 7940TIP3    H145235   0.136   6.157   5.434 -1.2927 -2.7015 -1.5624
 7940TIP3    H245236   0.192   6.061   5.537  0.2818 -0.3092 -0.0796
 7941TIP3   OH245237   0.192   1.429  17.168 -0.5507  0.3876 -0.0595
 7941TIP3    H145238   0.228   1.346  17.139  0.6091  1.3582 -1.5094
 7941TIP3    H245239   0.253   1.459  17.236  0.1802  0.9731 -0.9481
 7942TIP3   OH245240   0.333   3.986   1.052  0.1571 -0.2640 -0.0645
 7942TIP3    H145241   0.310   4.007   0.962 -1.0324  2.1129  0.7241
 7942TIP3    H245242   0.269   4.033   1.105 -0.0181 -2.6521  2.0392
 7943TIP3   OH245243   4.805   5.885  14.590  1.0647  0.0358  0.0307
 7943TIP3    H145244   4.804   5.792  14.568 -0.5576  0.0220  0.0439
 7943TIP3    H245245   4.876   5.921  14.537  0.8242 -0.9837 -1.0306
 7944TIP3   OH245246   0.085   5.697  13.871  0.0312  0.4599  0.9482
 7944TIP3    H145247   0.091   5.701  13.967 -1.2430 -1.1566  1.1318
 7944TIP3    H245248   0.171   5.728  13.841  1.4298 -1.3991  2.6878
 7945TIP3   OH245249   5.213   2.842   6.707  0.1598 -0.2694 -0.0742
 7945TIP3    H145250   5.276   2.780   6.743 -0.0853  0.8657  2.4670
 7945TIP3    H245251   5.264   2.921   6.689 -0.2605  0.1741  0.6476
 7946TIP3   OH245252   1.163   1.084   3.172  0.4794 -0.3062 -0.2744
 7946TIP3    H145253   1.135   1.018   3.108 -0.0101 -0.6891  0.3334
 7946TIP3    H245254   1.087   1.097   3.228  0.4303  1.0870 -0.6319
 7947TIP3   OH245255   3.645   0.452   0.430 -0.3459  0.6901  0.3567
 7947TIP3    H145256   3.657   0.363   0.464 -1.3066  1.0101  1.6308
 7947TIP3    H245257   3.660   0.444   0.336 -0.2977 -0.8009  0.4637
 7948TIP3   OH245258   0.757   4.677   4.409  0.2060  0.6186 -0.2541
 7948TIP3    H145259   0.693   4.684   4.480  1.5697  1.0626  0.9664
 7948TIP3    H245260   0.735   4.749   4.350 -1.1959  0.0042 -0.5460
 7949TIP3   OH245261   3.815   3.833  10.307 -0.7381 -0.4514 -0.6198
 7949TIP3    H145262   3.894   3.872  10.269  0.4822 -1.5093  0.7512
 7949TIP3    H245263   3.808   3.872  10.394  0.3903 -3.0201  0.7144
 7950TIP3   OH245264   3.077   2.069  16.975  0.2381  0.2010 -0.0200
 7950TIP3    H145265   3.046   1.980  16.959 -2.0204  0.8097  0.4818
 7950TIP3    H245266   3.073   2.080  17.070 -0.9180  1.2357 -0.1517
 7951TIP3   OH245267   1.744   0.331  11.770 -0.4952  0.0800 -0.2004
 7951TIP3    H145268   1.679   0.323  11.840 -0.6851 -0.6880 -0.4524
 7951TIP3    H245269   1.816   0.379  11.810 -0.1407 -1.2519  0.8581
 7952TIP3   OH245270   2.702   0.410   1.304  0.6324 -0.1816 -0.0706
 7952TIP3    H145271   2.637   0.348   1.271  0.0470 -0.6158  1.7809
 7952TIP3    H245272   2.702   0.481   1.240 -0.2301 -1.1043 -1.1296
 7953TIP3   OH245273   4.271   2.817  12.794  0.2121  0.0325 -0.2956
 7953TIP3    H145274   4.229   2.804  12.880 -0.5265 -1.2901 -0.8203
 7953TIP3    H245275   4.361   2.843  12.815 -0.8567  3.2155  0.8750
 7954TIP3   OH245276   4.585   2.881  11.736 -0.2674  0.3827  0.2000
 7954TIP3    H145277   4.580   2.786  11.750  2.5737 -0.0578 -0.9244
 7954TIP3    H245278   4.540   2.896  11.653 -0.3089 -0.0890  0.1338
 7955TIP3   OH245279   3.528   3.406   1.604 -0.1218 -0.1050  0.4626
 7955TIP3    H145280   3.621   3.427   1.597 -0.4770  0.9670 -1.7148
 7955TIP3    H245281   3.501   3.445   1.687  1.0896  0.7178  0.4888
 7956TIP3   OH245282   4.355   2.490  12.353 -0.2768 -0.3802 -0.4216
 7956TIP3    H145283   4.424   2.545  12.390  0.0308  0.4503 -2.1415
 7956TIP3    H245284   4.402   2.425  12.301 -0.7546 -0.6444 -0.5303
 7957TIP3   OH245285   1.103   6.623   6.040 -0.4756 -0.2990  0.4899
 7957TIP3    H145286   1.100   6.566   5.962  0.3022 -0.7112  0.7417
 7957TIP3    H245287   1.168   6.690   6.017  0.4893 -0.9882  1.1355
 7958TIP3   OH245288   4.189   1.060   2.409 -0.3863  0.7483 -0.2457
 7958TIP3    H145289   4.152   1.123   2.347 -1.1515  2.2666  1.6198
 7958TIP3    H245290   4.113   1.009   2.438 -0.2039  0.6904  0.1312
 7959TIP3   OH245291   5.728   4.893   4.657 -0.0213 -0.4947 -0.2466
 7959TIP3    H145292   5.730   4.797   4.649 -0.0128 -0.6034  0.9729
 7959TIP3    H245293   5.636   4.915   4.644  0.1230 -0.5509 -1.5588
 7960TIP3   OH245294   6.701   0.558   4.899 -0.5888  1.1725 -0.7281
 7960TIP3    H145295   6.737   0.496   4.836 -1.9629  1.0027 -1.3649
 7960TIP3    H245296   6.721   0.520   4.985  0.9140  1.1981 -1.0425
 7961TIP3   OH245297   5.709   4.211   2.374  0.6702  0.3311  0.7399
 7961TIP3    H145298   5.800   4.231   2.396  0.6384 -0.0707  1.2484
 7961TIP3    H245299   5.713   4.128   2.326  0.3655 -1.0002  2.9122
 7962TIP3   OH245300   0.160   3.495  17.286 -0.0674 -0.0822  0.4666
 7962TIP3    H145301   0.080   3.455  17.252  1.0343 -1.9246 -0.1411
 7962TIP3    H245302   0.189   3.435  17.355  1.2102  0.0905  0.1116
 7963TIP3   OH245303   4.062   0.231   3.480  0.0283  0.1749  0.2332
 7963TIP3    H145304   4.020   0.249   3.396  0.7032  0.8373  0.0254
 7963TIP3    H245305   3.997   0.182   3.529 -1.4429  2.0779  0.3179
 7964TIP3   OH245306   3.789   0.465   4.462 -0.2036  0.1143  0.1701
 7964TIP3    H145307   3.741   0.383   4.448 -0.0231 -0.3541  2.0785
 7964TIP3    H245308   3.815   0.492   4.374 -0.4817 -1.7464 -0.5364
 7965TIP3   OH245309   1.008   3.209   3.474  0.3371  0.1582  0.6369
 7965TIP3    H145310   0.944   3.254   3.529 -2.0736 -1.9348 -0.2230
 7965TIP3    H245311   1.034   3.132   3.526 -0.3916 -0.7362 -0.2786
 7966TIP3   OH245312   1.349   0.869  14.272 -0.0999  0.3779 -0.1555
 7966TIP3    H145313   1.392   0.837  14.351 -0.8297 -0.7384 -0.2004
 7966TIP3    H245314   1.313   0.791  14.230 -1.2683  1.1564 -0.6659
 7967TIP3   OH245315   3.581   5.955  16.280 -0.6457  0.3043 -0.1963
 7967TIP3    H145316   3.601   6.020  16.213 -0.7534  1.7152  1.1006
 7967TIP3    H245317   3.648   5.887  16.269  0.7907  1.6843 -0.1881
 7968TIP3   OH245318   3.669   5.296  16.931 -0.2380  0.2453 -0.0332
 7968TIP3    H145319   3.597   5.322  16.989 -0.4767 -1.8636  0.6912
 7968TIP3    H245320   3.727   5.373  16.930 -1.8079  1.4804  0.4576
 7969TIP3   OH245321   2.487   3.894   1.119  0.2598  0.7392 -0.0306
 7969TIP3    H145322   2.509   3.851   1.037  1.1477  1.5499 -0.2286
 7969TIP3    H245323   2.453   3.980   1.093  0.1471  0.8393  0.4333
 7970TIP3   OH245324   3.387   5.745   5.648  0.0946  0.1419  0.3268
 7970TIP3    H145325   3.352   5.776   5.731  0.5378 -0.3418  0.7019
 7970TIP3    H245326   3.393   5.650   5.659  0.0237  0.0578 -0.3108
 7971TIP3   OH245327   2.243   5.650  16.180 -0.6840 -0.5694  0.2245
 7971TIP3    H145328   2.151   5.623  16.184 -1.2359  1.2016  0.1002
 7971TIP3    H245329   2.261   5.657  16.086 -0.6523 -0.1833  0.2590
 7972TIP3   OH245330   4.840   3.856  14.059 -0.1271  0.5547  0.5686
 7972TIP3    H145331   4.928   3.826  14.082 -1.0066 -0.3902  3.0413
 7972TIP3    H245332   4.786   3.834  14.135 -2.5420  1.0264 -0.8781
 7973TIP3   OH245333   3.692   5.928   6.224 -0.0341  0.8602  0.0499
 7973TIP3    H145334   3.718   5.989   6.292  2.1512  0.0502  0.0170
 7973TIP3    H245335   3.729   5.844   6.251 -1.1513  0.0022 -0.9642
 7974TIP3   OH245336   6.393   1.660   1.733  0.2955  0.5359 -0.0202
 7974TIP3    H145337   6.370   1.571   1.708 -1.5364  1.9238 -4.1825
 7974TIP3    H245338   6.478   1.652   1.776 -0.0681 -3.1862  0.3203
 7975TIP3   OH245339   5.089   3.658   5.726  0.2066 -0.0442 -0.4393
 7975TIP3    H145340   5.029   3.603   5.675  1.0811  0.8083 -2.5143
 7975TIP3    H245341   5.060   3.747   5.708 -0.6232  0.3071  2.1536
 7976TIP3   OH245342   5.082   5.240   4.346 -0.2605 -0.2194 -0.2154
 7976TIP3    H145343   5.024   5.304   4.386  0.2654 -0.5546  1.1296
 7976TIP3    H245344   5.091   5.171   4.412  0.5609 -0.8328 -0.9446
 7977TIP3   OH245345   4.966   5.436  14.527  0.3404  0.2340  0.9087
 7977TIP3    H145346   5.057   5.433  14.557  0.5526  1.6907  0.5114
 7977TIP3    H245347   4.943   5.345  14.512  2.0132 -0.1160  0.1903
 7978TIP3   OH245348   3.938   1.054   2.851 -0.0078  0.3896  0.6997
 7978TIP3    H145349   3.950   1.142   2.887 -0.8716  1.1078 -0.6585
 7978TIP3    H245350   4.025   1.028   2.821  0.8382 -0.4015  3.4993
 7979TIP3   OH245351   4.330   3.718   1.469 -0.0360 -0.2342 -0.3186
 7979TIP3    H145352   4.398   3.768   1.515 -0.0687  0.6570 -1.2038
 7979TIP3    H245353   4.333   3.751   1.379 -2.2228  0.4882 -0.1931
 7980TIP3   OH245354   6.511   0.537   6.561 -0.2719  0.7999  0.5208
 7980TIP3    H145355   6.457   0.458   6.568  1.2501 -0.4248 -0.7593
 7980TIP3    H245356   6.556   0.528   6.477 -0.2003  3.1561  0.2390
 7981TIP3   OH245357   0.169   0.204   4.897 -0.2168  0.7903 -0.7573
 7981TIP3    H145358   0.234   0.237   4.959 -0.4441 -0.5652  0.2478
 7981TIP3    H245359   0.216   0.139   4.845 -0.7084 -0.1105 -0.1055
 7982TIP3   OH245360   2.184   1.279  11.562 -0.2553  0.5097  0.3443
 7982TIP3    H145361   2.165   1.353  11.505  2.2080 -0.4651 -1.9232
 7982TIP3    H245362   2.108   1.223  11.555 -1.6036  2.1316  1.0975
 7983TIP3   OH245363   6.503   2.716  12.980  0.0770 -0.4475 -0.0812
 7983TIP3    H145364   6.462   2.802  12.969 -1.1007 -0.9099  0.5275
 7983TIP3    H245365   6.452   2.658  12.923  1.8181 -0.4981 -1.6890
 7984TIP3   OH245366   0.923   1.758   3.739  0.5941  0.0804 -0.5694
 7984TIP3    H145367   0.892   1.684   3.791 -0.6336  1.6382  1.0291
 7984TIP3    H245368   0.896   1.736   3.649 -2.2469 -0.1967  0.2632
 7985TIP3   OH245369   4.484   3.092   5.129 -0.0211 -0.1627 -0.2775
 7985TIP3    H145370   4.553   3.037   5.164 -0.8712 -1.9194 -1.2221
 7985TIP3    H245371   4.515   3.118   5.042  0.4023  0.9632  0.1840
 7986TIP3   OH245372   4.946   3.494  11.217 -0.2332  0.0039 -0.3664
 7986TIP3    H145373   5.012   3.475  11.150  0.7037  0.5704  0.3743
 7986TIP3    H245374   4.943   3.589  11.221 -1.9202  0.0122 -1.1599
 7987TIP3   OH245375   3.432   4.886  16.721  0.2412  0.0403 -0.5041
 7987TIP3    H145376   3.415   4.907  16.813  1.6690  0.9460 -0.4150
 7987TIP3    H245377   3.488   4.957  16.690 -1.5732  0.6738 -2.5771
 7988TIP3   OH245378   3.312   6.280  15.372 -0.6289 -0.4573 -1.3295
 7988TIP3    H145379   3.385   6.219  15.386 -0.4278  0.0169 -0.1140
 7988TIP3    H245380   3.324   6.346  15.441 -2.9378 -1.0706 -0.2694
 7989TIP3   OH245381   2.924   0.773   4.689 -0.2426  0.0462 -0.0027
 7989TIP3    H145382   2.930   0.854   4.639 -1.0135 -1.1131 -2.1103
 7989TIP3    H245383   3.004   0.724   4.666 -0.1007 -0.0764  0.7296
 7990TIP3   OH245384   6.728   4.471   3.429  0.1936 -0.2452  0.3191
 7990TIP3    H145385   6.806   4.525   3.421 -0.1015  0.4618  1.9419
 7990TIP3    H245386   6.724   4.423   3.346  1.1745  1.2532 -0.6512
 7991TIP3   OH245387   3.789   3.933  12.249  0.1309 -0.6792 -0.0288
 7991TIP3    H145388   3.790   3.924  12.344 -0.5762  0.3914  0.0944
 7991TIP3    H245389   3.805   3.845  12.216  0.1614 -1.0972  1.0840
 7992TIP3   OH245390   1.047   0.580   4.297 -0.6496 -0.2062  0.3525
 7992TIP3    H145391   1.099   0.519   4.349 -0.0847  1.1844  1.4628
 7992TIP3    H245392   1.105   0.606   4.225  0.1914  1.2238  1.5027
 7993TIP3   OH245393   1.407   6.436   0.681  0.3531 -0.0423 -0.3726
 7993TIP3    H145394   1.427   6.373   0.612  3.2632  1.5969 -1.1558
 7993TIP3    H245395   1.337   6.490   0.644 -0.9935 -1.6880 -0.3473
 7994TIP3   OH245396   1.458   4.319   3.286 -0.2768  0.2246 -0.2690
 7994TIP3    H145397   1.475   4.253   3.354 -2.0871 -1.2276 -1.1606
 7994TIP3    H245398   1.512   4.291   3.212  0.2646  0.7530 -0.0856
 7995TIP3   OH245399   1.210   6.463   1.261 -0.1525  0.0289 -0.1259
 7995TIP3    H145400   1.170   6.418   1.335 -1.3634 -0.5126 -1.0682
 7995TIP3    H245401   1.173   6.420   1.184 -1.4067  2.5951 -1.1076
 7996TIP3   OH245402   4.004   5.759   1.855  0.3521 -0.1199  0.3528
 7996TIP3    H145403   4.013   5.820   1.928  2.9498  0.4365 -0.3180
 7996TIP3    H245404   3.954   5.807   1.789 -0.6938 -0.0717  1.1601
 7997TIP3   OH245405   6.245   5.106   4.754  1.0538 -0.1578 -0.6227
 7997TIP3    H145406   6.259   5.178   4.815  1.9343 -1.6498  1.0272
 7997TIP3    H245407   6.316   5.113   4.691  0.7280  0.7959 -0.9027
 7998TIP3   OH245408   3.354   3.180  12.961 -0.0739  0.2177 -0.2783
 7998TIP3    H145409   3.316   3.211  13.043 -0.8567 -0.3543 -0.4104
 7998TIP3    H245410   3.340   3.251  12.900  0.6408  0.7049  0.1126
 7999TIP3   OH245411   2.618   0.452  16.592 -0.3498 -0.4808 -0.5098
 7999TIP3    H145412   2.596   0.499  16.672 -0.2519  0.9972 -1.3194
 7999TIP3    H245413   2.540   0.459  16.537  0.0993 -0.2070 -1.1238
 8000TIP3   OH245414   2.609   3.342   2.793  0.4009  0.0408  0.2123
 8000TIP3    H145415   2.689   3.340   2.845  0.6692 -0.0549 -0.2093
 8000TIP3    H245416   2.638   3.351   2.703 -0.0374 -0.8258 -0.0206
 8001TIP3   OH245417   1.970   4.286   3.000 -0.0648 -0.0099  0.1023
 8001TIP3    H145418   2.025   4.355   2.964  0.8472 -1.6827 -1.9065
 8001TIP3    H245419   1.882   4.306   2.969  0.0899  0.5436  0.0170
 8002TIP3   OH245420   5.874   3.901   4.631 -0.0167  0.0640  0.0481
 8002TIP3    H145421   5.878   3.862   4.719 -1.4944 -1.8415 -0.6655
 8002TIP3    H245422   5.797   3.958   4.634 -0.1332 -0.0888 -0.0437
 8003TIP3   OH245423   0.883   4.474  16.937 -0.5893  0.2634 -0.1743
 8003TIP3    H145424   0.961   4.519  16.970 -0.2445  0.0922 -0.7535
 8003TIP3    H245425   0.866   4.405  17.002 -1.2749  1.3661  0.8651
 8004TIP3   OH245426   3.066   5.417   1.721  0.2268  0.2982 -0.1818
 8004TIP3    H145427   3.142   5.366   1.750 -0.8033  0.0194  2.2336
 8004TIP3    H245428   2.993   5.355   1.726 -0.5799  1.2509  0.0704
 8005TIP3   OH245429   4.620   3.944  11.469  0.0142 -0.4276  0.4197
 8005TIP3    H145430   4.673   4.017  11.501  0.1361 -0.0255 -0.6521
 8005TIP3    H245431   4.680   3.869  11.467  0.3986 -0.1077 -0.2521
 8006TIP3   OH245432   6.126   3.093   3.996 -0.5690 -0.5892  0.0947
 8006TIP3    H145433   6.043   3.067   4.036 -0.4322  2.3038  2.6423
 8006TIP3    H245434   6.193   3.048   4.047 -0.5186  0.0659  0.6312
 8007TIP3   OH245435   1.241   0.085   1.054 -0.8753 -0.4936  0.5741
 8007TIP3    H145436   1.273  -0.005   1.052 -0.1833 -0.2590  0.4861
 8007TIP3    H245437   1.292   0.127   1.124 -1.8853 -0.4164  1.2724
 8008TIP3   OH245438   4.937   4.939   3.524 -0.4747  0.8450 -0.5569
 8008TIP3    H145439   4.928   5.034   3.518 -0.2975  0.9061  0.0649
 8008TIP3    H245440   4.920   4.920   3.616 -2.8233  0.0152 -1.0959
 8009TIP3   OH245441   5.781   1.414  15.824  0.3177 -0.0045  0.7721
 8009TIP3    H145442   5.787   1.493  15.769 -0.7844  0.6269  1.5202
 8009TIP3    H245443   5.872   1.386  15.835  0.9664  2.3722  2.1745
 8010TIP3   OH245444   5.492   1.827  14.391  0.3410  0.3065 -0.4175
 8010TIP3    H145445   5.581   1.838  14.356  1.6645 -1.8740  1.9424
 8010TIP3    H245446   5.475   1.733  14.384 -1.6194  0.6183 -0.3573
 8011TIP3   OH245447   0.336   1.143  16.612 -0.4118 -0.3166  0.0761
 8011TIP3    H145448   0.291   1.075  16.562 -1.7810  1.2639 -0.9473
 8011TIP3    H245449   0.329   1.114  16.703  0.8452 -2.5188 -0.4641
 8012TIP3   OH245450   3.920   1.285   0.196 -0.1273 -0.5113 -0.4446
 8012TIP3    H145451   3.949   1.225   0.265 -1.9971 -0.5741  0.3327
 8012TIP3    H245452   3.844   1.329   0.233  1.2498  2.5301 -0.9216
 8013TIP3   OH245453   2.112   1.461  16.141  0.0203 -0.3586  0.2505
 8013TIP3    H145454   2.195   1.419  16.164  0.4046  1.3053  2.1781
 8013TIP3    H245455   2.125   1.493  16.052  1.4920 -0.0357  0.5670
 8014TIP3   OH245456   4.793   1.426   4.574 -0.2009 -0.4856 -0.0134
 8014TIP3    H145457   4.724   1.451   4.512 -0.7667 -0.7824  0.4809
 8014TIP3    H245458   4.854   1.499   4.572 -0.3341 -0.3790 -0.7364
 8015TIP3   OH245459   6.223   4.227   3.773  0.5332  0.1548 -0.0488
 8015TIP3    H145460   6.200   4.295   3.710 -0.1677 -0.6606 -0.7040
 8015TIP3    H245461   6.215   4.269   3.859 -0.7037  0.6745 -0.4028
 8016TIP3   OH245462   5.850   0.387  14.785 -0.4870  0.2009 -0.0533
 8016TIP3    H145463   5.839   0.473  14.827 -1.6166  0.2227 -0.3602
 8016TIP3    H245464   5.845   0.325  14.857 -0.4175  0.3477  0.0801
 8017TIP3   OH245465   1.388   5.456   1.460  0.6979  0.2317 -0.1538
 8017TIP3    H145466   1.440   5.417   1.530  0.4003 -0.6048 -0.3737
 8017TIP3    H245467   1.297   5.441   1.487  0.5785  0.4483 -0.4288
 8018TIP3   OH245468   3.108   0.741  15.913  0.2873 -0.3797 -0.0468
 8018TIP3    H145469   3.090   0.647  15.917  0.6767 -0.4949 -0.9115
 8018TIP3    H245470   3.100   0.764  15.821  0.3699  0.4074  0.1334
 8019TIP3   OH245471   1.989   0.342  13.354 -0.2462  0.4394 -0.6518
 8019TIP3    H145472   2.054   0.402  13.318  0.2748  0.1797 -0.1638
 8019TIP3    H245473   2.016   0.330  13.445 -0.6011 -0.1920 -0.6273
 8020TIP3   OH245474   4.115   5.871   0.119 -0.4629 -0.1807  0.0465
 8020TIP3    H145475   4.146   5.856   0.030  1.1053 -3.4694  0.9971
 8020TIP3    H245476   4.179   5.933   0.156 -1.0598  1.1168 -1.0084
 8021TIP3   OH245477   4.440   1.739   0.911  0.5308  0.4700 -0.0382
 8021TIP3    H145478   4.484   1.661   0.944  0.2392 -0.1003 -0.9550
 8021TIP3    H245479   4.370   1.757   0.975 -0.2982 -0.8624 -0.5332
 8022TIP3   OH245480   1.873   0.922  12.998 -0.1229 -0.8454 -0.2523
 8022TIP3    H145481   1.934   0.858  12.961  0.5531 -0.1408 -0.3809
 8022TIP3    H245482   1.893   1.004  12.952 -0.2630 -0.2996  0.6330
 8023TIP3   OH245483   5.533   3.002   0.930  0.7642 -0.4450 -0.0862
 8023TIP3    H145484   5.438   2.992   0.931  0.6946  0.1443  0.0286
 8023TIP3    H245485   5.547   3.097   0.936  1.3069 -0.2935 -2.6868
 8024TIP3   OH245486   0.326   0.267   6.298 -0.1269 -0.0519  0.7654
 8024TIP3    H145487   0.304   0.198   6.236  0.6096  0.0539  0.3905
 8024TIP3    H245488   0.367   0.221   6.371  1.5441  0.1115 -0.0453
 8025TIP3   OH245489   4.768   0.228  15.119  0.0816 -0.7380 -0.0472
 8025TIP3    H145490   4.677   0.199  15.113 -0.0989 -0.2151  0.1759
 8025TIP3    H245491   4.817   0.148  15.139  0.2616 -1.9732 -4.3127
 8026TIP3   OH245492   4.184   3.853   5.325  0.2353  0.0889 -0.7909
 8026TIP3    H145493   4.212   3.940   5.301 -0.8811  0.8167  0.3841
 8026TIP3    H245494   4.264   3.808   5.352  0.5982  1.3317  0.2920
 8027TIP3   OH245495   2.618   3.033  14.457 -0.1653  0.0049 -0.2608
 8027TIP3    H145496   2.644   3.110  14.407 -1.0229  0.4973  0.0371
 8027TIP3    H245497   2.586   3.067  14.540  2.1933 -0.8676  1.0966
 8028TIP3   OH245498   0.456   5.243  12.998 -0.0781 -0.2875 -0.4649
 8028TIP3    H145499   0.414   5.164  12.966 -0.7390  0.4415 -1.4535
 8028TIP3    H245500   0.409   5.315  12.955  1.1627  0.6057 -0.3926
 8029TIP3   OH245501   2.775   3.290   1.823 -1.0000  0.0711  0.0256
 8029TIP3    H145502   2.696   3.343   1.818 -1.3504 -0.4653 -0.3537
 8029TIP3    H245503   2.773   3.251   1.910 -2.4650 -1.8666 -0.7947
 8030TIP3   OH245504   6.415   6.313  13.294  0.0647  0.5802 -0.5523
 8030TIP3    H145505   6.339   6.372  13.297 -1.1457 -0.9400 -0.0751
 8030TIP3    H245506   6.491   6.372  13.298 -1.0663  2.0329  1.8078
 8031TIP3   OH245507   4.099   5.766   0.560 -0.0866  0.0906 -0.0789
 8031TIP3    H145508   4.079   5.754   0.653 -0.7218  0.6363 -0.1402
 8031TIP3    H245509   4.106   5.860   0.548 -0.0289  0.0268 -0.5953
 8032TIP3   OH245510   1.236   2.867  13.408 -0.5367 -0.4412  0.1264
 8032TIP3    H145511   1.268   2.950  13.372  0.0564 -0.0874  1.4302
 8032TIP3    H245512   1.303   2.803  13.384 -0.5659 -0.3764 -0.1310
 8033TIP3   OH245513   2.527   3.162  14.209 -0.0017  0.4868 -0.0435
 8033TIP3    H145514   2.553   3.144  14.119 -0.5697  0.5436 -0.2189
 8033TIP3    H245515   2.603   3.207  14.247 -0.9928  3.6627 -1.5008
 8034TIP3   OH245516   4.545   2.257   5.204  0.0435  0.0482 -0.7440
 8034TIP3    H145517   4.560   2.250   5.298  2.3444  0.0025 -1.0506
 8034TIP3    H245518   4.497   2.339   5.192  0.3234  0.3827  0.4035
 8035TIP3   OH245519   2.707   0.766  10.804  0.8878 -0.0676 -0.1411
 8035TIP3    H145520   2.732   0.782  10.895 -1.4142 -3.4602  1.2816
 8035TIP3    H245521   2.615   0.791  10.799  0.7273 -0.8060 -1.2604
 8036TIP3   OH245522   4.246   2.274  12.878 -0.0153  0.7031  0.4274
 8036TIP3    H145523   4.290   2.191  12.860 -0.2617  0.3271  1.5321
 8036TIP3    H245524   4.233   2.313  12.791 -1.7940 -1.3680 -0.3052
 8037TIP3   OH245525   1.602   1.165   3.521  0.3034 -0.4808  0.0543
 8037TIP3    H145526   1.567   1.100   3.460  0.9612 -0.2495 -0.5935
 8037TIP3    H245527   1.545   1.160   3.598  0.1559 -1.5942 -0.1150
 8038TIP3   OH245528   2.875   4.699   0.440  0.0973 -0.5170  0.6482
 8038TIP3    H145529   2.857   4.647   0.518  0.2164 -0.4706  0.7068
 8038TIP3    H245530   2.830   4.652   0.369 -1.6948  0.5086  1.0599
 8039TIP3   OH245531   4.987   5.482   4.179  0.0494  0.1771 -0.5780
 8039TIP3    H145532   4.907   5.428   4.178  0.3211 -0.2615  0.1790
 8039TIP3    H245533   4.955   5.572   4.188 -0.3764  0.0278 -0.5776
 8040TIP3   OH245534   5.924   5.816   4.238 -0.3185  0.8776  0.1284
 8040TIP3    H145535   5.882   5.830   4.153 -1.1431 -2.8906 -0.2539
 8040TIP3    H245536   5.852   5.795   4.297  0.5739 -1.9874  0.3483
 8041TIP3   OH245537   5.473   4.913   3.379 -0.0062 -0.2958  0.3940
 8041TIP3    H145538   5.510   4.850   3.441 -0.6490  0.1059  1.2067
 8041TIP3    H245539   5.417   4.970   3.433  0.1339  0.6290 -0.4039
 8042TIP3   OH245540   3.901   3.534  11.751  0.4633  0.2600 -0.4050
 8042TIP3    H145541   3.962   3.571  11.687  1.3026  0.7866  0.6636
 8042TIP3    H245542   3.891   3.603  11.817  1.3529 -1.0630  1.1698
 8043TIP3   OH245543   3.179   0.935  16.445 -0.0347  0.1436 -0.8207
 8043TIP3    H145544   3.222   0.851  16.428  1.6940  0.6775  0.5910
 8043TIP3    H245545   3.238   0.980  16.506 -1.0987  2.2466 -1.2584
 8044TIP3   OH245546   0.802   0.994   0.563 -0.3207 -0.3905  0.1263
 8044TIP3    H145547   0.835   0.986   0.653  0.0792  1.3609  0.1808
 8044TIP3    H245548   0.880   1.010   0.510 -0.7687  1.0413 -0.1484
 8045TIP3   OH245549   2.386   2.945  11.548  0.4014  0.2918  0.4831
 8045TIP3    H145550   2.354   2.900  11.470 -0.4914  0.1283  0.9298
 8045TIP3    H245551   2.337   3.027  11.549  1.0793  0.7065  0.3818
 8046TIP3   OH245552   1.558   3.246  13.994  0.0400 -0.1745  0.2337
 8046TIP3    H145553   1.594   3.315  13.939 -1.0021  0.4375  0.3032
 8046TIP3    H245554   1.465   3.245  13.975 -0.4313  0.3106  2.2153
 8047TIP3   OH245555   3.367   2.188   1.446  0.4042  0.1751 -0.3069
 8047TIP3    H145556   3.334   2.166   1.359 -0.8150 -0.1538  0.2145
 8047TIP3    H245557   3.350   2.109   1.499  1.7914  0.0954  0.0687
 8048TIP3   OH245558   2.534   3.445  13.703 -0.1153  0.0456  0.2950
 8048TIP3    H145559   2.535   3.489  13.618 -1.0238  0.6745  0.6006
 8048TIP3    H245560   2.475   3.371  13.691 -1.0740  0.7313  0.6520
 8049TIP3   OH245561   4.934   3.090   5.337 -0.4857 -0.5029  0.6094
 8049TIP3    H145562   5.005   3.100   5.274  0.2592 -0.3269  1.4653
 8049TIP3    H245563   4.905   3.179   5.355 -0.9015 -0.5713  0.2998
 8050TIP3   OH245564   2.661   0.069   4.980  0.2838  0.5461  0.0370
 8050TIP3    H145565   2.566   0.060   4.976  0.3350 -0.0187 -0.0251
 8050TIP3    H245566   2.679   0.096   5.070  0.0290  1.1643 -0.0948
 8051TIP3   OH245567   5.504   2.485   1.785 -0.0607  0.0324  0.3858
 8051TIP3    H145568   5.514   2.394   1.813 -0.1743 -0.5464 -1.3668
 8051TIP3    H245569   5.553   2.491   1.704 -0.1757  1.5096  0.4072
 8052TIP3   OH245570   6.037   1.480   0.676  0.0515  0.0605  0.9092
 8052TIP3    H145571   5.981   1.501   0.751  1.1783  1.5177  1.3677
 8052TIP3    H245572   5.985   1.417   0.626 -1.8065  0.9870  1.5572
 8053TIP3   OH245573   3.821   3.251   5.154 -0.1375  0.3029  0.3414
 8053TIP3    H145574   3.868   3.206   5.084  0.7658  0.9476  0.5093
 8053TIP3    H245575   3.813   3.341   5.123 -1.5240  0.1455  0.2052
 8054TIP3   OH245576   5.436   3.560   5.081  0.2699 -0.5663  0.2277
 8054TIP3    H145577   5.521   3.605   5.076  1.3804 -2.6306 -0.4911
 8054TIP3    H245578   5.413   3.563   5.173  1.1185  0.0135  0.4393
 8055TIP3   OH245579   2.230   3.431   4.111 -0.1085  0.2010 -0.0961
 8055TIP3    H145580   2.210   3.342   4.141 -0.8778  0.0422 -1.0268
 8055TIP3    H245581   2.325   3.436   4.112  0.0430 -1.2732 -1.7942
 8056TIP3   OH245582   0.079   1.429  15.072  0.1035 -0.2122 -0.4890
 8056TIP3    H145583   0.053   1.492  15.140  2.4496 -0.0919  0.3845
 8056TIP3    H245584   0.108   1.352  15.121  0.5490 -0.6502 -1.4221
 8057TIP3   OH245585   3.324   0.642  11.609 -0.0978 -0.6651 -0.2124
 8057TIP3    H145586   3.318   0.551  11.579 -0.1190 -0.5752 -0.4865
 8057TIP3    H245587   3.248   0.654  11.666  1.5225 -1.7183  2.2976
 8058TIP3   OH245588   4.487   5.926  15.658  0.1279 -0.2540 -0.1939
 8058TIP3    H145589   4.510   6.008  15.613  1.0319 -1.5700 -2.2927
 8058TIP3    H245590   4.551   5.919  15.728 -0.0167  0.8622  0.0808
 8059TIP3   OH245591   0.807   2.727   1.659 -0.2708 -0.3320 -0.5122
 8059TIP3    H145592   0.722   2.682   1.655 -0.1718 -0.6363  0.5455
 8059TIP3    H245593   0.852   2.698   1.580 -1.3425  0.2469 -1.3655
 8060TIP3   OH245594   1.266   5.106  11.361  0.5636  0.4625 -0.2118
 8060TIP3    H145595   1.356   5.098  11.330  0.4558  1.1055 -0.7194
 8060TIP3    H245596   1.239   5.193  11.333  0.1247  0.6814  0.8487
 8061TIP3   OH245597   1.459   4.112   4.877  0.1007 -0.2865  0.5395
 8061TIP3    H145598   1.519   4.079   4.811 -1.4814  0.6991 -1.5129
 8061TIP3    H245599   1.396   4.041   4.890 -1.6940  0.7521 -1.8187
 8062TIP3   OH245600   5.542   1.435   6.058  0.1315  0.0603 -0.0085
 8062TIP3    H145601   5.467   1.408   6.110  0.0572  0.7338  0.2443
 8062TIP3    H245602   5.604   1.362   6.065  0.1407  0.1510  1.0704
 8063TIP3   OH245603   4.621   0.161  11.477  0.3400 -0.7793 -0.1405
 8063TIP3    H145604   4.703   0.129  11.440  0.0294 -0.5968 -1.0048
 8063TIP3    H245605   4.648   0.211  11.554  1.0886 -0.3214 -0.6781
 8064TIP3   OH245606   3.094   2.689   4.849  0.1882  0.7159 -0.0865
 8064TIP3    H145607   3.064   2.743   4.776  0.2870  1.1019  0.1566
 8064TIP3    H245608   3.016   2.642   4.878  0.5788 -1.2126 -1.9137
 8065TIP3   OH245609   0.071   1.444  16.901 -0.7789 -0.6768 -0.1369
 8065TIP3    H145610   0.138   1.512  16.898 -1.2463 -0.2354 -1.6217
 8065TIP3    H245611   0.105   1.379  16.962 -0.5747  1.1284  1.8011
 8066TIP3   OH245612   5.159   1.502  13.741 -0.0432 -0.8531 -0.0446
 8066TIP3    H145613   5.204   1.464  13.665  1.5046 -1.0202  0.9058
 8066TIP3    H245614   5.188   1.593  13.742 -0.0863 -0.8422  0.3115
 8067TIP3   OH245615   4.721   1.564  11.271  0.0882  0.1228 -0.5021
 8067TIP3    H145616   4.755   1.612  11.195 -1.4871  1.7066 -0.2793
 8067TIP3    H245617   4.798   1.523  11.310  1.2363  0.9235 -1.8131
 8068TIP3   OH245618   1.658   0.200   5.199  0.7654 -0.0416  0.1116
 8068TIP3    H145619   1.620   0.212   5.112 -1.0003  2.3865  1.1038
 8068TIP3    H245620   1.750   0.181   5.182  0.1910 -1.1558 -2.2913
 8069TIP3   OH245621   4.517   3.110   2.742  1.0093  0.9286  0.0090
 8069TIP3    H145622   4.513   3.203   2.764  0.7766  1.2773 -1.3961
 8069TIP3    H245623   4.444   3.071   2.790 -2.3022  2.3850 -3.3052
 8070TIP3   OH245624   5.375   3.494   2.517  0.3615 -0.2217  0.4243
 8070TIP3    H145625   5.358   3.576   2.563  1.1614  0.5510 -0.6308
 8070TIP3    H245626   5.293   3.445   2.525  0.0255  0.4624  1.4649
 8071TIP3   OH245627   6.407   5.361  13.163 -0.2858  0.3106  0.1764
 8071TIP3    H145628   6.355   5.282  13.176 -0.0559  0.1667  0.2363
 8071TIP3    H245629   6.417   5.367  13.068  0.6774 -0.3889  0.2128
 8072TIP3   OH245630   0.956   2.525   4.983  0.4322 -0.1330  0.7161
 8072TIP3    H145631   0.891   2.595   4.988 -0.5500 -0.7087 -2.2359
 8072TIP3    H245632   1.035   2.567   4.952 -0.5231 -0.3796 -2.3900
 8073TIP3   OH245633   0.857   6.564   0.536  0.8180 -0.2335 -0.3376
 8073TIP3    H145634   0.901   6.633   0.485 -0.0545 -1.2278 -2.5760
 8073TIP3    H245635   0.844   6.493   0.473 -1.1756 -1.1960  1.0647
 8074TIP3   OH245636   0.927   4.314   2.247  0.1827  0.5063  0.1250
 8074TIP3    H145637   0.867   4.240   2.245  1.8753 -1.0814 -3.8021
 8074TIP3    H245638   0.987   4.295   2.320 -0.9862 -0.5464  0.8418
 8075TIP3   OH245639   1.208   3.781   1.509  0.2023 -0.0724 -0.0284
 8075TIP3    H145640   1.119   3.812   1.489  0.2464  0.0413 -0.0470
 8075TIP3    H245641   1.198   3.736   1.593 -0.0500 -0.8562 -0.4668
 8076TIP3   OH245642   3.819   3.944   0.240  0.0659 -0.2947  0.2342
 8076TIP3    H145643   3.739   3.893   0.226  1.0793 -2.2338  1.1489
 8076TIP3    H245644   3.840   3.930   0.332  0.6887  1.3839  0.3711
 8077TIP3   OH245645   4.624   1.152   5.854  0.1093  0.4856 -0.0096
 8077TIP3    H145646   4.718   1.132   5.854 -0.0341 -0.2137 -0.6599
 8077TIP3    H245647   4.583   1.074   5.890 -0.2649  0.6136 -0.1604
 8078TIP3   OH245648   3.746   6.664   0.444  1.1957 -0.5331 -0.0879
 8078TIP3    H145649   3.696   6.612   0.507 -0.1428 -0.7908 -1.3043
 8078TIP3    H245650   3.838   6.651   0.469  0.6987 -0.5633  1.8181
 8079TIP3   OH245651   5.127   2.330   4.851  0.1041  0.0394  0.7245
 8079TIP3    H145652   5.174   2.270   4.909 -1.3100  1.4489  3.5525
 8079TIP3    H245653   5.037   2.298   4.851  0.1372 -0.1390 -1.0800
 8080TIP3   OH245654   0.720   3.215  10.936  0.3447 -0.1795 -0.3732
 8080TIP3    H145655   0.721   3.151  11.007 -0.7337  0.2532  0.0575
 8080TIP3    H245656   0.741   3.298  10.978 -0.7682  0.1591 -0.4612
 8081TIP3   OH245657   1.515   6.135   3.605  0.8581  0.1365 -0.6161
 8081TIP3    H145658   1.550   6.105   3.521 -0.6679 -0.8452 -0.9458
 8081TIP3    H245659   1.450   6.202   3.581  1.7585  1.2357 -0.0787
 8082TIP3   OH245660   4.491   3.486   5.125  0.0377 -0.2209  0.2839
 8082TIP3    H145661   4.575   3.514   5.161 -0.8041  1.8429  0.7320
 8082TIP3    H245662   4.437   3.467   5.201 -0.2237 -0.6292  0.0037
 8083TIP3   OH245663   4.368   2.533   0.504  0.3057  0.0942  0.0869
 8083TIP3    H145664   4.348   2.464   0.442 -1.4750 -0.9915  1.7567
 8083TIP3    H245665   4.402   2.487   0.581  1.3134  1.2920  0.3921
 8084TIP3   OH245666   3.751   5.782  11.930 -0.1038  0.1702  0.4236
 8084TIP3    H145667   3.831   5.731  11.916 -0.0851  0.0662  0.9046
 8084TIP3    H245668   3.684   5.732  11.884 -0.2314 -0.7039  1.4981
 8085TIP3   OH245669   2.744   1.691   3.810 -0.4184  0.5081 -0.3818
 8085TIP3    H145670   2.722   1.753   3.740 -0.3801  0.1231 -0.7450
 8085TIP3    H245671   2.731   1.605   3.770  1.6458  0.2511 -0.6078
 8086TIP3   OH245672   3.817   1.013   3.809  0.4597 -0.0937  0.5551
 8086TIP3    H145673   3.790   1.105   3.810  0.2614 -0.1543  1.8917
 8086TIP3    H245674   3.903   1.014   3.768  0.3762  0.6626  0.3881
 8087TIP3   OH245675   5.439   0.695   4.706 -0.2728  0.3573  0.8073
 8087TIP3    H145676   5.367   0.738   4.660 -0.0309  0.2740  0.3398
 8087TIP3    H245677   5.517   0.717   4.655 -0.2537 -1.3834  0.0159
 8088TIP3   OH245678   3.216   5.154   5.886 -0.5789 -0.3543 -0.2417
 8088TIP3    H145679   3.132   5.198   5.876  0.0121  1.0135  0.6440
 8088TIP3    H245680   3.270   5.187   5.814 -0.1905  0.2606  0.3215
 8089TIP3   OH245681   0.547   3.249  15.521  0.8529 -0.4779  0.3129
 8089TIP3    H145682   0.597   3.171  15.545  4.7660  1.7299  0.1074
 8089TIP3    H245683   0.501   3.224  15.441  1.2521 -2.8018  0.7367
 8090TIP3   OH245684   6.472   5.274  15.963  0.4733 -0.1772 -0.0395
 8090TIP3    H145685   6.530   5.349  15.949 -0.5784  1.0722  2.0213
 8090TIP3    H245686   6.509   5.228  16.038  0.9850 -1.6922 -1.1428
 8091TIP3   OH245687   1.485   3.038   3.362 -0.0064  0.1600 -0.1374
 8091TIP3    H145688   1.475   2.944   3.380  0.5642 -0.0120 -0.6863
 8091TIP3    H245689   1.400   3.076   3.386 -0.6074 -0.6539 -0.8921
 8092TIP3   OH245690   6.593   2.759   3.724  0.4438 -0.6185 -0.6043
 8092TIP3    H145691   6.617   2.731   3.812  0.4877  0.9527 -0.0860
 8092TIP3    H245692   6.499   2.778   3.729  0.9428  2.2945 -0.0099
 8093TIP3   OH245693   6.186   5.012  15.865 -0.2521 -0.2182  0.5216
 8093TIP3    H145694   6.267   4.963  15.881  1.6518  1.4909 -2.6805
 8093TIP3    H245695   6.185   5.080  15.932  1.2981 -0.0085  0.3784
 8094TIP3   OH245696   3.647   2.089   5.515 -0.3540  0.1148  0.1855
 8094TIP3    H145697   3.614   2.179   5.510 -2.2400 -0.6092 -1.6165
 8094TIP3    H245698   3.725   2.096   5.570 -0.3451  2.8711 -0.0117
 8095TIP3   OH245699   4.744   1.269  13.322  0.4020  0.1836 -0.1947
 8095TIP3    H145700   4.726   1.200  13.258 -0.0426  1.0405 -1.0194
 8095TIP3    H245701   4.757   1.222  13.405  1.0477 -0.9452 -0.9123
 8096TIP3   OH245702   5.623   5.978  13.887 -0.4212 -0.3159 -0.4577
 8096TIP3    H145703   5.586   5.982  13.798  0.3535 -0.0540 -0.7809
 8096TIP3    H245704   5.715   6.000  13.875 -0.7142  1.8114  0.6929
 8097TIP3   OH245705   3.290   5.210  13.473 -0.2500  0.3179  0.0359
 8097TIP3    H145706   3.273   5.273  13.543  3.0358  1.1500  0.2623
 8097TIP3    H245707   3.371   5.166  13.499  0.6727  0.0906 -2.7965
 8098TIP3   OH245708   5.733   0.331  15.412 -0.2865  0.0758 -1.0013
 8098TIP3    H145709   5.730   0.281  15.493 -0.7949  0.1745 -0.9598
 8098TIP3    H245710   5.753   0.421  15.439  0.8468 -0.1363 -1.0943
 8099TIP3   OH245711   1.799   4.379  13.482  0.0419  0.2356  0.2313
 8099TIP3    H145712   1.707   4.381  13.455  0.5068  1.6868 -1.3685
 8099TIP3    H245713   1.806   4.298  13.534 -2.0879  0.0244  0.2950
 8100TIP3   OH245714   0.441   5.084   0.072  0.6015  0.7066 -0.2917
 8100TIP3    H145715   0.505   5.090   0.142  1.8946 -1.7318 -1.1403
 8100TIP3    H245716   0.493   5.075  -0.008 -0.7927  0.5264 -1.2281
 8101TIP3   OH245717   0.099   6.085  16.325  0.2672 -0.3352  0.0151
 8101TIP3    H145718   0.009   6.111  16.345 -0.1491 -0.5642 -1.4218
 8101TIP3    H245719   0.133   6.157  16.272  0.3697 -0.9911 -0.8265
 8102TIP3   OH245720   4.748   6.725   2.464 -0.1755 -0.0742 -0.0079
 8102TIP3    H145721   4.825   6.777   2.486  1.2671 -2.3335  0.6218
 8102TIP3    H245722   4.747   6.722   2.368  0.9361 -0.5739 -0.0144
 8103TIP3   OH245723   6.134   3.336   0.977  0.3860 -0.5152  0.9335
 8103TIP3    H145724   6.224   3.366   0.988 -0.4809  1.9775  1.8191
 8103TIP3    H245725   6.117   3.345   0.883  0.7466 -0.0192  0.9131
 8104TIP3   OH245726   0.963   1.914   5.183 -0.5168  0.1095  0.0912
 8104TIP3    H145727   0.969   1.965   5.102  0.0450 -2.3966 -1.5304
 8104TIP3    H245728   0.982   1.978   5.252  0.6546  1.9947 -1.8359
 8105TIP3   OH245729   6.008   6.461   0.199  0.3202  0.3612  0.0622
 8105TIP3    H145730   6.021   6.386   0.257  0.7855 -0.6467 -1.2935
 8105TIP3    H245731   5.963   6.424   0.122  0.9612  1.3800 -0.8243
 8106TIP3   OH245732   2.656   2.104   1.971 -0.8965  0.3199 -0.3096
 8106TIP3    H145733   2.578   2.108   1.917 -1.0323  0.1949 -0.1227
 8106TIP3    H245734   2.683   2.012   1.967 -1.3887  0.1324  0.5137
 8107TIP3   OH245735   6.302   0.617   1.795 -0.2680 -0.4785  0.4826
 8107TIP3    H145736   6.384   0.660   1.771  0.0949 -1.1284  0.5183
 8107TIP3    H245737   6.289   0.551   1.726 -0.9824 -0.0938  0.2450
 8108TIP3   OH245738   4.203   6.167  12.614 -0.0911 -0.0966 -0.2163
 8108TIP3    H145739   4.238   6.112  12.683 -0.7366  0.9511  0.9868
 8108TIP3    H245740   4.273   6.173  12.549  1.1028  0.1164  1.0588
 8109TIP3   OH245741   6.660   1.484   0.279  0.1056 -0.3085  0.1924
 8109TIP3    H145742   6.726   1.523   0.337 -0.7195 -0.1273  1.0224
 8109TIP3    H245743   6.578   1.526   0.304 -0.5067 -1.2963 -0.1037
 8110TIP3   OH245744   1.414   6.740   4.048 -0.1112 -0.7964 -0.4701
 8110TIP3    H145745   1.426   6.749   4.143  1.6051 -2.7946 -0.4215
 8110TIP3    H245746   1.347   6.672   4.039  0.7934 -1.6886 -0.6425
 8111TIP3   OH245747   2.406   2.162   1.348 -0.0441 -0.3866 -0.2864
 8111TIP3    H145748   2.478   2.213   1.384  0.5074 -1.0554 -0.4216
 8111TIP3    H245749   2.361   2.126   1.424 -0.9045  0.9033 -0.1561
 8112TIP3   OH245750   3.037   0.111   1.563 -0.4980 -0.0957 -0.0502
 8112TIP3    H145751   3.105   0.172   1.592 -0.9704  0.5945 -0.3613
 8112TIP3    H245752   3.079   0.059   1.495 -0.0692 -0.1686  0.2646
 8113TIP3   OH245753   0.273   1.076   0.299  0.0413  0.7730 -0.1170
 8113TIP3    H145754   0.303   1.076   0.209 -0.7085 -1.6823 -0.4156
 8113TIP3    H245755   0.178   1.087   0.293 -0.1280 -0.4075  0.3062
 8114TIP3   OH245756   3.089   4.550  14.494 -0.7737 -0.3509  0.0811
 8114TIP3    H145757   3.111   4.607  14.568 -1.3438  0.0510 -0.0498
 8114TIP3    H245758   3.000   4.519  14.514 -0.9557 -0.1882 -0.4705
 8115TIP3   OH245759   2.919   5.672  16.164  0.2008 -0.1685 -0.2700
 8115TIP3    H145760   3.015   5.667  16.164  0.2981  1.2276  0.1076
 8115TIP3    H245761   2.900   5.764  16.185 -1.2509 -0.7972  1.4212
 8116TIP3   OH245762   2.632   6.569  17.110 -0.5074 -0.3736 -0.1081
 8116TIP3    H145763   2.681   6.495  17.147 -0.7633  0.4831  2.1284
 8116TIP3    H245764   2.579   6.601  17.183 -2.8357  0.0621 -1.8508
 8117TIP3   OH245765   1.546   2.403   6.329  0.1742  0.1087 -0.1919
 8117TIP3    H145766   1.499   2.324   6.301 -0.4183  0.9733 -1.7710
 8117TIP3    H245767   1.582   2.439   6.248  1.9678  0.5154  0.7378
 8118TIP3   OH245768   1.671   5.363  11.145 -0.1115  0.0087 -0.2022
 8118TIP3    H145769   1.751   5.310  11.148 -0.0368  0.1433  0.2185
 8118TIP3    H245770   1.700   5.451  11.167 -0.4785 -0.0643  0.6105
 8119TIP3   OH245771   5.830   0.119  10.901 -0.8936  0.6407 -0.0065
 8119TIP3    H145772   5.779   0.192  10.867 -1.7406 -0.0095 -0.1882
 8119TIP3    H245773   5.801   0.044  10.849  2.0770  0.6450 -1.8794
 8120TIP3   OH245774   0.099   4.214  14.594 -0.2495  0.0334  0.2297
 8120TIP3    H145775   0.091   4.174  14.507 -0.5234  0.9391 -0.1803
 8120TIP3    H245776   0.024   4.180  14.643  0.4752 -1.2878  0.4622
 8121TIP3   OH245777   3.824   1.382   3.613 -0.1962 -0.4882  0.0312
 8121TIP3    H145778   3.826   1.335   3.696  1.0550 -1.0766 -0.3140
 8121TIP3    H245779   3.810   1.314   3.547  0.0914 -0.1881 -0.3424
 8122TIP3   OH245780   6.475   3.948  11.521  0.2551  0.0033  0.0174
 8122TIP3    H145781   6.511   4.026  11.564 -1.2518  0.8238 -0.1293
 8122TIP3    H245782   6.454   3.978  11.432 -1.5291 -0.1799  0.3469
 8123TIP3   OH245783   4.971   4.196  17.295  0.3269 -0.0754 -0.2012
 8123TIP3    H145784   5.027   4.251  17.349 -1.7218  0.4102  1.6085
 8123TIP3    H245785   4.911   4.257  17.253  1.3878 -0.5300 -2.4916
 8124TIP3   OH245786   0.469   6.622  15.971  0.1358  0.2519 -0.2214
 8124TIP3    H145787   0.405   6.551  15.968 -0.8961  1.1315 -3.8181
 8124TIP3    H245788   0.549   6.581  16.002 -1.5395 -1.3656  2.3520
 8125TIP3   OH245789   4.777   4.259  11.969 -0.2795  0.1681 -0.1478
 8125TIP3    H145790   4.864   4.299  11.974  0.1313 -0.6801 -0.3133
 8125TIP3    H245791   4.765   4.217  12.054  0.2441 -1.2275 -0.7258
 8126TIP3   OH245792   2.696   4.115   1.077  0.5598  0.0044 -0.4009
 8126TIP3    H145793   2.606   4.099   1.045  0.2225  2.2208 -0.6896
 8126TIP3    H245794   2.752   4.074   1.011 -0.2194  1.1937 -1.8642
 8127TIP3   OH245795   0.230   6.175   1.415  0.1166  0.0731  0.5254
 8127TIP3    H145796   0.255   6.218   1.333 -1.3445  0.8764  0.4691
 8127TIP3    H245797   0.211   6.247   1.475 -2.4931 -0.4135  0.3953
 8128TIP3   OH245798   5.168   0.323   1.365 -0.0994 -0.5625 -0.7358
 8128TIP3    H145799   5.203   0.238   1.336 -2.0509 -2.3848  1.7959
 8128TIP3    H245800   5.116   0.302   1.443 -0.1046  3.1073  0.4204
 8129TIP3   OH245801   6.085   0.580   1.977  0.2608 -0.0905 -0.1003
 8129TIP3    H145802   6.051   0.496   1.947 -0.2178  0.7430 -2.0495
 8129TIP3    H245803   6.166   0.592   1.929  0.5979  0.3287  0.5592
 8130TIP3   OH245804   2.648   4.706  15.202  0.0666  0.7390 -0.6262
 8130TIP3    H145805   2.705   4.631  15.188 -0.7045  0.0234 -0.0374
 8130TIP3    H245806   2.678   4.771  15.139  1.8448  0.5853  0.0101
 8131TIP3   OH245807   0.556   6.592  16.968  0.1867  0.8327 -0.5216
 8131TIP3    H145808   0.563   6.633  17.054  1.6633  0.2957 -0.3510
 8131TIP3    H245809   0.490   6.523  16.980  0.6271  0.5341  0.2916
 8132TIP3   OH245810   1.803   0.961  11.580  0.1777 -0.0201  0.4090
 8132TIP3    H145811   1.787   0.867  11.577  1.2897 -0.2058 -0.5141
 8132TIP3    H245812   1.760   0.991  11.660 -4.9142 -0.3451 -1.7861
 8133TIP3   OH245813   5.129   2.939  17.098  0.2713  0.7101  0.1611
 8133TIP3    H145814   5.038   2.923  17.073  0.1498  1.7881 -0.1043
 8133TIP3    H245815   5.164   2.851  17.117 -0.6171  0.2151 -0.4162
 8134TIP3   OH245816   6.413   6.767   1.181  0.2205  0.1269 -0.4288
 8134TIP3    H145817   6.481   6.798   1.122  0.2636 -1.8651 -1.5170
 8134TIP3    H245818   6.372   6.847   1.215  0.4964  1.3706 -2.8072
 8135TIP3   OH245819   0.744   1.445  12.071 -0.0595 -0.0116 -0.1950
 8135TIP3    H145820   0.743   1.449  11.976  1.3635  0.9484 -0.2047
 8135TIP3    H245821   0.814   1.384  12.093 -0.0058  0.1997  0.2425
 8136TIP3   OH245822   3.182   3.741   5.086  0.7709  0.2458 -0.0612
 8136TIP3    H145823   3.270   3.712   5.062  0.8714 -0.8831  1.5020
 8136TIP3    H245824   3.169   3.706   5.174 -1.2067  0.4774 -0.2229
 8137TIP3   OH245825   4.452   3.709   2.702 -0.0883 -0.1923 -0.5730
 8137TIP3    H145826   4.414   3.716   2.615  1.0993 -0.5211 -1.1312
 8137TIP3    H245827   4.426   3.622   2.733 -0.7208  0.0231 -0.4851
 8138TIP3   OH245828   3.050   5.713  11.139 -0.6113  0.1654 -0.4130
 8138TIP3    H145829   3.079   5.652  11.071  1.0054  0.5696 -0.1535
 8138TIP3    H245830   3.120   5.780  11.141  0.1037 -0.5292  2.5214
 8139TIP3   OH245831   5.505   2.163  16.518 -0.2843  0.1894 -0.3770
 8139TIP3    H145832   5.552   2.238  16.481 -3.3628  2.1828 -0.5262
 8139TIP3    H245833   5.492   2.105  16.444  0.7414  0.2172 -0.6004
 8140TIP3   OH245834   5.348   4.965   5.055  0.4284 -0.3203 -0.0202
 8140TIP3    H145835   5.265   4.917   5.054 -0.1969  0.7063  0.1707
 8140TIP3    H245836   5.368   4.980   4.963 -0.6547  1.1330 -0.0511
 8141TIP3   OH245837   1.548   2.551   1.799 -0.0922 -0.2937  0.4290
 8141TIP3    H145838   1.591   2.582   1.878  1.6519 -0.1399 -0.5379
 8141TIP3    H245839   1.608   2.573   1.728 -2.1185  0.6704 -1.1253
 8142TIP3   OH245840   3.633   2.562  13.069  0.3710 -0.1763  0.7018
 8142TIP3    H145841   3.680   2.496  13.120  1.7623  0.5171  0.3558
 8142TIP3    H245842   3.572   2.511  13.015  1.3482 -1.1816  0.5079
 8143TIP3   OH245843   2.128   2.766   0.443  0.6049  0.0314  0.6064
 8143TIP3    H145844   2.123   2.764   0.539 -0.4726  0.5218  0.5668
 8143TIP3    H245845   2.200   2.706   0.422  1.1218  0.2342  1.7355
 8144TIP3   OH245846   3.051   0.084   3.092  0.1498  0.4552 -0.6527
 8144TIP3    H145847   2.980   0.144   3.070  0.8502  1.6430  0.1581
 8144TIP3    H245848   3.009   0.014   3.142 -1.3039 -1.7833 -4.5742
 8145TIP3   OH245849   5.212   1.210   3.351  0.3148  0.0957  0.5849
 8145TIP3    H145850   5.240   1.286   3.299  0.2856 -0.9590 -1.0260
 8145TIP3    H245851   5.130   1.238   3.391  0.0102  0.7209 -0.4356
 8146TIP3   OH245852   1.857   3.316   0.798 -0.1900  0.1340 -0.4520
 8146TIP3    H145853   1.770   3.288   0.769 -1.0451 -0.1165  2.1229
 8146TIP3    H245854   1.841   3.392   0.853  1.0359 -0.8359  1.3325
 8147TIP3   OH245855   1.888   5.906   1.404 -0.3709 -0.4686  0.2922
 8147TIP3    H145856   1.837   5.848   1.348  0.2961 -1.3145  0.5326
 8147TIP3    H245857   1.952   5.947   1.345 -0.5559 -0.3080  0.2015
 8148TIP3   OH245858   0.348   0.779  12.514  0.7931  0.6723  0.2262
 8148TIP3    H145859   0.405   0.719  12.561 -0.9094  0.3171  1.9481
 8148TIP3    H245860   0.353   0.861  12.563  1.6450  1.4108 -1.0240
 8149TIP3   OH245861   2.924   0.692   0.790 -0.0952  0.3216  0.4030
 8149TIP3    H145862   2.890   0.605   0.809  0.3893 -0.0020 -0.1393
 8149TIP3    H245863   2.925   0.738   0.874  0.2250 -0.4103  0.8017
 8150TIP3   OH245864   3.850   5.368  12.062 -0.1590 -0.0893 -0.3393
 8150TIP3    H145865   3.812   5.300  12.118  0.0768 -1.1849 -1.4578
 8150TIP3    H245866   3.939   5.379  12.095 -0.2577 -0.2075 -0.0347
 8151TIP3   OH245867   1.026   2.770  15.393  0.5504 -0.0864  0.0909
 8151TIP3    H145868   0.997   2.802  15.307  2.3334  1.0167 -0.1648
 8151TIP3    H245869   0.969   2.696  15.411 -1.4123  1.0625 -0.9712
 8152TIP3   OH245870   1.053   3.299  13.182 -0.3248 -0.4881  0.5314
 8152TIP3    H145871   1.106   3.338  13.112 -1.1023 -0.7807 -0.2470
 8152TIP3    H245872   0.997   3.370  13.213 -1.0873 -0.7228 -0.2486
 8153TIP3   OH245873   5.469   4.919  14.716  0.4259  0.2197 -0.2996
 8153TIP3    H145874   5.548   4.934  14.663  1.7120  0.8861  1.6683
 8153TIP3    H245875   5.418   4.855  14.666  1.9643  0.1540 -1.8913
 8154TIP3   OH245876   3.591   2.684  16.994 -0.1155  0.4755 -0.2877
 8154TIP3    H145877   3.611   2.714  17.083 -1.5273 -0.8784  0.5401
 8154TIP3    H245878   3.677   2.670  16.954  0.8790 -4.1106  2.7221
 8155TIP3   OH245879   5.656   3.689  11.873  0.0398 -0.2150 -1.1217
 8155TIP3    H145880   5.672   3.664  11.782 -2.3663 -1.1896 -1.3508
 8155TIP3    H245881   5.629   3.609  11.916 -0.0911  0.4863  0.1517
 8156TIP3   OH245882   3.811   1.375  16.153  0.5612 -0.3018  0.2447
 8156TIP3    H145883   3.825   1.302  16.093  0.3580  0.5059 -0.8082
 8156TIP3    H245884   3.885   1.434  16.137  1.6750 -1.0170  2.2982
 8157TIP3   OH245885   4.958   3.921   0.567  0.7307 -0.2914 -0.3228
 8157TIP3    H145886   4.992   3.963   0.646 -2.0890 -1.1867  1.5067
 8157TIP3    H245887   4.919   3.839   0.598  0.6244 -1.3122 -2.8657
 8158TIP3   OH245888   5.509   0.585  13.704 -0.2831 -0.4219  0.4295
 8158TIP3    H145889   5.488   0.637  13.626 -0.1094 -1.2914 -0.2251
 8158TIP3    H245890   5.475   0.498  13.683  1.0947 -1.0443  0.7019
 8159TIP3   OH245891   6.557   3.227  14.775 -0.3726  0.0533  0.1283
 8159TIP3    H145892   6.509   3.195  14.699 -0.6538  0.0948  0.2855
 8159TIP3    H245893   6.509   3.192  14.850 -0.2217  0.1880  0.2884
 8160TIP3   OH245894   0.856   1.430  15.718 -0.1839  0.0270 -0.1695
 8160TIP3    H145895   0.763   1.405  15.719 -0.0290 -0.5620  0.5023
 8160TIP3    H245896   0.854   1.526  15.719 -0.7920  0.0229  0.2157
 8161TIP3   OH245897   5.078   3.936   6.525  0.0339 -0.4587  0.1921
 8161TIP3    H145898   5.151   3.998   6.522  1.4898 -2.0135  1.2508
 8161TIP3    H245899   5.003   3.985   6.494  1.7312  0.9219 -1.9903
 8162TIP3   OH245900   3.408   5.868  12.233  0.0567  0.4000 -0.1099
 8162TIP3    H145901   3.502   5.880  12.220 -0.1641  2.5758 -0.1953
 8162TIP3    H245902   3.370   5.878  12.146 -0.2387 -1.2361 -0.2045
 8163TIP3   OH245903   2.727   5.354   0.684  0.4408 -0.1652 -0.4847
 8163TIP3    H145904   2.747   5.442   0.714 -0.5937 -0.7214  2.1517
 8163TIP3    H245905   2.806   5.324   0.640  0.7060  2.1430 -1.6995
 8164TIP3   OH245906   4.434   3.214   1.158 -0.5885 -0.1340 -0.1165
 8164TIP3    H145907   4.521   3.244   1.184 -0.4888 -0.2627 -0.2969
 8164TIP3    H245908   4.395   3.178   1.238 -1.8477  3.0518  0.8648
 8165TIP3   OH245909   1.076   0.709  12.377  0.6180 -0.3904  0.1745
 8165TIP3    H145910   1.128   0.706  12.457  1.2564  0.2301 -0.2111
 8165TIP3    H245911   1.089   0.623  12.336  2.9905  0.4248 -0.9343
 8166TIP3   OH245912   2.448   3.332  16.791  0.6806 -0.0912 -0.2164
 8166TIP3    H145913   2.464   3.293  16.877 -0.3240 -2.4880 -1.0306
 8166TIP3    H245914   2.370   3.386  16.804  0.7055 -0.2036  0.4592
 8167TIP3   OH245915   1.397   5.795   4.086  0.5419 -0.0392  0.1993
 8167TIP3    H145916   1.327   5.783   4.150  0.2507 -0.0243 -0.1149
 8167TIP3    H245917   1.367   5.867   4.031  0.6534 -0.2535 -0.1422
 8168TIP3   OH245918   0.626   3.755  16.279  0.0343  0.2142 -0.5867
 8168TIP3    H145919   0.561   3.786  16.342  1.9742  0.5553  1.3618
 8168TIP3    H245920   0.610   3.661  16.272  0.7321 -0.1426  1.6944
 8169TIP3   OH245921   2.688   3.554   4.942  0.2284 -0.0284  0.5297
 8169TIP3    H145922   2.597   3.526   4.929  0.5551 -0.7517 -0.3382
 8169TIP3    H245923   2.712   3.519   5.028  0.2535 -1.4792 -0.0333
 8170TIP3   OH245924   5.909   5.813  14.209  0.2973 -0.4552  0.3389
 8170TIP3    H145925   5.816   5.810  14.230  0.4860  0.6188  1.3891
 8170TIP3    H245926   5.942   5.727  14.236 -0.2839 -0.6735  0.3798
 8171TIP3   OH245927   0.179   4.902  11.163  0.7062 -0.3614 -0.0438
 8171TIP3    H145928   0.089   4.899  11.131  0.0741 -1.7320  1.6650
 8171TIP3    H245929   0.210   4.989  11.140 -1.4712  0.5854  0.3545
 8172TIP3   OH245930   4.090   6.221   3.926 -0.2827 -0.1161  0.0829
 8172TIP3    H145931   4.111   6.128   3.922  0.6171  0.0006  1.4113
 8172TIP3    H245932   4.078   6.239   4.019 -0.8092  1.0268 -0.1845
 8173TIP3   OH245933   4.620   6.598  16.770 -0.2521  0.3941  0.5331
 8173TIP3    H145934   4.595   6.601  16.862  1.5936  0.3691  1.0721
 8173TIP3    H245935   4.714   6.620  16.769 -0.0530 -0.3219 -1.2573
 8174TIP3   OH245936   1.602   5.638  11.728 -0.0364  0.2806  0.1342
 8174TIP3    H145937   1.689   5.622  11.765 -0.3564 -0.4364  0.5884
 8174TIP3    H245938   1.620   5.670  11.639  0.6755 -2.6405 -0.8798
 8175TIP3   OH245939   5.899   2.088   3.987 -0.3009  0.1765  0.3891
 8175TIP3    H145940   5.812   2.052   4.002 -0.0958 -0.0718  1.0284
 8175TIP3    H245941   5.904   2.163   4.047 -0.0422  0.1350  0.4207
 8176TIP3   OH245942   0.461   5.700  13.471  1.1352  0.0512  0.1834
 8176TIP3    H145943   0.400   5.742  13.532  1.3897  0.3676  0.2283
 8176TIP3    H245944   0.470   5.763  13.399 -0.0029 -0.7866 -0.7251
 8177TIP3   OH245945   3.840   5.834  12.333  0.1372 -0.5516 -0.6647
 8177TIP3    H145946   3.884   5.849  12.417 -2.2910 -0.2346  0.6461
 8177TIP3    H245947   3.911   5.820  12.270  2.0827  0.6992  1.1416
 8178TIP3   OH245948   5.249   3.135   1.583 -0.6954  0.2308 -0.0829
 8178TIP3    H145949   5.260   3.123   1.677  0.5141  1.4887 -0.0355
 8178TIP3    H245950   5.316   3.078   1.544 -2.0519 -1.3056 -0.2667
 8179TIP3   OH245951   4.384   2.288  12.604 -0.0052 -0.4097  0.5767
 8179TIP3    H145952   4.425   2.224  12.662 -0.5888 -0.2179  1.2187
 8179TIP3    H245953   4.403   2.256  12.515  0.9977 -0.6407  0.8607
 8180TIP3   OH245954   5.180   0.831  12.690  0.1785 -0.2976  0.2605
 8180TIP3    H145955   5.228   0.756  12.653 -0.6528 -0.7184  0.0232
 8180TIP3    H245956   5.111   0.791  12.743 -1.1219  0.2684 -0.9518
 8181TIP3   OH245957   2.641   3.306   1.212  0.2306  0.2356 -0.5505
 8181TIP3    H145958   2.631   3.221   1.255  0.9523 -0.3570 -1.5154
 8181TIP3    H245959   2.701   3.355   1.268  0.1368 -0.0433 -0.2049
 8182TIP3   OH245960   0.969   1.591  14.454 -0.1267  0.4773  0.2044
 8182TIP3    H145961   0.886   1.553  14.481 -0.0665 -1.2396 -1.7922
 8182TIP3    H245962   1.016   1.608  14.536 -1.0546 -1.7709  1.2895
 8183TIP3   OH245963   1.696   2.916   0.829  0.2103 -0.2256 -0.0985
 8183TIP3    H145964   1.618   2.898   0.777  0.7029 -1.8585 -0.3364
 8183TIP3    H245965   1.714   2.834   0.876  1.7050  0.1391  0.0478
 8184TIP3   OH245966   4.583   2.616   5.368 -0.8189 -0.3492 -0.1184
 8184TIP3    H145967   4.617   2.537   5.410 -1.5362 -0.0003  1.1738
 8184TIP3    H245968   4.659   2.657   5.327  0.1798 -0.0656  1.9192
 8185TIP3   OH245969   0.944   4.900  13.771 -0.1589 -0.3474 -0.3602
 8185TIP3    H145970   0.961   4.815  13.813 -0.0822 -0.2409 -0.1753
 8185TIP3    H245971   0.999   4.900  13.693  0.7185  0.0140  0.2507
 8186TIP3   OH245972   1.854   3.603   5.853  0.1064 -0.1490 -0.5286
 8186TIP3    H145973   1.917   3.548   5.807 -0.0763  0.3290 -1.3850
 8186TIP3    H245974   1.854   3.571   5.943 -0.6296 -2.1305 -1.1832
 8187TIP3   OH245975   6.488   3.693   6.083 -0.4306  0.0542 -0.0900
 8187TIP3    H145976   6.558   3.628   6.071 -1.7864 -1.2361 -1.5143
 8187TIP3    H245977   6.415   3.658   6.032 -1.9570  1.6107  0.9386
 8188TIP3   OH245978   1.405   4.783  11.575  0.3023 -0.1836 -0.5923
 8188TIP3    H145979   1.492   4.751  11.553  0.2219  0.1787 -1.4807
 8188TIP3    H245980   1.421   4.856  11.636  0.4392 -2.5612  2.4459
 8189TIP3   OH245981   0.394   1.191  14.675  0.2714 -0.1240  0.3946
 8189TIP3    H145982   0.476   1.231  14.703  0.4275 -0.9812  1.2054
 8189TIP3    H245983   0.339   1.265  14.648  0.6399  0.6257  1.6217
 8190TIP3   OH245984   3.531   6.092   5.168  0.3020  0.1844 -0.1175
 8190TIP3    H145985   3.505   6.048   5.250  0.6777  0.4742  0.1598
 8190TIP3    H245986   3.601   6.037   5.133  1.1199  0.8158  0.4856
 8191TIP3   OH245987   1.595   1.668   1.808  0.2178 -0.0577  0.4115
 8191TIP3    H145988   1.616   1.645   1.717  0.6204 -0.9277  0.7087
 8191TIP3    H245989   1.552   1.753   1.802  0.2641 -0.0900 -0.5922
 8192TIP3   OH245990   0.906   3.438  12.778 -0.0359 -0.4701 -0.3109
 8192TIP3    H145991   0.950   3.420  12.695  2.2146 -1.4264  1.0071
 8192TIP3    H245992   0.974   3.472  12.835 -1.7432  1.1165  0.8993
 8193TIP3   OH245993   2.586   5.140   4.534 -0.0179  0.0094  0.2685
 8193TIP3    H145994   2.503   5.091   4.532 -0.0185 -0.0177  0.8112
 8193TIP3    H245995   2.653   5.073   4.546 -0.0911  0.2040  1.9347
 8194TIP3   OH245996   5.378   4.910  12.183  0.1290  0.4746  0.4155
 8194TIP3    H145997   5.296   4.927  12.230 -0.2734  0.2091 -0.1828
 8194TIP3    H245998   5.369   4.821  12.150 -0.1722  1.1033 -1.2915
 8195TIP3   OH245999   2.702   3.908   1.274 -0.4562  0.4452  0.2715
 8195TIP3    H146000   2.628   3.922   1.215 -0.6066 -0.8771  0.1175
 8195TIP3    H246001   2.676   3.833   1.327  0.1056  0.9812  1.3331
 8196TIP3   OH246002   0.168   2.194   3.933 -0.2925 -0.1122 -0.0087
 8196TIP3    H146003   0.181   2.240   3.850 -1.8754  1.0043  0.3311
 8196TIP3    H246004   0.202   2.253   4.000 -0.4705 -0.3243  0.2731
 8197TIP3   OH246005   3.517   0.361   5.763 -0.0543  0.0406 -0.3762
 8197TIP3    H146006   3.603   0.402   5.749  0.0095 -0.4535 -1.5417
 8197TIP3    H246007   3.454   0.423   5.725 -0.2451  0.4454  0.5586
 8198TIP3   OH246008   1.432   4.656   5.322  0.2503  0.3677 -0.3138
 8198TIP3    H146009   1.402   4.723   5.261 -3.9358 -1.7827 -0.9998
 8198TIP3    H246010   1.467   4.586   5.267 -1.3315 -0.5763 -0.1876
 8199TIP3   OH246011   5.762   1.595   0.536 -0.2155 -0.6138  0.7453
 8199TIP3    H146012   5.788   1.668   0.592 -0.2607  0.3132 -0.4218
 8199TIP3    H246013   5.749   1.522   0.597  4.0888 -0.9496  1.5820
 8200TIP3   OH246014   4.607   0.367   5.389 -0.0885  0.2835 -0.3763
 8200TIP3    H146015   4.696   0.355   5.424  0.2973  1.2074 -1.0187
 8200TIP3    H246016   4.570   0.279   5.390 -0.4856  0.3226  3.2988
 8201TIP3   OH246017   4.214   1.256  12.455 -0.4777  0.5845 -0.2897
 8201TIP3    H146018   4.286   1.256  12.518 -0.1568 -1.3231 -0.6056
 8201TIP3    H246019   4.250   1.215  12.377 -2.1150 -1.3478 -0.1237
 8202TIP3   OH246020   4.222   2.924  16.623 -0.3107 -0.4930  0.5290
 8202TIP3    H146021   4.261   2.935  16.710 -0.8137 -0.8125  0.8013
 8202TIP3    H246022   4.251   3.001  16.574  0.4516 -0.6039  0.7963
 8203TIP3   OH246023   3.183   2.238  15.852 -0.5813 -0.2262 -0.7250
 8203TIP3    H146024   3.157   2.318  15.898 -2.4689 -1.1091 -0.1324
 8203TIP3    H246025   3.151   2.249  15.763  2.4490  1.1797 -1.7722
 8204TIP3   OH246026   2.356   2.139   0.054 -0.4807  0.2413 -0.6360
 8204TIP3    H146027   2.353   2.151  -0.041 -1.1044  0.3851 -0.6064
 8204TIP3    H246028   2.440   2.095   0.071 -1.5923 -2.4715 -1.5629
 8205TIP3   OH246029   5.415   5.166  13.411  0.5890 -0.7411  0.0319
 8205TIP3    H146030   5.395   5.223  13.337 -0.4883 -0.4604  0.5241
 8205TIP3    H246031   5.501   5.130  13.391  1.1756  0.8537 -0.4062
 8206TIP3   OH246032   5.321   4.887   1.951  0.0281  0.3817  0.0767
 8206TIP3    H146033   5.332   4.825   2.022  0.8707  0.5039  0.0656
 8206TIP3    H246034   5.227   4.906   1.949  0.2195  2.0263  2.5500
 8207TIP3   OH246035   2.030   3.548   2.867 -0.5661 -0.6504  0.4006
 8207TIP3    H146036   2.016   3.542   2.962 -0.3670  1.6692  0.6334
 8207TIP3    H246037   2.108   3.603   2.859 -0.7463 -0.6009 -1.1322
 8208TIP3   OH246038   4.927   0.357  14.630 -0.8721 -0.1209  0.0691
 8208TIP3    H146039   4.936   0.448  14.603 -1.4589  0.5863  2.0909
 8208TIP3    H246040   4.927   0.308  14.548  1.2757  1.4877 -1.0051
 8209TIP3   OH246041   0.250   5.656   5.378  0.9339 -0.2346  0.2296
 8209TIP3    H146042   0.180   5.645   5.443  0.3210 -0.8969 -0.5258
 8209TIP3    H246043   0.266   5.567   5.346  2.0436 -0.0705  0.3083
 8210TIP3   OH246044   0.900   5.526   2.750  0.0712  0.5336  0.2413
 8210TIP3    H146045   0.934   5.455   2.695  2.4596  0.9441  1.0813
 8210TIP3    H246046   0.890   5.600   2.690 -0.0199  0.2007 -0.1593
 8211TIP3   OH246047   6.320   4.528  14.650  0.0418  0.2012 -0.0970
 8211TIP3    H146048   6.269   4.497  14.575 -0.3309 -1.3260  0.7485
 8211TIP3    H246049   6.268   4.599  14.686 -0.3967  0.1161 -0.5443
 8212TIP3   OH246050   5.876   1.307  17.072  0.2437 -0.4584  0.1268
 8212TIP3    H146051   5.792   1.313  17.026  0.9592 -0.4799 -1.2556
 8212TIP3    H246052   5.885   1.215  17.096  0.0427 -0.5383 -0.1002
 8213TIP3   OH246053   5.207   3.811   1.602  0.3008 -0.3826  0.3477
 8213TIP3    H146054   5.291   3.814   1.557  0.6095 -1.3528  0.8181
 8213TIP3    H246055   5.214   3.736   1.662 -0.0900  0.8442  2.0185
 8214TIP3   OH246056   6.115   6.078   4.959 -0.0327 -0.6618 -0.5211
 8214TIP3    H146057   6.027   6.065   4.995  0.0864  2.1069  1.0857
 8214TIP3    H246058   6.101   6.130   4.880  0.0416 -2.3156 -1.6459
 8215TIP3   OH246059   4.073   5.178  11.928 -0.3716 -0.0475 -0.3559
 8215TIP3    H146060   4.106   5.156  12.015  0.0781  1.0499 -0.2319
 8215TIP3    H246061   4.149   5.168  11.870 -0.7968 -1.3033 -0.7413
 8216TIP3   OH246062   5.902   5.253  13.181 -0.3105 -0.5285 -0.2307
 8216TIP3    H146063   5.989   5.235  13.215 -0.4025 -0.3510  0.1084
 8216TIP3    H246064   5.849   5.270  13.259 -0.2975  0.8776 -0.4934
 8217TIP3   OH246065   2.735   6.657  14.931 -0.6843  0.2848 -0.3134
 8217TIP3    H146066   2.820   6.620  14.955 -0.2189  2.6134  2.1054
 8217TIP3    H246067   2.756   6.736  14.882 -1.3861  1.1628  0.7519
 8218TIP3   OH246068   1.097   3.782  11.348  0.8483 -0.0060 -0.2082
 8218TIP3    H146069   1.147   3.833  11.412  0.9904  0.6315 -0.8204
 8218TIP3    H246070   1.121   3.820  11.263 -0.1738 -0.1233 -0.5592
 8219TIP3   OH246071   2.620   5.126  14.222 -0.0973 -0.2673  0.1610
 8219TIP3    H146072   2.645   5.037  14.244 -0.3137 -0.2054  0.6734
 8219TIP3    H246073   2.563   5.154  14.294 -0.3216  0.1573 -0.1712
 8220TIP3   OH246074   5.327   3.224  13.025 -0.2049  0.1291 -0.2165
 8220TIP3    H146075   5.355   3.211  12.934 -0.8797 -0.7636 -0.3100
 8220TIP3    H246076   5.408   3.242  13.072  0.1802  0.4095 -0.9532
 8221TIP3   OH246077   0.149   3.411   2.812 -0.8518 -0.3189  0.3704
 8221TIP3    H146078   0.209   3.460   2.755  1.7003 -3.0374  0.4933
 8221TIP3    H246079   0.080   3.379   2.753 -0.3783  0.1369 -0.4391
 8222TIP3   OH246080   5.902   4.456  15.713  0.3355  0.0576  0.2542
 8222TIP3    H146081   5.970   4.509  15.672  0.0357 -1.0416 -1.7800
 8222TIP3    H246082   5.864   4.405  15.642 -1.1558 -0.9718  1.6952
 8223TIP3   OH246083   5.518   5.877   2.875  0.9921 -0.5664  0.5477
 8223TIP3    H146084   5.550   5.897   2.963 -0.1705  1.7964  0.4997
 8223TIP3    H246085   5.432   5.839   2.889  1.0141 -0.6550  0.4417
 8224TIP3   OH246086   4.728   1.783   0.254 -0.3195  0.2957  0.4384
 8224TIP3    H146087   4.728   1.879   0.251  1.1816  0.3259  0.7921
 8224TIP3    H246088   4.718   1.763   0.347 -0.6082  0.1037  0.3665
 8225TIP3   OH246089   4.777   5.515  15.966 -0.3198 -0.1466  0.2116
 8225TIP3    H146090   4.709   5.552  16.022 -1.5755 -0.0757 -1.2982
 8225TIP3    H246091   4.729   5.476  15.893  1.2231 -0.9218 -0.4323
 8226TIP3   OH246092   1.652   2.941   1.779 -0.2670 -0.5099  0.0178
 8226TIP3    H146093   1.664   2.932   1.684  1.9291  2.0526 -0.0789
 8226TIP3    H246094   1.568   2.986   1.787 -0.1042 -0.0269 -0.7936
 8227TIP3   OH246095   1.752   6.629   5.312 -0.4678  0.5069  0.2899
 8227TIP3    H146096   1.838   6.590   5.301 -0.9082 -0.6182  0.7476
 8227TIP3    H246097   1.691   6.561   5.285 -1.2344  1.0367  0.6626
 8228TIP3   OH246098   1.661   2.796   6.288  0.2382 -0.0470  0.0895
 8228TIP3    H146099   1.739   2.785   6.343  0.3910  1.5731  0.2582
 8228TIP3    H246100   1.592   2.750   6.335  0.9546 -0.9742  0.2617
 8229TIP3   OH246101   1.790   5.700  14.569 -0.2326 -0.6198 -0.0607
 8229TIP3    H146102   1.858   5.734  14.626  2.5833 -3.5925 -1.3612
 8229TIP3    H246103   1.737   5.643  14.625 -0.9850  0.7279  0.6693
 8230TIP3   OH246104   0.299   0.430  12.654 -0.0353  0.0878  0.4022
 8230TIP3    H146105   0.271   0.339  12.663 -0.4061  0.1573  0.0295
 8230TIP3    H246106   0.366   0.428  12.586  1.9100 -0.2720  2.2355
 8231TIP3   OH246107   6.248   3.338  11.182 -0.0000 -0.7646  0.3320
 8231TIP3    H146108   6.263   3.423  11.139  0.7123 -1.0388  0.0315
 8231TIP3    H246109   6.207   3.361  11.265  1.7790  0.0279  1.0517
 8232TIP3   OH246110   5.268   6.122  13.737 -0.2480 -0.9627 -0.5584
 8232TIP3    H146111   5.203   6.154  13.799  0.3274 -2.7574  1.0875
 8232TIP3    H246112   5.227   6.045  13.698 -0.3592 -0.2016 -1.9790
 8233TIP3   OH246113   0.315   1.535   6.042 -0.2350 -0.3257  0.7218
 8233TIP3    H146114   0.396   1.567   6.082  0.9326 -2.3706  0.0875
 8233TIP3    H246115   0.340   1.509   5.953 -1.7403 -0.3862  0.2808
 8234TIP3   OH246116   4.343   4.264   2.002 -0.5070  0.1564  0.4162
 8234TIP3    H146117   4.263   4.214   1.984 -0.4556 -0.1492  0.9884
 8234TIP3    H246118   4.401   4.201   2.045  1.1703 -0.4558 -2.4755
 8235TIP3   OH246119   0.803   5.730   5.920  0.1108 -0.4826 -0.6213
 8235TIP3    H146120   0.865   5.717   5.848  1.0756  0.5095 -0.0005
 8235TIP3    H246121   0.793   5.825   5.925 -0.9172 -0.6035 -0.2463
 8236TIP3   OH246122   3.316   0.283  13.979  0.5542 -0.1690 -0.4288
 8236TIP3    H146123   3.410   0.279  13.966  0.6158 -1.3168  0.2604
 8236TIP3    H246124   3.279   0.285  13.891  1.1651 -1.6781 -0.7550
 8237TIP3   OH246125   1.248   6.359  16.117 -0.0454  0.4951 -0.3852
 8237TIP3    H146126   1.302   6.338  16.193  0.0209  0.1274 -0.5348
 8237TIP3    H246127   1.178   6.294  16.119 -0.5462  1.0219 -0.1352
 8238TIP3   OH246128   4.790   6.332  14.655 -0.2360 -0.0788 -0.5512
 8238TIP3    H146129   4.806   6.382  14.575  0.1273  0.9514  0.1452
 8238TIP3    H246130   4.876   6.322  14.695 -0.4367 -0.4372 -0.2007
 8239TIP3   OH246131   1.783   3.065  14.670 -0.1208 -0.3033  0.4843
 8239TIP3    H146132   1.689   3.048  14.662 -0.0572  0.2074 -2.1141
 8239TIP3    H246133   1.818   3.050  14.583  1.8616  1.6641  0.8422
 8240TIP3   OH246134   0.376   1.261   3.022 -0.2280  0.4221  0.0960
 8240TIP3    H146135   0.410   1.331   2.966 -0.1749  0.6865  0.4564
 8240TIP3    H246136   0.285   1.285   3.038  0.2111  1.2737  1.5310
 8241TIP3   OH246137   4.641   2.446  12.908 -0.0629  0.2224 -0.6119
 8241TIP3    H146138   4.610   2.356  12.899  1.8679 -0.3189 -2.6733
 8241TIP3    H246139   4.588   2.496  12.845 -0.2941  0.3208 -0.3446
 8242TIP3   OH246140   5.529   0.765   4.208 -0.2206  0.4632 -0.0089
 8242TIP3    H146141   5.537   0.830   4.138  1.4779  0.0111 -0.2699
 8242TIP3    H246142   5.618   0.755   4.242 -0.4438 -1.7112  0.0463
 8243TIP3   OH246143   1.011   6.392  15.434  0.3065  0.2172  0.2169
 8243TIP3    H146144   1.090   6.446  15.436  0.9979 -0.6920 -1.1752
 8243TIP3    H246145   1.042   6.304  15.412 -1.2240  0.1906 -2.2242
 8244TIP3   OH246146   0.483   1.318   2.501 -0.0527  0.0222  0.2780
 8244TIP3    H146147   0.400   1.271   2.486 -0.3072  0.3495  0.6338
 8244TIP3    H246148   0.518   1.279   2.581  0.1417 -0.1225  0.1214
 8245TIP3   OH246149   4.497   5.389  14.297 -0.4485 -0.3736 -0.3153
 8245TIP3    H146150   4.428   5.440  14.339 -0.4396 -0.5409 -0.1011
 8245TIP3    H246151   4.484   5.405  14.203  0.5717  1.3759 -0.2087
 8246TIP3   OH246152   2.456   0.583  14.454  0.2232 -0.8093  0.3164
 8246TIP3    H146153   2.488   0.535  14.377 -1.1555 -1.8811  0.3665
 8246TIP3    H246154   2.447   0.515  14.521 -1.1240 -0.3732  0.6008
 8247TIP3   OH246155   2.669   2.802   1.090  0.3235 -0.3558  0.5038
 8247TIP3    H146156   2.697   2.752   1.013 -0.2422  1.0381 -0.6361
 8247TIP3    H246157   2.735   2.871   1.099 -0.2454  0.1879  0.5587
 8248TIP3   OH246158   6.454   2.564   0.400  0.1337 -0.0623  0.2356
 8248TIP3    H146159   6.424   2.581   0.489 -0.2555 -1.3573  0.3723
 8248TIP3    H246160   6.514   2.490   0.408  0.9399  0.4859 -0.4548
 8249TIP3   OH246161   2.295   6.104   5.935 -0.1812 -0.5539  0.0908
 8249TIP3    H146162   2.229   6.138   5.874 -0.6294  3.0395  2.2472
 8249TIP3    H246163   2.269   6.013   5.950 -4.4525  0.4630  0.3725
 8250TIP3   OH246164   0.111   0.915  13.404 -0.3677 -0.2650 -0.4929
 8250TIP3    H146165   0.106   0.873  13.490 -1.2068  1.5528  0.3884
 8250TIP3    H246166   0.024   0.902  13.366 -0.8945  1.2687  0.1147
 8251TIP3   OH246167   1.772   5.215  16.554  1.0578 -0.1566 -0.3494
 8251TIP3    H146168   1.866   5.210  16.533  1.1031 -0.2482 -0.1323
 8251TIP3    H246169   1.732   5.144  16.505  1.2149 -0.5968  0.1434
 8252TIP3   OH246170   1.032   1.235   6.045 -0.4973  0.6564 -0.1372
 8252TIP3    H146171   0.968   1.204   6.110  1.3044  1.0175  1.9265
 8252TIP3    H246172   1.062   1.156   6.001 -0.0993  0.1151  1.0791
 8253TIP3   OH246173   3.009   5.758   1.307 -0.6449 -0.1853  0.4502
 8253TIP3    H146174   2.920   5.724   1.301 -0.1234 -1.3472 -1.8068
 8253TIP3    H246175   3.020   5.810   1.227  1.1737 -1.3352 -0.0940
 8254TIP3   OH246176   3.198   0.254   4.967  0.1151 -0.2577 -0.0080
 8254TIP3    H146177   3.131   0.192   4.995  0.3251 -0.5414 -0.1325
 8254TIP3    H246178   3.149   0.331   4.936 -0.2214 -1.1633 -1.8464
 8255TIP3   OH246179   2.139   6.529   1.760 -0.4617 -0.3814  0.3268
 8255TIP3    H146180   2.072   6.476   1.717 -0.4015  2.0024 -3.0736
 8255TIP3    H246181   2.096   6.614   1.775  1.0393  0.3713  0.5047
 8256TIP3   OH246182   0.430   0.446   2.334  0.2471  0.5569 -0.4517
 8256TIP3    H146183   0.411   0.372   2.391  0.0576 -0.8419 -2.2168
 8256TIP3    H246184   0.500   0.493   2.377 -0.8564  0.4085  1.6143
 8257TIP3   OH246185   6.630   2.503   4.081 -0.6876  0.1357  0.0028
 8257TIP3    H146186   6.658   2.506   4.173 -1.9075 -0.0915  0.4032
 8257TIP3    H246187   6.554   2.561   4.077 -0.5324  0.2869 -0.9104
 8258TIP3   OH246188   6.271   6.471  12.139  0.0645 -0.1019  0.0552
 8258TIP3    H146189   6.282   6.418  12.218  0.6200  1.3433  0.9828
 8258TIP3    H246190   6.356   6.466  12.094 -0.1913 -0.7645 -0.3820
 8259TIP3   OH246191   5.193   0.837   1.851  0.5038  0.4564 -0.4859
 8259TIP3    H146192   5.280   0.816   1.816  1.8576  1.1184  2.1763
 8259TIP3    H246193   5.207   0.915   1.904 -1.3410 -0.3426  1.3375
 8260TIP3   OH246194   6.299   0.714  11.810  0.0454 -0.0237  0.0604
 8260TIP3    H146195   6.255   0.658  11.875 -0.5652  1.8824  1.3584
 8260TIP3    H246196   6.392   0.705  11.830  0.0283 -1.1483 -0.2617
 8261TIP3   OH246197   4.668   0.841  16.411 -0.3003 -0.7871  0.3494
 8261TIP3    H146198   4.618   0.888  16.344  0.5769  1.2437  1.0405
 8261TIP3    H246199   4.717   0.910  16.457 -0.2560 -2.2003  2.5638
 8262TIP3   OH246200   1.483   3.212   2.866 -0.1655 -0.5024 -0.6127
 8262TIP3    H146201   1.446   3.299   2.878  0.1924 -0.2376 -1.4056
 8262TIP3    H246202   1.461   3.166   2.947  1.1438  0.8495  0.5489
 8263TIP3   OH246203   1.670   3.486   4.630  0.2957 -0.2732 -0.1023
 8263TIP3    H146204   1.709   3.400   4.613 -0.4400 -0.7487  0.5489
 8263TIP3    H246205   1.734   3.548   4.596  1.3851 -1.0433  0.4850
 8264TIP3   OH246206   5.493   4.665   5.310  0.1393 -0.8307  0.1987
 8264TIP3    H146207   5.550   4.728   5.264 -0.0875 -0.9399 -0.2342
 8264TIP3    H246208   5.531   4.580   5.290  1.0344 -0.7897  1.5933
 8265TIP3   OH246209   0.994   5.074   3.301  0.4017  0.0797  0.1379
 8265TIP3    H146210   0.938   5.147   3.273  0.2502  0.2542  0.8604
 8265TIP3    H246211   1.047   5.053   3.224 -1.4058 -0.8128 -0.9442
 8266TIP3   OH246212   5.584   6.345   5.522 -0.4734  0.1445  0.0537
 8266TIP3    H146213   5.532   6.317   5.447 -1.6509 -0.2277  0.9849
 8266TIP3    H246214   5.534   6.417   5.560 -0.0211  0.1433  0.6577
 8267TIP3   OH246215   5.041   0.196  10.929 -0.0998 -0.2611 -0.2308
 8267TIP3    H146216   4.959   0.210  10.882  0.7020  2.3973 -1.0018
 8267TIP3    H246217   5.109   0.209  10.863  0.9841  0.4094  0.9627
 8268TIP3   OH246218   3.366   4.984   1.389 -0.1131 -0.3153  0.4507
 8268TIP3    H146219   3.384   4.921   1.319  0.8343  0.4113 -0.0013
 8268TIP3    H246220   3.342   5.065   1.342 -2.9485 -0.7450  1.0352
 8269TIP3   OH246221   4.092   0.714   4.029  0.2011 -0.0740 -0.2238
 8269TIP3    H146222   4.070   0.777   4.097  0.0569 -0.1122 -0.2346
 8269TIP3    H246223   4.132   0.766   3.960  0.1877 -0.0108 -0.1844
 8270TIP3   OH246224   2.795   2.914  13.064 -0.2485  0.3406  0.2127
 8270TIP3    H146225   2.801   2.953  12.977 -0.3270  0.3674  0.2187
 8270TIP3    H246226   2.827   2.983  13.123 -0.2942  0.3603  0.2143
 8271TIP3   OH246227   0.163   1.346  14.606  0.7323  0.3540  0.1939
 8271TIP3    H146228   0.095   1.409  14.630  0.5002  0.2687 -0.2210
 8271TIP3    H246229   0.115   1.272  14.568  1.0790  0.5405 -0.6421
 8272TIP3   OH246230   2.307   4.367  15.331 -0.2695 -0.2340 -0.0106
 8272TIP3    H146231   2.229   4.421  15.348 -0.0717 -0.1444  0.6564
 8272TIP3    H246232   2.289   4.285  15.377 -0.4361 -0.6314 -0.7674
 8273TIP3   OH246233   5.977   2.592  14.406 -0.2354  0.8582  0.2136
 8273TIP3    H146234   5.975   2.514  14.352 -2.6926  0.3817  0.8333
 8273TIP3    H246235   6.019   2.565  14.487  0.1769  0.5672 -0.0987
 8274TIP3   OH246236   5.360   0.727   3.121  0.3714  0.4038  0.2071
 8274TIP3    H146237   5.371   0.817   3.152  0.8089 -0.0453  1.4219
 8274TIP3    H246238   5.323   0.680   3.196 -0.9553 -0.1979 -0.7811
 8275TIP3   OH246239   6.343   6.238  15.087 -0.7308  0.0708 -0.5021
 8275TIP3    H146240   6.411   6.211  15.149 -0.5334  2.3380  0.3607
 8275TIP3    H246241   6.374   6.206  15.002  0.8025 -0.0001  0.0508
 8276TIP3   OH246242   3.626   2.513   1.619  0.3902  0.5453  0.3323
 8276TIP3    H146243   3.656   2.530   1.708 -0.7107 -1.3563  1.1164
 8276TIP3    H246244   3.695   2.458   1.581  0.1478  0.1106  0.5214
 8277TIP3   OH246245   4.386   2.521  14.102 -0.1168 -0.1870 -0.1437
 8277TIP3    H146246   4.408   2.521  14.195  2.4718 -3.9374 -0.4920
 8277TIP3    H246247   4.437   2.593  14.065  2.6040 -1.4325  0.8592
 8278TIP3   OH246248   2.702   4.888   5.060  0.4187  0.2826  0.4317
 8278TIP3    H146249   2.778   4.879   5.117  0.9863 -0.9120 -0.4616
 8278TIP3    H246250   2.629   4.851   5.111  0.3755  1.5478  1.3379
 8279TIP3   OH246251   4.227   2.950  17.157  0.2653  0.0239 -0.0074
 8279TIP3    H146252   4.204   3.043  17.144  1.5560  0.3980  0.2460
 8279TIP3    H246253   4.237   2.942  17.252 -3.5168 -1.3310  0.4704
 8280TIP3   OH246254   2.917   4.783   0.778 -0.2027 -0.4268  0.2344
 8280TIP3    H146255   2.849   4.726   0.813  1.0467 -1.4927  1.0008
 8280TIP3    H246256   2.989   4.724   0.756  0.6855  0.7278 -0.0639
 8281TIP3   OH246257   0.769   6.143   5.182 -0.5157 -0.2285 -0.3850
 8281TIP3    H146258   0.726   6.061   5.208  0.6046 -1.1703 -1.3449
 8281TIP3    H246259   0.746   6.205   5.250 -1.3156 -1.3776  0.4328
 8282TIP3   OH246260   3.746   1.626   3.657  0.1154 -0.0871 -0.4276
 8282TIP3    H146261   3.663   1.583   3.676  0.5799 -0.5432  0.6668
 8282TIP3    H246262   3.799   1.557   3.615  1.0576 -0.8500  1.8281
 8283TIP3   OH246263   0.786   5.281  12.462  0.3150 -0.2141  0.2749
 8283TIP3    H146264   0.842   5.221  12.511  1.2739 -0.1754 -0.7447
 8283TIP3    H246265   0.844   5.352  12.435 -0.4108  0.2537 -0.0890
 8284TIP3   OH246266   5.951   6.570  13.334  0.5082  0.1314  0.3922
 8284TIP3    H146267   5.900   6.530  13.263  0.5141 -0.9603  0.9835
 8284TIP3    H246268   5.946   6.664  13.316 -1.1068  0.0153  0.0145
 8285TIP3   OH246269   3.903   3.659  17.125  0.4871 -0.6985  0.1744
 8285TIP3    H146270   3.906   3.563  17.123 -0.2216 -0.7175 -0.5876
 8285TIP3    H246271   3.891   3.684  17.034  1.4576  0.1570  0.2782
 8286TIP3   OH246272   1.935   2.138   3.118  0.0508  0.0304  0.2123
 8286TIP3    H146273   1.908   2.200   3.185 -2.7084 -0.5103 -0.2797
 8286TIP3    H246274   2.016   2.175   3.082 -0.0413  1.8804  1.7635
 8287TIP3   OH246275   1.457   4.480  17.280 -0.3352 -0.4907  0.6316
 8287TIP3    H146276   1.479   4.495  17.188  0.7828 -1.7864  0.6494
 8287TIP3    H246277   1.380   4.423  17.277 -1.1911  0.6418  0.5323
 8288TIP3   OH246278   0.577   6.117   4.686  0.1887  0.3562  0.0066
 8288TIP3    H146279   0.636   6.167   4.629  0.0890  2.2756  1.4973
 8288TIP3    H246280   0.634   6.080   4.754  0.1577 -1.0659 -0.6901
 8289TIP3   OH246281   5.361   4.348   5.641 -0.1833  0.6580 -0.6014
 8289TIP3    H146282   5.349   4.278   5.705  0.6507  1.7381  0.7890
 8289TIP3    H246283   5.386   4.302   5.560 -4.1882 -0.9636 -1.1450
 8290TIP3   OH246284   3.070   2.237  16.749 -0.4399  0.2663  0.0040
 8290TIP3    H146285   3.091   2.167  16.811  0.8458 -1.3023 -2.0702
 8290TIP3    H246286   2.975   2.242  16.749 -0.7452 -3.1912 -1.4917
 8291TIP3   OH246287   2.313   3.464  16.210  0.2748  0.0359 -0.2135
 8291TIP3    H146288   2.217   3.462  16.214  0.3273 -0.7403  1.5890
 8291TIP3    H246289   2.336   3.392  16.151 -0.2302 -1.1317  0.9668
 8292TIP3   OH246290   5.127   4.629   4.998  0.7020  0.0026  0.5848
 8292TIP3    H146291   5.086   4.644   5.083  1.6662  3.4280  0.5841
 8292TIP3    H246292   5.062   4.660   4.934  1.9701  2.6124  0.4426
 8293TIP3   OH246293   4.982   5.052  13.507 -0.0406 -0.0333 -0.3432
 8293TIP3    H146294   5.069   5.035  13.542 -0.1820 -0.7136 -0.3060
 8293TIP3    H246295   4.943   4.965  13.496 -0.3055  0.2016 -1.3965
 8294TIP3   OH246296   3.242   3.548  11.581  0.3680 -0.2179  0.9568
 8294TIP3    H146297   3.321   3.497  11.567  1.8653  1.8780  1.2280
 8294TIP3    H246298   3.273   3.631  11.618 -1.7955  1.2843 -0.3275
 8295TIP3   OH246299   3.868   0.051  13.608 -0.0183 -0.1883  0.8837
 8295TIP3    H146300   3.793   0.015  13.657 -0.1247 -0.5765  0.4481
 8295TIP3    H246301   3.833   0.130  13.566  0.2808  0.5834  2.0426
 8296TIP3   OH246302   3.285   4.900   5.269 -0.4332  0.6099  0.3571
 8296TIP3    H146303   3.250   4.917   5.182  0.3841  1.5219  0.1891
 8296TIP3    H246304   3.370   4.859   5.253 -0.6921 -0.0989  0.7422
 8297TIP3   OH246305   6.707   5.374   3.622  0.7346 -0.3811 -0.6491
 8297TIP3    H146306   6.730   5.342   3.709  1.8081  2.1290  0.0866
 8297TIP3    H246307   6.612   5.362   3.616  0.6649 -0.6945  0.8369
 8298TIP3   OH246308   5.406   6.686   0.452  0.0839 -0.2346  0.0066
 8298TIP3    H146309   5.473   6.667   0.518  0.4300 -0.0997 -0.3035
 8298TIP3    H246310   5.325   6.691   0.502  0.3249 -0.2587  0.4083
 8299TIP3   OH246311   1.119   6.699  11.960 -0.2523 -0.4039 -0.5364
 8299TIP3    H146312   1.116   6.731  12.050  1.1077  2.5563 -1.4125
 8299TIP3    H246313   1.207   6.722  11.929 -0.6198 -1.4942 -2.5855
 8300TIP3   OH246314   3.837   5.902  17.212  1.2147 -0.1019  0.1586
 8300TIP3    H146315   3.910   5.841  17.199  0.2079 -1.1198 -0.9300
 8300TIP3    H246316   3.852   5.938  17.299  2.3283 -1.2495  0.4838
 8301TIP3   OH246317   6.178   0.195   0.633 -0.2971 -0.0446  0.0885
 8301TIP3    H146318   6.181   0.117   0.577  0.6186  0.0503 -0.0161
 8301TIP3    H246319   6.124   0.257   0.585 -0.7105 -0.4800 -0.0152
 8302TIP3   OH246320   1.956   6.768   2.024 -0.1271  0.4164 -0.1378
 8302TIP3    H146321   2.030   6.822   2.052  2.0258 -1.6980 -1.3914
 8302TIP3    H246322   1.962   6.768   1.928 -1.7004  0.0507 -0.2615
 8303TIP3   OH246323   6.704   6.501  13.717  0.2741 -0.1637 -0.0838
 8303TIP3    H146324   6.798   6.496  13.733  0.1596 -0.4468  0.5209
 8303TIP3    H246325   6.680   6.412  13.690  0.0616 -0.2662  0.4381
 8304TIP3   OH246326   1.362   0.198   0.242 -0.2122  0.3835  0.9722
 8304TIP3    H146327   1.343   0.144   0.165 -0.3674 -1.6872  2.3813
 8304TIP3    H246328   1.286   0.256   0.250 -0.8052 -0.2776  0.3005
 8305TIP3   OH246329   5.516   0.566  12.990  0.0491 -0.0191 -0.2856
 8305TIP3    H146330   5.483   0.519  13.067  0.6127  0.3400  0.1953
 8305TIP3    H246331   5.538   0.653  13.024  0.4719  0.0851 -0.8192
 8306TIP3   OH246332   4.458   1.606   3.948 -0.4216  0.3379 -0.0133
 8306TIP3    H146333   4.366   1.584   3.930 -0.2635 -0.2279 -0.1269
 8306TIP3    H246334   4.499   1.611   3.861 -0.3894  0.7994  0.0262
 8307TIP3   OH246335   5.542   1.981  11.679  0.0853 -0.2939  0.1624
 8307TIP3    H146336   5.498   1.913  11.628 -0.8257  0.3767  0.0239
 8307TIP3    H246337   5.633   1.976  11.652 -0.0147 -1.2971 -0.0214
 8308TIP3   OH246338   4.719   4.768   2.413  0.3880  0.7804  0.1775
 8308TIP3    H146339   4.637   4.797   2.451 -0.3266 -0.5031 -0.3201
 8308TIP3    H246340   4.694   4.723   2.332  1.3079 -1.7003  1.1647
 8309TIP3   OH246341   5.279   5.791   3.010  0.2226  0.2631  0.4016
 8309TIP3    H146342   5.302   5.748   2.928  1.0953  1.4348  0.0090
 8309TIP3    H246343   5.190   5.760   3.029  0.0104 -0.0473 -0.9650
 8310TIP3   OH246344   0.520   0.364  14.632  1.0952 -0.1362 -0.4813
 8310TIP3    H146345   0.540   0.379  14.540  0.5059  0.9192 -0.4493
 8310TIP3    H246346   0.604   0.372  14.677  1.1178  1.1166 -0.7216
 8311TIP3   OH246347   4.077   3.284  16.659 -0.2275 -0.2283  0.3031
 8311TIP3    H146348   4.082   3.363  16.605 -0.3258  0.5824  1.4473
 8311TIP3    H246349   3.995   3.294  16.708 -0.4960 -1.2911  0.1009
 8312TIP3   OH246350   0.632   0.833  13.592  0.4966  0.3660  0.4225
 8312TIP3    H146351   0.590   0.791  13.517 -0.2568  1.4765  0.1923
 8312TIP3    H246352   0.639   0.764  13.657 -0.2002 -0.2596 -0.1468
 8313TIP3   OH246353   4.954   2.523  16.270 -0.4716 -0.7805 -0.1613
 8313TIP3    H146354   4.897   2.480  16.207 -2.1457 -0.4681  1.0889
 8313TIP3    H246355   4.980   2.454  16.331  0.7954 -0.9873 -0.8819
 8314TIP3   OH246356   0.156   2.491   1.816  0.3684  0.2536  0.8575
 8314TIP3    H146357   0.223   2.427   1.794  1.1078  1.1416  0.4675
 8314TIP3    H246358   0.080   2.438   1.842  1.3624 -0.7694  1.8036
 8315TIP3   OH246359   1.019   3.453  11.655  0.6186  0.0117  0.0934
 8315TIP3    H146360   1.027   3.358  11.657  2.5971  0.1097 -0.7760
 8315TIP3    H246361   1.106   3.485  11.680  0.2079  1.5857 -0.3813
 8316TIP3   OH246362   2.951   1.503  13.814  0.4843 -0.2965  0.1923
 8316TIP3    H146363   2.931   1.413  13.787  1.2092  0.3263 -2.7963
 8316TIP3    H246364   3.046   1.510  13.805  0.4112  0.8233  0.1864
 8317TIP3   OH246365   5.003   1.587   2.271  0.1682 -0.3508  0.6832
 8317TIP3    H146366   4.907   1.582   2.265  0.2303 -0.0211 -1.5990
 8317TIP3    H246367   5.023   1.680   2.265  0.6537 -0.4918 -0.1144
 8318TIP3   OH246368   6.744   6.649   0.783  0.3366 -0.6990 -0.0843
 8318TIP3    H146369   6.674   6.653   0.718  2.3545 -0.9692 -2.4398
 8318TIP3    H246370   6.739   6.560   0.818 -0.1797 -0.8887 -0.6131
 8319TIP3   OH246371   5.935   2.006  11.912  0.1175  0.2895  0.2794
 8319TIP3    H146372   5.956   2.008  12.006  0.5162  1.4552  0.1786
 8319TIP3    H246373   5.966   1.920  11.883 -1.0238 -0.5456  1.4227
 8320TIP3   OH246374   1.213   0.376   4.404  0.4473  0.2279  0.0674
 8320TIP3    H146375   1.305   0.360   4.380  0.6126  0.1992  0.6844
 8320TIP3    H246376   1.208   0.349   4.496 -0.5842 -1.3749 -0.4147
 8321TIP3   OH246377   2.644   2.277   6.289  0.5153  0.3562  0.0436
 8321TIP3    H146378   2.739   2.283   6.296  0.6265 -1.1074  0.0770
 8321TIP3    H246379   2.629   2.210   6.223 -0.5038  1.1307 -0.5341
 8322TIP3   OH246380   2.937   6.193  11.764 -0.4039  0.2103 -0.6682
 8322TIP3    H146381   3.008   6.255  11.746  0.5792  0.2520  2.6876
 8322TIP3    H246382   2.866   6.248  11.798 -0.2728 -0.2817  0.4228
 8323TIP3   OH246383   2.709   1.966  16.816 -0.3570  0.5223 -0.2572
 8323TIP3    H146384   2.618   1.972  16.846 -0.5321  0.2844 -0.7279
 8323TIP3    H246385   2.706   1.993  16.725  0.1831  1.3071 -0.0559
 8324TIP3   OH246386   3.430   0.470   4.893  0.0818 -0.0771 -0.0131
 8324TIP3    H146387   3.375   0.520   4.954 -0.2305  1.1318 -1.2392
 8324TIP3    H246388   3.518   0.505   4.905  0.2832 -0.7731  0.6664
 8325TIP3   OH246389   0.901   3.036   3.299  0.5462  0.7150 -0.2175
 8325TIP3    H146390   0.949   2.955   3.315  0.2315  0.5084 -0.3307
 8325TIP3    H246391   0.958   3.104   3.335  1.0944  0.5040 -0.6544
 8326TIP3   OH246392   3.967   1.729   0.893  0.2373  0.1281  0.4995
 8326TIP3    H146393   3.881   1.756   0.924  1.3108  1.9048  2.1475
 8326TIP3    H246394   3.976   1.770   0.807 -0.7828 -0.6214  0.0192
 8327TIP3   OH246395   1.598   6.418  15.980  0.2180  0.1727 -0.3891
 8327TIP3    H146396   1.655   6.466  15.920 -0.7007  1.2026 -0.4736
 8327TIP3    H246397   1.571   6.483  16.045  0.5956 -0.7465  0.7171
 8328TIP3   OH246398   1.238   4.650   4.743 -0.3275  1.1217  0.3518
 8328TIP3    H146399   1.145   4.648   4.719  0.1801 -0.1880 -1.7534
 8328TIP3    H246400   1.283   4.676   4.663  1.2601 -0.4019  0.6803
 8329TIP3   OH246401   5.437   0.221  15.582  0.4333  0.1427  0.4835
 8329TIP3    H146402   5.483   0.142  15.608 -0.5241 -0.8810 -0.7680
 8329TIP3    H246403   5.358   0.189  15.538  1.7432  1.6323 -3.4086
 8330TIP3   OH246404   1.823   5.069  12.326  0.1564 -0.3667  0.3046
 8330TIP3    H146405   1.733   5.079  12.296 -0.9535 -0.8256  3.1115
 8330TIP3    H246406   1.874   5.131  12.273 -1.7398 -0.2438 -1.4940
 8331TIP3   OH246407   6.547   1.464  14.400 -0.5388 -0.2163 -0.0037
 8331TIP3    H146408   6.595   1.449  14.481  0.5502  1.6503 -0.2316
 8331TIP3    H246409   6.459   1.489  14.427 -0.3801 -0.2722  0.5627
 8332TIP3   OH246410   1.396   0.886   4.878 -0.0797 -0.4219 -0.4666
 8332TIP3    H146411   1.392   0.797   4.915 -1.2555  0.1572  0.9184
 8332TIP3    H246412   1.436   0.874   4.792 -0.7833 -2.3888 -0.5895
 8333TIP3   OH246413   1.357   3.282   4.521 -0.0726 -0.0385  0.5574
 8333TIP3    H146414   1.330   3.300   4.431  2.8351 -0.7456 -0.5761
 8333TIP3    H246415   1.359   3.368   4.564 -1.2886  0.3302 -0.0830
 8334TIP3   OH246416   4.856   0.641   3.996 -0.0691 -0.1488 -0.2649
 8334TIP3    H146417   4.913   0.568   3.969  0.2712 -0.0662  0.2235
 8334TIP3    H246418   4.849   0.632   4.091  1.1828  1.3259  0.0016
 8335TIP3   OH246419   5.253   0.109   0.611 -0.2683  0.3239  0.0749
 8335TIP3    H146420   5.159   0.114   0.627 -0.3658 -4.0330  2.3817
 8335TIP3    H246421   5.293   0.133   0.694  0.5306 -0.3699 -0.1036
 8336TIP3   OH246422   4.501   4.536   4.886 -0.7846  0.2495  0.6335
 8336TIP3    H146423   4.588   4.533   4.927 -0.6930 -1.4069  0.4100
 8336TIP3    H246424   4.471   4.625   4.900  1.9016  1.5954 -1.2606
 8337TIP3   OH246425   4.506   5.164  13.767 -0.2315 -0.0928  0.0150
 8337TIP3    H146426   4.519   5.085  13.715  0.9348 -0.0415  0.1889
 8337TIP3    H246427   4.594   5.203  13.773 -0.5400  0.4803  1.0853
 8338TIP3   OH246428   5.147   3.073   0.276  0.0966  0.1216  0.4516
 8338TIP3    H146429   5.148   3.154   0.225 -2.4816  0.7806  1.2897
 8338TIP3    H246430   5.137   3.004   0.211  3.2680  0.2698 -0.3634
 8339TIP3   OH246431   4.557   4.350   4.692 -0.1471 -0.5568 -0.5977
 8339TIP3    H146432   4.590   4.439   4.685 -0.2479 -0.5868 -1.7513
 8339TIP3    H246433   4.523   4.343   4.781 -1.8107  1.1549 -1.0195
 8340TIP3   OH246434   0.051   4.627  14.163  0.0018  0.0046 -0.2703
 8340TIP3    H146435  -0.013   4.668  14.221 -1.0248  0.5051 -1.6900
 8340TIP3    H246436   0.001   4.603  14.085  1.6627  1.1630 -1.7908
 8341TIP3   OH246437   3.477   4.768  17.077  0.2923  0.2877 -0.2889
 8341TIP3    H146438   3.463   4.715  16.999 -1.6526 -0.8252  0.7121
 8341TIP3    H246439   3.440   4.854  17.055  1.0944  0.4477 -1.0584
 8342TIP3   OH246440   1.535   5.545  12.622  0.5195  0.2325 -0.2915
 8342TIP3    H146441   1.570   5.584  12.541  0.8956  1.3869  0.4046
 8342TIP3    H246442   1.543   5.451  12.609  2.7847  0.4359 -0.6464
 8343TIP3   OH246443   0.428   6.752   4.762 -0.2073 -0.0704  0.5399
 8343TIP3    H146444   0.506   6.807   4.765 -0.6487  0.5299  2.1102
 8343TIP3    H246445   0.459   6.667   4.731  1.2504 -0.1117  1.9788
 8344TIP3   OH246446   0.737   2.573   1.192  0.2866 -0.0006  0.0313
 8344TIP3    H146447   0.785   2.505   1.239  1.8517  1.9420  1.4639
 8344TIP3    H246448   0.790   2.589   1.114  0.4055  0.1525  0.1415
 8345TIP3   OH246449   1.921   3.318  16.947 -0.1294  0.6743 -0.2316
 8345TIP3    H146450   1.859   3.345  16.878 -0.5907 -1.0279 -0.5220
 8345TIP3    H246451   2.007   3.342  16.912 -0.3748  0.0277 -1.3196
 8346TIP3   OH246452   2.157   5.929   5.429 -0.3843  1.0581  0.5403
 8346TIP3    H146453   2.061   5.936   5.436 -1.0685 -1.8277 -2.8652
 8346TIP3    H246454   2.180   5.860   5.491 -1.2346 -0.9952 -1.2901
 8347TIP3   OH246455   5.014   4.150   5.534  0.5313 -0.0579  0.0286
 8347TIP3    H146456   5.041   4.215   5.470  2.2732 -1.5520 -0.8269
 8347TIP3    H246457   5.078   4.157   5.605 -0.3640  0.3774  0.8356
 8348TIP3   OH246458   3.806   2.638  14.793  0.2424 -0.1418 -1.0728
 8348TIP3    H146459   3.866   2.708  14.767 -0.4528  0.1993 -1.7940
 8348TIP3    H246460   3.734   2.683  14.836  0.0953 -0.4714 -0.9704
 8349TIP3   OH246461   1.067   5.829   5.463 -0.4164 -0.0427 -0.5786
 8349TIP3    H146462   1.138   5.817   5.526 -1.5767  1.2101  1.0517
 8349TIP3    H246463   0.987   5.827   5.515 -1.5311 -0.2534 -2.2033
 8350TIP3   OH246464   1.588   1.251  11.168 -0.3455  0.3396 -0.8344
 8350TIP3    H146465   1.503   1.296  11.169 -0.2758  0.5889  1.5407
 8350TIP3    H246466   1.568   1.162  11.141 -1.3080  0.5158 -0.7469
 8351TIP3   OH246467   3.904   1.802  16.177  0.7762  0.3958  0.2586
 8351TIP3    H146468   3.936   1.712  16.180 -0.1557  0.0562  0.5427
 8351TIP3    H246469   3.809   1.793  16.178  0.6706  1.4001  1.1206
 8352TIP3   OH246470   5.802   3.226  16.379  0.6825  0.6802  0.2951
 8352TIP3    H146471   5.801   3.143  16.331 -1.2324  0.0889  1.2775
 8352TIP3    H246472   5.710   3.250  16.387  1.1670  2.5610  0.6577
 8353TIP3   OH246473   1.844   2.481  16.057 -0.4468  0.1176  0.1720
 8353TIP3    H146474   1.904   2.514  16.125 -0.6021 -1.7563  1.2888
 8353TIP3    H246475   1.760   2.474  16.101 -0.5664 -1.0808 -0.2262
 8354TIP3   OH246476   2.155   5.684   2.418 -0.2242  0.3951 -0.3713
 8354TIP3    H146477   2.187   5.594   2.418 -0.6631  0.2355 -0.6944
 8354TIP3    H246478   2.161   5.711   2.510 -2.5208 -0.8621  0.2413
 8355TIP3   OH246479   6.366   0.996  13.209  0.0957 -0.0871  0.2680
 8355TIP3    H146480   6.352   1.015  13.116 -1.3335  1.6186  0.7867
 8355TIP3    H246481   6.287   1.027  13.253  1.1832  0.1795  2.1861
 8356TIP3   OH246482   5.466   0.220  16.774 -0.2736 -0.3170  0.3546
 8356TIP3    H146483   5.494   0.178  16.856  2.0890 -0.9764 -0.6934
 8356TIP3    H246484   5.522   0.181  16.707 -1.6886  0.6757 -1.5152
 8357TIP3   OH246485   0.204   1.196  16.957  0.4086  0.3394  0.2292
 8357TIP3    H146486   0.158   1.115  16.935 -1.5546  1.2479  0.8745
 8357TIP3    H246487   0.297   1.170  16.959 -0.2244 -2.0911  1.3195
 8358TIP3   OH246488   0.948   0.311  13.948  0.0465 -0.5751 -0.5500
 8358TIP3    H146489   1.011   0.289  14.016 -2.7792 -1.5984  1.9607
 8358TIP3    H246490   0.972   0.399  13.920  1.7685 -0.4085  1.2418
 8359TIP3   OH246491   4.538   1.603  12.623 -0.0014  0.9881  0.0802
 8359TIP3    H146492   4.470   1.594  12.689 -1.2312 -2.2620 -1.4211
 8359TIP3    H246493   4.618   1.574  12.667 -0.8101 -1.1760  0.2055
 8360TIP3   OH246494   5.506   6.003   0.678  0.3025  0.7751 -0.0483
 8360TIP3    H146495   5.545   5.990   0.764  0.2690 -0.4212 -0.1914
 8360TIP3    H246496   5.576   6.041   0.625  0.6464  0.5465  0.2364
 8361TIP3   OH246497   1.115   3.380  15.017  0.9086 -0.7249  0.1968
 8361TIP3    H146498   1.091   3.396  14.926  0.0630 -0.3817  0.4682
 8361TIP3    H246499   1.141   3.465  15.051 -0.3140 -0.5393  0.7064
 8362TIP3   OH246500   5.609   5.307   4.690 -0.0434 -0.3013  0.2484
 8362TIP3    H146501   5.685   5.249   4.688  1.0836  1.1102  0.5922
 8362TIP3    H246502   5.578   5.309   4.599  0.7664 -0.3608 -0.0430
 8363TIP3   OH246503   0.995   0.452  11.760 -0.3698 -0.3513 -0.6457
 8363TIP3    H146504   0.917   0.401  11.740 -1.2826  1.5505 -2.3510
 8363TIP3    H246505   1.024   0.485  11.675  0.7594  1.1200  0.2567
 8364TIP3   OH246506   6.770   4.935   1.038 -0.0527  0.4700 -0.2376
 8364TIP3    H146507   6.842   4.926   0.975  0.7077  1.3642  0.4787
 8364TIP3    H246508   6.798   4.883   1.114 -1.2980 -1.2240 -0.8710
 8365TIP3   OH246509   3.986   2.873   4.767  0.8971 -0.7742  0.0163
 8365TIP3    H146510   3.958   2.815   4.837 -3.0223  0.2272 -0.4505
 8365TIP3    H246511   3.996   2.816   4.691  1.7644 -1.4237  0.6135
 8366TIP3   OH246512   5.220   3.737  12.565  0.4194 -0.2399 -0.8020
 8366TIP3    H146513   5.298   3.707  12.518  0.5714  1.8096 -1.9571
 8366TIP3    H246514   5.240   3.719  12.657  1.9997 -0.3459 -1.1264
 8367TIP3   OH246515   4.506   4.476   5.236 -1.0372 -0.4202 -0.1937
 8367TIP3    H146516   4.519   4.565   5.268  0.9821 -0.8134  0.2413
 8367TIP3    H246517   4.521   4.482   5.142 -2.1689 -0.1028 -0.3662
 8368TIP3   OH246518   5.883   0.815  17.110  0.3306  0.1082  0.5639
 8368TIP3    H146519   5.954   0.765  17.071 -1.2636 -0.6776 -1.5533
 8368TIP3    H246520   5.867   0.886  17.047 -1.9579 -0.8697 -0.0694
 8369TIP3   OH246521   5.500   5.760  12.763 -0.5873 -0.0205 -0.2254
 8369TIP3    H146522   5.419   5.748  12.812 -1.4251 -0.4950 -1.6780
 8369TIP3    H246523   5.472   5.794  12.678  0.7329 -0.1947 -0.7576
 8370TIP3   OH246524   3.461   0.051   4.815 -0.7095  0.2948 -0.0130
 8370TIP3    H146525   3.390   0.053   4.752  0.5565  0.8059 -1.4821
 8370TIP3    H246526   3.487  -0.041   4.820 -0.6210  0.2910 -0.4861
 8371TIP3   OH246527   0.620   4.366  12.930 -0.0275 -0.0831  0.2987
 8371TIP3    H146528   0.579   4.397  12.849 -0.2446  0.9011  0.7692
 8371TIP3    H246529   0.710   4.400  12.926  0.2474 -0.8142  0.0522
 8372TIP3   OH246530   1.052   1.567   3.450 -0.0166  0.3620  0.6575
 8372TIP3    H146531   0.966   1.610   3.452 -0.4236 -0.3889 -0.0493
 8372TIP3    H246532   1.100   1.612   3.381 -1.1994 -1.6372 -1.5953
 8373TIP3   OH246533   1.804   2.704   1.043  0.2795  0.3088  0.1764
 8373TIP3    H146534   1.720   2.686   1.087  0.4334 -1.7721 -0.2519
 8373TIP3    H246535   1.870   2.685   1.109  0.4653 -1.3154 -0.4283
 8374TIP3   OH246536   5.542   5.700  10.908 -0.1469  0.2825  0.3823
 8374TIP3    H146537   5.469   5.671  10.962  0.9772 -0.4485  1.5698
 8374TIP3    H246538   5.589   5.619  10.885  1.0493  0.8321  0.7866
 8375TIP3   OH246539   1.283   2.839   1.327  0.5752  0.3882 -0.0673
 8375TIP3    H146540   1.375   2.827   1.304  0.3035 -0.2398 -0.8983
 8375TIP3    H246541   1.235   2.817   1.246 -0.2984  0.7072  0.3507
 8376TIP3   OH246542   1.086   0.885   2.998  0.0963 -0.0848 -0.0790
 8376TIP3    H146543   1.030   0.807   3.000  0.2639 -0.2139 -0.4797
 8376TIP3    H246544   1.150   0.868   2.929  0.2284  0.3428 -0.0659
 8377TIP3   OH246545   6.291   0.454   2.840 -0.4998  0.0555  0.4182
 8377TIP3    H146546   6.274   0.520   2.907 -1.7426  0.8716 -0.6543
 8377TIP3    H246547   6.216   0.394   2.845 -0.0712 -0.4940  0.4513
 8378TIP3   OH246548   4.589   3.493  15.310  0.6797 -0.6629 -0.8426
 8378TIP3    H146549   4.642   3.571  15.329 -0.9451  0.5073 -0.9522
 8378TIP3    H246550   4.615   3.430  15.377  0.7531  0.5948  0.3568
 8379TIP3   OH246551   0.360   0.714   1.657  0.3668  0.0611 -0.4433
 8379TIP3    H146552   0.273   0.699   1.694 -0.0640  1.6193 -0.7659
 8379TIP3    H246553   0.417   0.653   1.705 -1.1339 -2.2292 -1.3873
 8380TIP3   OH246554   4.349   2.905  12.413 -0.3008  0.5424 -0.5577
 8380TIP3    H146555   4.277   2.848  12.440  0.2465 -0.6462 -1.4948
 8380TIP3    H246556   4.427   2.850  12.422  0.5839  1.9437  0.8733
 8381TIP3   OH246557   5.583   1.230  12.218  0.2934  0.1099  0.4407
 8381TIP3    H146558   5.616   1.200  12.303 -1.8978 -0.1970  1.2637
 8381TIP3    H246559   5.525   1.160  12.189  1.3396  0.0012 -1.5781
 8382TIP3   OH246560   1.579   0.366   0.243 -0.6267 -0.2061  0.3228
 8382TIP3    H146561   1.544   0.429   0.306  1.4084  0.9544  0.3962
 8382TIP3    H246562   1.519   0.291   0.247 -2.7368  1.4257  0.7356
 8383TIP3   OH246563   5.789   5.234   2.060 -0.0302 -0.5377  0.1271
 8383TIP3    H146564   5.723   5.175   2.097  0.6530 -1.2601  0.2411
 8383TIP3    H246565   5.842   5.261   2.135  0.7781 -1.2514 -0.1628
 8384TIP3   OH246566   4.072   1.744  11.648  0.4475  0.3065 -0.0313
 8384TIP3    H146567   4.105   1.665  11.690  1.1295  1.1174  0.9898
 8384TIP3    H246568   4.144   1.806  11.653 -0.4145  1.3315  0.0746
 8385TIP3   OH246569   4.849   2.665   0.515 -0.2359  0.2145  0.4809
 8385TIP3    H146570   4.764   2.698   0.542 -0.4272 -0.5102  0.7786
 8385TIP3    H246571   4.874   2.721   0.441 -0.2700  1.4073  1.3494
 8386TIP3   OH246572   4.294   3.353  16.998  0.0172 -0.0262  0.5026
 8386TIP3    H146573   4.304   3.416  16.927  0.1129  0.4864  0.9688
 8386TIP3    H246574   4.367   3.292  16.986 -0.7490 -0.7689 -0.6599
 8387TIP3   OH246575   5.724   4.586  12.899 -0.3461 -0.5013 -1.2193
 8387TIP3    H146576   5.790   4.599  12.967 -4.7767  1.3281  3.4088
 8387TIP3    H246577   5.715   4.671  12.857  1.7680 -1.4067 -3.7350
 8388TIP3   OH246578   3.372   6.474   2.351 -0.0020 -0.1583 -0.5777
 8388TIP3    H146579   3.438   6.531   2.389 -1.5889  0.7008  1.0476
 8388TIP3    H246580   3.354   6.409   2.419  0.0621 -1.1484 -1.4852
 8389TIP3   OH246581   3.658   0.881  13.565  0.7418 -0.3137  0.2372
 8389TIP3    H146582   3.741   0.836  13.544  0.8429  0.4843 -1.1930
 8389TIP3    H246583   3.620   0.901  13.480  0.0022  1.0322  0.8568
 8390TIP3   OH246584   0.854   4.516   6.254  0.2469  0.1754 -0.1677
 8390TIP3    H146585   0.766   4.500   6.220  0.3324  1.0224 -0.8146
 8390TIP3    H246586   0.904   4.544   6.178  1.0339 -0.1163  0.2323
 8391TIP3   OH246587   0.957   5.105  15.765 -0.0806 -0.0040  0.0678
 8391TIP3    H146588   1.021   5.174  15.782 -0.2918  0.3413 -0.4970
 8391TIP3    H246589   0.881   5.130  15.817  0.0262 -0.0783  0.2569
 8392TIP3   OH246590   6.631   1.382  16.352 -0.1193 -0.3557 -0.4645
 8392TIP3    H146591   6.678   1.300  16.338  0.6097 -0.0767  0.2536
 8392TIP3    H246592   6.682   1.447  16.304  0.4865  0.0164  0.6313
 8393TIP3   OH246593   5.228   5.827   0.310 -0.1939  0.0544 -0.3105
 8393TIP3    H146594   5.245   5.895   0.375 -0.6633 -0.2409  0.1304
 8393TIP3    H246595   5.161   5.864   0.253 -0.6906 -0.1578  0.1281
 8394TIP3   OH246596   6.593   1.653  12.586 -0.7145  0.2300  0.4374
 8394TIP3    H146597   6.620   1.564  12.564 -0.8668  0.5439 -1.1273
 8394TIP3    H246598   6.501   1.657  12.560 -0.8632  0.6949  1.0074
 8395TIP3   OH246599   5.778   2.911   3.101 -0.1883  0.0906  0.4279
 8395TIP3    H146600   5.728   2.930   3.022  1.1638 -1.2732 -0.8408
 8395TIP3    H246601   5.733   2.837   3.142 -0.7783  0.6719  0.8406
 8396TIP3   OH246602   6.605   0.325   1.488 -0.0927  0.7001  0.5203
 8396TIP3    H146603   6.572   0.282   1.567 -0.4279  0.0683  0.0511
 8396TIP3    H246604   6.614   0.253   1.425  0.2364  1.1864  0.0111
 8397TIP3   OH246605   5.332   1.807  15.967  0.2315 -0.0826  0.1419
 8397TIP3    H146606   5.347   1.713  15.975 -0.8038 -0.2360  0.4642
 8397TIP3    H246607   5.237   1.818  15.981  0.3936  1.0410  0.5254
 8398TIP3   OH246608   4.827   3.835  13.310 -0.3120  0.1271  0.1282
 8398TIP3    H146609   4.789   3.814  13.396  0.3042  1.8240  0.8579
 8398TIP3    H246610   4.915   3.799  13.314 -0.6249 -0.7065 -0.2146
 8399TIP3   OH246611   4.763   3.333  11.727  0.3093  0.2489  0.1158
 8399TIP3    H146612   4.822   3.372  11.791  0.5496 -2.0384  1.3826
 8399TIP3    H246613   4.791   3.370  11.643  1.6502  1.3754  1.0144
 8400TIP3   OH246614   4.932   2.312   1.741 -0.3777  0.2234 -0.0154
 8400TIP3    H146615   4.890   2.313   1.655  0.8716  1.7818 -0.6546
 8400TIP3    H246616   4.869   2.356   1.799 -0.2132  1.3963 -0.6874
 8401TIP3   OH246617   5.521   6.252  14.702  0.5551  0.0337  0.8673
 8401TIP3    H146618   5.571   6.199  14.764 -1.7449 -1.2198  1.7378
 8401TIP3    H246619   5.431   6.223  14.711 -0.4297  2.3328 -0.5141
 8402TIP3   OH246620   0.082   0.919   3.342  0.2923 -0.1767  0.3176
 8402TIP3    H146621  -0.009   0.893   3.352  0.3346 -0.4235  0.0825
 8402TIP3    H246622   0.095   0.926   3.247  0.7664 -1.0664  0.3030
 8403TIP3   OH246623   5.001   4.737   2.423  0.4580  0.4201  0.2595
 8403TIP3    H146624   4.906   4.752   2.425  0.5742  1.1372  0.7576
 8403TIP3    H246625   5.022   4.730   2.330 -0.1378 -0.1146  0.1589
 8404TIP3   OH246626   1.061   1.084   1.802  0.0546 -0.1024  0.1650
 8404TIP3    H146627   1.103   1.130   1.874  0.2696 -1.2525  0.8069
 8404TIP3    H246628   0.968   1.082   1.824  0.1296 -0.5140  0.4551
 8405TIP3   OH246629   0.727   3.732   3.235 -0.0113 -0.4177 -0.2490
 8405TIP3    H146630   0.700   3.819   3.263  2.4166  0.3712 -0.0918
 8405TIP3    H246631   0.646   3.687   3.211 -1.2834  2.0363 -0.8144
 8406TIP3   OH246632   5.279   4.273   6.101  0.1624  0.6981  0.2070
 8406TIP3    H146633   5.295   4.233   6.186 -0.2170 -0.5739 -0.2950
 8406TIP3    H246634   5.187   4.252   6.082  0.0476  1.5457 -0.2170
 8407TIP3   OH246635   1.917   4.281  15.140 -0.1014 -0.4183  0.6946
 8407TIP3    H146636   1.947   4.368  15.167 -1.7540  1.2224 -2.3034
 8407TIP3    H246637   1.822   4.284  15.150 -0.4167 -0.9996 -1.5559
 8408TIP3   OH246638   2.232   1.058   3.648  0.0061  0.3432 -0.6942
 8408TIP3    H146639   2.283   0.978   3.666 -1.5199 -0.3296  0.8110
 8408TIP3    H246640   2.239   1.068   3.553  1.2446 -0.8743 -0.7789
 8409TIP3   OH246641   4.164   0.828   5.824 -0.4350 -0.4903 -0.0197
 8409TIP3    H146642   4.192   0.873   5.903  1.8245  1.2144 -1.6354
 8409TIP3    H246643   4.175   0.735   5.844  0.4643 -0.0882  1.5363
 8410TIP3   OH246644   2.528   1.651  11.128 -0.4265  0.1079 -0.1027
 8410TIP3    H146645   2.582   1.631  11.052 -0.2195 -1.5979  0.4483
 8410TIP3    H246646   2.562   1.735  11.160  2.4139 -1.1931  0.6250
 8411TIP3   OH246647   0.192   5.496   1.539 -0.1152 -0.3402 -0.8537
 8411TIP3    H146648   0.113   5.446   1.520  0.6228 -1.3802 -1.2454
 8411TIP3    H246649   0.164   5.562   1.602 -0.6455 -2.7149  1.5600
 8412TIP3   OH246650   1.967   5.526   3.076 -0.5038  0.1927 -0.6881
 8412TIP3    H146651   2.054   5.514   3.039 -0.7639 -0.3925 -1.1208
 8412TIP3    H246652   1.970   5.482   3.161  0.2213  1.8898  0.2321
 8413TIP3   OH246653   5.475   4.822   5.561 -0.1578  0.4681 -0.3127
 8413TIP3    H146654   5.498   4.748   5.617 -1.1031 -0.3851 -1.0087
 8413TIP3    H246655   5.462   4.783   5.475 -0.3462  1.5051 -0.7589
 8414TIP3   OH246656   4.122   3.689   2.131  0.3329 -0.1975  0.2058
 8414TIP3    H146657   4.176   3.765   2.107 -1.8359  1.1578 -0.7143
 8414TIP3    H246658   4.175   3.613   2.110  1.6586  1.0623 -1.2069
 8415TIP3   OH246659   2.497   2.407   4.629 -0.7449 -0.0368 -0.3528
 8415TIP3    H146660   2.470   2.495   4.604  0.2808  0.2872 -0.3460
 8415TIP3    H246661   2.468   2.352   4.556 -0.7872  0.4030 -0.6712
 8416TIP3   OH246662   5.707   1.875   3.573 -0.5133  0.3653 -0.4497
 8416TIP3    H146663   5.626   1.839   3.608  0.7205 -1.5801  0.5601
 8416TIP3    H246664   5.709   1.845   3.482  0.3136 -1.9684  0.2708
 8417TIP3   OH246665   3.232   5.014  15.119  0.1726  0.0646 -0.7668
 8417TIP3    H146666   3.237   5.101  15.078  0.2254 -0.0402 -0.9858
 8417TIP3    H246667   3.198   5.031  15.207 -0.5773  0.2176 -1.0829
 8418TIP3   OH246668   4.926   0.917  10.737  0.1812 -0.2893 -1.3636
 8418TIP3    H146669   4.909   1.011  10.733 -0.1529 -0.3374 -1.1319
 8418TIP3    H246670   5.021   0.910  10.737  0.2201  0.0987 -0.5816
 8419TIP3   OH246671   0.610   2.067   1.332  0.6662  0.2525  0.0082
 8419TIP3    H146672   0.668   2.021   1.271 -0.0512 -0.8736  0.1367
 8419TIP3    H246673   0.667   2.129   1.377  2.4361 -2.6670  2.1158
 8420TIP3   OH246674   1.882   6.244   5.325 -0.1984 -0.4577 -0.0475
 8420TIP3    H146675   1.875   6.178   5.256 -1.6420 -0.4026  0.0183
 8420TIP3    H246676   1.958   6.296   5.300  1.1392 -2.2765  0.0453
 8421TIP3   OH246677   6.209   0.415  13.390 -0.0568 -0.0383 -0.2970
 8421TIP3    H146678   6.186   0.399  13.481 -1.8453  1.7896 -0.3712
 8421TIP3    H246679   6.286   0.473  13.394 -0.7900  0.9335  0.0996
 8422TIP3   OH246680   0.047   1.409   3.971  0.1492  0.4652  0.5248
 8422TIP3    H146681   0.134   1.427   3.934  0.8934 -1.5933  1.1269
 8422TIP3    H246682   0.007   1.348   3.910 -0.1240 -0.0321  1.1869
 8423TIP3   OH246683   3.670   0.456   5.459  0.4313  0.0224 -0.1851
 8423TIP3    H146684   3.764   0.448   5.474  0.2505 -1.8849  0.0886
 8423TIP3    H246685   3.653   0.550   5.465  1.6930  0.1781  3.4975
 8424TIP3   OH246686   5.547   5.801  12.003 -0.0992 -0.2181 -0.6432
 8424TIP3    H146687   5.455   5.776  12.016 -0.4278  0.4127 -1.5999
 8424TIP3    H246688   5.549   5.895  12.022  0.4035 -0.2837 -0.3650
 8425TIP3   OH246689   2.325   0.412  11.606  0.1581  0.1582  0.9799
 8425TIP3    H146690   2.417   0.388  11.604  0.2510  0.5025  1.2198
 8425TIP3    H246691   2.286   0.361  11.534  0.2592 -1.1113  1.7974
 8426TIP3   OH246692   3.423   1.588   5.345 -0.7645 -0.0021  0.0615
 8426TIP3    H146693   3.345   1.535   5.327 -0.8510  0.1642 -0.0506
 8426TIP3    H246694   3.409   1.622   5.434 -0.6524 -0.2661  0.1811
 8427TIP3   OH246695   4.265   4.139   4.354  0.2562 -0.1475 -0.0447
 8427TIP3    H146696   4.353   4.177   4.361  0.4455 -0.0863 -2.0951
 8427TIP3    H246697   4.227   4.150   4.441  2.1881  0.0334  0.8382
 8428TIP3   OH246698   1.062   4.956  11.643  0.6660  0.3395  0.1404
 8428TIP3    H146699   1.023   4.914  11.719  0.7749  1.5180  0.8746
 8428TIP3    H246700   1.153   4.928  11.644  0.3096 -0.9440 -0.5200
 8429TIP3   OH246701   2.244   2.128   4.230 -0.6400 -0.2124  0.2018
 8429TIP3    H146702   2.304   2.073   4.180  0.1547 -0.5160  1.4168
 8429TIP3    H246703   2.299   2.163   4.301 -1.5734  0.6782  0.5018
 8430TIP3   OH246704   2.419   6.730  11.440 -0.5638  0.5421  1.0965
 8430TIP3    H146705   2.459   6.791  11.378 -1.9447  0.1189 -0.2706
 8430TIP3    H246706   2.418   6.778  11.523 -2.4333  2.8217 -0.1161
 8431TIP3   OH246707   1.882   2.866   3.605 -0.0046 -0.3696  0.1306
 8431TIP3    H146708   1.789   2.858   3.624  0.0628 -0.6534  0.3401
 8431TIP3    H246709   1.891   2.952   3.564 -0.2149  0.0725  1.0021
 8432TIP3   OH246710   4.507   2.447  11.326 -0.1711  0.1744  0.7836
 8432TIP3    H146711   4.547   2.476  11.244  1.3734  0.4531  1.5866
 8432TIP3    H246712   4.497   2.526  11.378 -1.0379 -0.0124  0.9105
 8433TIP3   OH246713   2.706   5.464  11.081  0.0793 -0.1303  0.1941
 8433TIP3    H146714   2.763   5.498  11.011 -0.5475  0.1623 -0.1781
 8433TIP3    H246715   2.618   5.491  11.055 -0.0535  0.8652  1.6018
 8434TIP3   OH246716   6.274   4.638  15.178  0.1803 -0.3017  0.0627
 8434TIP3    H146717   6.274   4.719  15.228  0.6481  0.0065 -0.4204
 8434TIP3    H246718   6.361   4.601  15.192 -0.3473 -1.2240  1.0575
 8435TIP3   OH246719   3.192   6.176  12.074 -0.2622 -0.4664  0.7474
 8435TIP3    H146720   3.209   6.127  11.993  0.6951 -0.5544  0.9913
 8435TIP3    H246721   3.192   6.268  12.047 -1.4179 -0.5456  0.4042
 8436TIP3   OH246722   5.483   3.177  13.809 -0.2797  0.2624  0.1772
 8436TIP3    H146723   5.455   3.268  13.814 -0.8965  0.0479  0.6946
 8436TIP3    H246724   5.404   3.128  13.788 -0.3903 -0.3838  1.9611
 8437TIP3   OH246725   4.206   0.211   0.405 -0.0454  0.2406  0.4629
 8437TIP3    H146726   4.137   0.252   0.456 -2.3936  0.2079 -2.4223
 8437TIP3    H246727   4.214   0.265   0.326  1.6042 -1.0520 -0.3292
 8438TIP3   OH246728   0.361   4.265  12.810  0.1789 -0.2950  0.7945
 8438TIP3    H146729   0.416   4.192  12.784 -0.5819 -0.6188  0.0357
 8438TIP3    H246730   0.286   4.224  12.854  0.6810  0.1537  2.1078
 8439TIP3   OH246731   3.541   3.649  16.853  0.0449  0.2423  0.1585
 8439TIP3    H146732   3.446   3.639  16.860 -0.1472 -0.3604 -2.1611
 8439TIP3    H246733   3.577   3.581  16.910 -1.0016 -1.0056 -0.5954
 8440TIP3   OH246734   5.779   1.339   4.986 -0.3073 -0.0454 -0.4939
 8440TIP3    H146735   5.837   1.290   5.045 -0.9473 -1.3160 -0.8857
 8440TIP3    H246736   5.780   1.289   4.905 -1.8763 -0.0332 -0.5479
 8441TIP3   OH246737   6.383   4.225   1.568  0.1534 -0.3696  0.2038
 8441TIP3    H146738   6.420   4.259   1.650 -1.8604  0.6269  0.7523
 8441TIP3    H246739   6.442   4.260   1.500 -1.0801  3.4292  0.8192
 8442TIP3   OH246740   3.336   1.995  15.920  0.5057 -0.4195 -0.1854
 8442TIP3    H146741   3.292   2.080  15.909 -0.5312 -0.6622  1.6567
 8442TIP3    H246742   3.420   2.006  15.876 -0.4397  0.8512 -1.8042
 8443TIP3   OH246743   4.455   5.358   2.509 -0.7919 -0.1087  0.1614
 8443TIP3    H146744   4.406   5.436   2.485 -1.5628 -0.6162  0.0594
 8443TIP3    H246745   4.537   5.365   2.459 -0.5623  0.9524  0.6590
 8444TIP3   OH246746   4.052   3.233  13.641 -0.5965 -0.6778 -0.6370
 8444TIP3    H146747   4.128   3.240  13.583  0.5939  1.7433  0.9898
 8444TIP3    H246748   4.073   3.160  13.699  1.1130  0.5976  0.4624
 8445TIP3   OH246749   3.430   6.560   3.036 -0.3477  0.2366  0.4226
 8445TIP3    H146750   3.417   6.469   3.007  0.8274  0.2621 -0.2224
 8445TIP3    H246751   3.525   6.569   3.044 -0.4773  1.3085  0.8351
 8446TIP3   OH246752   2.405   5.812   3.282 -0.1403  0.2456 -0.0949
 8446TIP3    H146753   2.360   5.833   3.363  2.6825 -1.1842  2.0429
 8446TIP3    H246754   2.443   5.895   3.252 -0.8305  0.7033  0.3038
 8447TIP3   OH246755   6.589   6.655   0.560  0.0081 -0.2258  0.0233
 8447TIP3    H146756   6.653   6.630   0.493 -0.7109  1.4966 -1.4055
 8447TIP3    H246757   6.506   6.620   0.528 -0.3746  0.7754 -0.1380
 8448TIP3   OH246758   0.974   3.697  12.841  0.5323  0.2656  0.1120
 8448TIP3    H146759   1.046   3.646  12.878  0.1973 -0.7882 -0.6556
 8448TIP3    H246760   1.006   3.788  12.845  2.2766 -0.2443 -0.9781
 8449TIP3   OH246761   3.701   1.880  13.690 -0.0544 -0.2880 -0.0653
 8449TIP3    H146762   3.645   1.917  13.623  0.5878  0.3723 -0.2503
 8449TIP3    H246763   3.697   1.785  13.676 -0.1113 -0.1641 -0.8874
 8450TIP3   OH246764   5.977   1.231  15.052 -0.1161  0.3362 -0.5415
 8450TIP3    H146765   5.940   1.179  15.123  0.3183  0.6181 -0.1044
 8450TIP3    H246766   5.903   1.247  14.993 -0.7409  1.0336  0.4018
 8451TIP3   OH246767   1.926   4.713   6.530  0.0195  0.2452 -0.0137
 8451TIP3    H146768   1.860   4.707   6.461  1.0425 -0.3507 -0.9784
 8451TIP3    H246769   1.981   4.787   6.505 -0.5067  1.0227  1.0232
 8452TIP3   OH246770   1.915   5.508  15.066 -0.0999 -0.0692 -0.4891
 8452TIP3    H146771   1.915   5.601  15.092  0.8065  0.0308 -0.8010
 8452TIP3    H246772   1.865   5.464  15.135  0.0099  0.5638  0.0069
 8453TIP3   OH246773   0.053   0.874  15.691 -0.7374  0.4526 -0.0419
 8453TIP3    H146774   0.023   0.874  15.600  1.1814 -2.6520 -0.8425
 8453TIP3    H246775   0.135   0.924  15.689 -1.0291  0.9449  0.1441
 8454TIP3   OH246776   0.650   3.856   1.601 -0.1424 -0.0219 -0.2329
 8454TIP3    H146777   0.681   3.851   1.510 -0.0502  0.7675 -0.2559
 8454TIP3    H246778   0.655   3.766   1.633  0.2479 -0.2394 -0.8733
 8455TIP3   OH246779   4.210   0.773  14.347 -0.0441  0.2045 -0.3451
 8455TIP3    H146780   4.178   0.852  14.391 -2.5906 -1.1263  0.3595
 8455TIP3    H246781   4.278   0.740  14.405 -0.6045  0.6066  0.5652
 8456TIP3   OH246782   3.519   6.422   0.242 -0.0813 -0.1460 -0.0940
 8456TIP3    H146783   3.538   6.365   0.317 -0.7677 -1.1411 -0.6539
 8456TIP3    H246784   3.429   6.400   0.218  0.0720  0.3033 -1.0934
 8457TIP3   OH246785   3.956   0.202  15.875  0.2689 -0.0288  0.1906
 8457TIP3    H146786   3.964   0.130  15.937 -2.5249 -0.7977 -0.1762
 8457TIP3    H246787   3.917   0.273  15.925 -1.8874 -0.6119 -0.5312
 8458TIP3   OH246788   1.113   3.611  10.944  0.1555 -0.0273  0.4008
 8458TIP3    H146789   1.134   3.518  10.938  1.2452  0.2902 -1.1906
 8458TIP3    H246790   1.028   3.619  10.900  1.0508 -0.0005 -1.4301
 8459TIP3   OH246791   5.746   2.329  11.697  0.0344 -0.3582 -0.1354
 8459TIP3    H146792   5.714   2.264  11.760  1.0244 -0.8961 -0.1649
 8459TIP3    H246793   5.799   2.389  11.750  2.2320 -1.7314 -0.6332
 8460TIP3   OH246794   2.454   4.210  17.122 -0.4177  0.1718 -0.1353
 8460TIP3    H146795   2.475   4.162  17.041 -1.4965  0.2631 -0.4836
 8460TIP3    H246796   2.533   4.203  17.175 -0.6395 -2.3340 -0.0163
 8461TIP3   OH246797   3.293   5.939  14.645  0.2405  0.1557  0.0679
 8461TIP3    H146798   3.378   5.896  14.634  0.7983  1.0425  0.7896
 8461TIP3    H246799   3.302   5.990  14.726 -2.0933 -2.4417  2.1761
 8462TIP3   OH246800   0.320   0.396  12.274 -0.0866  0.1500 -0.0347
 8462TIP3    H146801   0.251   0.456  12.302  1.5274  2.1753 -0.1765
 8462TIP3    H246802   0.353   0.433  12.192  3.3075  1.2230  1.6248
 8463TIP3   OH246803   4.444   1.420   4.923 -0.2175 -0.0896 -0.1388
 8463TIP3    H146804   4.483   1.400   4.838 -1.7384  1.3507 -1.2551
 8463TIP3    H246805   4.379   1.351   4.937  0.4043 -0.6259  0.1188
 8464TIP3   OH246806   4.631   1.570   2.738 -0.0647  0.2199 -0.3912
 8464TIP3    H146807   4.626   1.577   2.643 -0.0761  0.7050 -0.3624
 8464TIP3    H246808   4.683   1.646   2.764 -0.0058  0.0525 -0.0165
 8465TIP3   OH246809   6.763   4.187  14.309 -0.1463  0.2157 -0.3785
 8465TIP3    H146810   6.676   4.185  14.350 -0.4660  0.0668 -1.0472
 8465TIP3    H246811   6.745   4.208  14.217  0.4349 -0.9322 -0.7679
 8466TIP3   OH246812   2.126   6.288  12.266 -1.0117 -0.6443  0.4782
 8466TIP3    H146813   2.184   6.357  12.235 -1.1597 -1.2455 -1.2457
 8466TIP3    H246814   2.184   6.217  12.293 -0.9107 -0.8726 -0.3226
 8467TIP3   OH246815   6.227   0.656   0.319 -0.1938 -0.3779 -0.7591
 8467TIP3    H146816   6.134   0.673   0.304  0.1311  0.9893 -1.3741
 8467TIP3    H246817   6.269   0.741   0.307  0.8041 -0.2954  2.3868
 8468TIP3   OH246818   5.605   0.976   1.402  0.4201  0.7275 -0.0908
 8468TIP3    H146819   5.559   0.978   1.486  1.2163 -3.0313  0.5806
 8468TIP3    H246820   5.681   1.033   1.417 -0.4275  1.6464  1.0254
 8469TIP3   OH246821   4.291   1.050  17.135 -0.0134  0.2887 -0.1360
 8469TIP3    H146822   4.322   0.959  17.143 -1.0311 -0.0543  0.0663
 8469TIP3    H246823   4.344   1.086  17.064  1.0494 -0.1709  0.3947
 8470TIP3   OH246824   4.907   3.654   0.293 -0.5787  0.0000 -0.1239
 8470TIP3    H146825   4.888   3.561   0.303 -0.2998 -0.1168 -0.6826
 8470TIP3    H246826   4.850   3.697   0.357  0.3090 -0.6557  1.1498
 8471TIP3   OH246827   5.807   0.664  12.420 -0.1633  0.5622 -0.1710
 8471TIP3    H146828   5.794   0.759  12.423  0.3501  0.6412 -0.2631
 8471TIP3    H246829   5.771   0.638  12.335 -1.0495  0.5465  0.1955
 8472TIP3   OH246830   0.052   6.488  14.178  0.3287  0.1810 -0.1109
 8472TIP3    H146831   0.095   6.572  14.197 -0.9191  0.7940  0.0949
 8472TIP3    H246832  -0.008   6.507  14.107  1.1158 -0.9076 -1.0967
 8473TIP3   OH246833   2.177   3.305   5.022  0.7033  0.4445  0.5960
 8473TIP3    H146834   2.218   3.269   5.101 -0.3361  0.5217  1.1921
 8473TIP3    H246835   2.136   3.387   5.052  0.4533  0.5680 -0.0705
 8474TIP3   OH246836   4.732   5.359   0.897  0.8521 -0.6008  0.0682
 8474TIP3    H146837   4.803   5.359   0.833  0.7509 -0.3634 -0.0456
 8474TIP3    H246838   4.655   5.328   0.848  0.3797  1.1444 -0.3820
 8475TIP3   OH246839   6.437   3.452   5.772  0.2411  0.9859 -0.9539
 8475TIP3    H146840   6.520   3.450   5.819 -0.5385  2.1765  0.5881
 8475TIP3    H246841   6.390   3.374   5.801 -0.0204  1.4355 -0.1475
 8476TIP3   OH246842   4.220   1.943   5.665 -0.2811 -0.0167  0.0330
 8476TIP3    H146843   4.142   1.896   5.695 -0.3119  0.6797  1.1263
 8476TIP3    H246844   4.273   1.952   5.744 -0.8200  2.8325  0.1743
 8477TIP3   OH246845   4.831   3.384   4.321  0.6292  0.7624 -0.4335
 8477TIP3    H146846   4.824   3.290   4.336 -0.9864  0.4972 -2.4747
 8477TIP3    H246847   4.897   3.393   4.252  0.7891  1.1359 -0.2352
 8478TIP3   OH246848   5.482   2.560   0.914 -0.0365  0.3968  0.9452
 8478TIP3    H146849   5.405   2.566   0.858  0.5438 -0.8781 -0.0652
 8478TIP3    H246850   5.512   2.469   0.902  1.4780  0.8080  1.4687
 8479TIP3   OH246851   4.372   0.727   3.818 -0.5033  0.5677 -0.0915
 8479TIP3    H146852   4.333   0.808   3.851 -0.5269 -0.1378  1.7379
 8479TIP3    H246853   4.403   0.682   3.897 -0.6521 -1.2833 -1.0349
 8480TIP3   OH246854   4.528   1.335   0.936 -0.2331 -0.6466 -0.6775
 8480TIP3    H146855   4.442   1.355   0.898 -0.2802  2.2655  0.7030
 8480TIP3    H246856   4.590   1.347   0.864 -0.8432 -1.6284 -1.3922
 8481TIP3   OH246857   0.039   0.222  12.224  0.4822  0.0323 -0.7558
 8481TIP3    H146858  -0.015   0.233  12.302 -0.7708 -2.2162 -1.2379
 8481TIP3    H246859   0.106   0.290  12.232  0.2597  0.0270  2.1447
 8482TIP3   OH246860   2.831   6.077  13.031 -0.2768  0.2265  0.1214
 8482TIP3    H146861   2.783   6.111  12.955 -1.2920 -0.5132  0.4072
 8482TIP3    H246862   2.793   6.124  13.105 -2.0161 -1.7346  0.5776
 8483TIP3   OH246863   0.368   1.323  12.387  0.5853 -0.5576 -0.0586
 8483TIP3    H146864   0.417   1.372  12.452  0.6097  1.1296 -1.2651
 8483TIP3    H246865   0.387   1.367  12.304 -1.7021 -0.7816 -0.7962
 8484TIP3   OH246866   3.735   5.628   5.227  0.5540 -0.0085  0.1962
 8484TIP3    H146867   3.724   5.681   5.306  1.5933  1.3794 -0.5357
 8484TIP3    H246868   3.826   5.598   5.232  0.8027  0.5603 -0.7326
 8485TIP3   OH246869   4.498   3.125  12.849  0.1911  0.5995 -0.0282
 8485TIP3    H146870   4.422   3.139  12.793  0.0960 -1.1119 -0.3819
 8485TIP3    H246871   4.470   3.060  12.914  0.9321  0.9820  0.7029
 8486TIP3   OH246872   2.328   4.546  16.031 -1.2244  0.5911  0.2134
 8486TIP3    H146873   2.313   4.506  16.116 -0.2011 -1.9197 -0.7058
 8486TIP3    H246874   2.386   4.485  15.985 -1.4590  2.0257 -2.1647
 8487TIP3   OH246875   1.190   3.981   2.262 -0.3257 -0.3467  0.1506
 8487TIP3    H146876   1.273   4.024   2.238 -0.7946 -0.3172 -1.5251
 8487TIP3    H246877   1.127   4.013   2.198 -0.7470 -3.3676 -1.1197
 8488TIP3   OH246878   6.089   4.233   2.340  0.0975  0.0073  0.2419
 8488TIP3    H146879   6.171   4.281   2.331 -0.8002  1.7807  1.0776
 8488TIP3    H246880   6.091   4.198   2.429 -0.2033  0.3470  0.3830
 8489TIP3   OH246881   5.836   3.587  15.058 -0.2215  0.0225 -0.0400
 8489TIP3    H146882   5.808   3.629  14.976  1.0362 -0.0360 -0.5084
 8489TIP3    H246883   5.753   3.563  15.101 -0.9279 -1.0379 -1.8413
 8490TIP3   OH246884   5.627   5.375   2.607  0.7339  0.6733 -0.1455
 8490TIP3    H146885   5.650   5.448   2.664  1.6981 -0.8800  1.5503
 8490TIP3    H246886   5.638   5.297   2.661 -1.6463 -0.6973 -1.4336
 8491TIP3   OH246887   2.041   1.213   1.710 -0.0493 -0.1613 -0.6069
 8491TIP3    H146888   2.015   1.120   1.716 -1.7017  0.3147  0.6227
 8491TIP3    H246889   1.978   1.252   1.650 -1.2929  0.7016  1.1515
 8492TIP3   OH246890   2.869   4.488   3.300 -0.1722  0.3396 -0.1714
 8492TIP3    H146891   2.805   4.537   3.249  0.3815  1.5739  0.2786
 8492TIP3    H246892   2.824   4.407   3.324 -1.2470  0.7922 -0.6006
 8493TIP3   OH246893   4.750   1.429  14.045 -0.4089 -0.1339  0.1592
 8493TIP3    H146894   4.713   1.386  13.968 -2.9745 -1.7025  2.0611
 8493TIP3    H246895   4.842   1.406  14.044 -0.3535 -0.0427 -2.4199
 8494TIP3   OH246896   5.448   4.559   3.241 -0.0666  0.1308  0.0760
 8494TIP3    H146897   5.395   4.618   3.187  1.0009  0.6049 -0.4874
 8494TIP3    H246898   5.384   4.508   3.290 -1.0408  0.8666 -0.3825
 8495TIP3   OH246899   6.285   4.068   1.351 -0.0935 -0.3822  0.1849
 8495TIP3    H146900   6.355   4.103   1.406 -0.4551  1.1734 -0.2670
 8495TIP3    H246901   6.319   4.073   1.262 -1.0486  1.2755 -0.1421
 8496TIP3   OH246902   1.559   4.806  12.858 -0.0610 -1.3774  0.4520
 8496TIP3    H146903   1.626   4.745  12.888  1.8472 -0.1689 -1.1121
 8496TIP3    H246904   1.528   4.849  12.938  2.9961 -0.0781  1.0743
 8497TIP3   OH246905   0.254   5.932   6.006  0.1575 -0.0231 -0.1873
 8497TIP3    H146906   0.286   6.015   6.041  2.0997 -0.8442  0.0965
 8497TIP3    H246907   0.268   5.869   6.077  1.3113 -1.1113 -1.3254
 8498TIP3   OH246908   0.076   0.545  16.527 -0.3502  0.5297 -0.2499
 8498TIP3    H146909   0.038   0.459  16.546  0.2870 -0.0965 -1.6548
 8498TIP3    H246910   0.123   0.533  16.444 -0.8052  2.4084 -0.8299
 8499TIP3   OH246911   3.433   4.698   2.419  0.3451  0.2178  0.1085
 8499TIP3    H146912   3.407   4.707   2.327  0.5589 -1.2221 -0.1178
 8499TIP3    H246913   3.528   4.685   2.416  0.4561  0.8443  0.6011
 8500TIP3   OH246914   0.208   6.410  12.596  0.1936  0.2123  0.5092
 8500TIP3    H146915   0.165   6.477  12.650 -0.0287 -0.1064  0.7301
 8500TIP3    H246916   0.247   6.350  12.660  0.4862  0.1871  0.3108
 8501TIP3   OH246917   1.993   0.363  14.492  0.0579  0.8906  0.6971
 8501TIP3    H146918   1.907   0.381  14.454 -0.7980 -2.5560  0.6268
 8501TIP3    H246919   2.054   0.410  14.435 -1.6366  1.4158 -0.7921
 8502TIP3   OH246920   6.707   6.143   3.637  0.4103  0.2412  0.3698
 8502TIP3    H146921   6.767   6.173   3.569 -0.6258  0.0737 -0.6457
 8502TIP3    H246922   6.727   6.049   3.646 -1.1642 -0.3350 -1.5729
 8503TIP3   OH246923   3.785   3.462   5.588  0.0803 -0.3383 -0.2240
 8503TIP3    H146924   3.866   3.466   5.638  0.5679 -1.5369 -0.8560
 8503TIP3    H246925   3.728   3.527   5.628  1.0974  0.0150  0.6947
 8504TIP3   OH246926   5.168   2.786   3.461  0.4637  0.6705 -0.1076
 8504TIP3    H146927   5.079   2.752   3.456  0.5940  0.3739 -0.4167
 8504TIP3    H246928   5.176   2.845   3.386  0.0820  1.7720  0.6911
 8505TIP3   OH246929   2.413   4.458   3.846  0.0242 -0.5873 -0.2372
 8505TIP3    H146930   2.425   4.364   3.842  0.4787 -0.5924  0.8930
 8505TIP3    H246931   2.415   4.479   3.940  0.8531  0.6506 -0.5038
 8506TIP3   OH246932   1.206   3.195   0.791  0.1092 -0.4933  0.0429
 8506TIP3    H146933   1.238   3.280   0.759 -0.6441  0.0778  0.7720
 8506TIP3    H246934   1.278   3.161   0.843  0.5720 -0.4949 -0.5816
 8507TIP3   OH246935   0.686   2.801  16.504  0.5354  0.0469 -0.1185
 8507TIP3    H146936   0.742   2.866  16.546 -0.2407  1.1700 -0.7598
 8507TIP3    H246937   0.653   2.844  16.425 -0.6805 -0.8164 -0.1286
 8508TIP3   OH246938   5.018   3.714  11.367 -0.2704 -0.1004 -0.4019
 8508TIP3    H146939   5.049   3.681  11.451 -1.0988 -1.4729 -0.5926
 8508TIP3    H246940   5.053   3.803  11.360 -0.4835  0.1654  1.5464
 8509TIP3   OH246941   2.448   0.292   5.082 -0.6168  0.0913 -0.6295
 8509TIP3    H146942   2.535   0.306   5.118  0.4556 -1.5912 -2.3881
 8509TIP3    H246943   2.390   0.296   5.158  1.2154 -0.7233  0.8911
 8510TIP3   OH246944   1.714   3.726  13.734 -0.2040 -0.0173 -0.2771
 8510TIP3    H146945   1.746   3.761  13.651 -1.1320 -0.3819 -0.7984
 8510TIP3    H246946   1.641   3.670  13.710 -0.7976  0.2548  0.8388
 8511TIP3   OH246947   3.413   2.447   0.317  0.6943  0.0973  0.2652
 8511TIP3    H146948   3.355   2.380   0.280  1.2372 -0.5612  0.5871
 8511TIP3    H246949   3.364   2.481   0.392  0.1511  0.5060 -0.2678
 8512TIP3   OH246950   5.945   1.534   1.937 -0.1365  0.4393  0.1069
 8512TIP3    H146951   6.030   1.574   1.957 -1.1833  2.5107  0.7495
 8512TIP3    H246952   5.907   1.591   1.869 -0.7127 -0.8868 -0.7175
 8513TIP3   OH246953   0.213   3.642   0.998  0.0059  0.1501  0.1554
 8513TIP3    H146954   0.147   3.701   1.036 -1.1289 -0.8001 -0.2718
 8513TIP3    H246955   0.181   3.626   0.909 -0.0290 -1.5523  0.4489
 8514TIP3   OH246956   5.346   1.666   1.623 -0.1000 -0.3076  0.3416
 8514TIP3    H146957   5.307   1.751   1.601 -0.8040 -1.1670 -2.0545
 8514TIP3    H246958   5.292   1.633   1.695 -0.5679  0.7455  0.4889
 8515TIP3   OH246959   1.265   5.881  10.943 -0.4248  0.3373  0.0604
 8515TIP3    H146960   1.250   5.804  10.999 -3.2363  1.6397  1.2871
 8515TIP3    H246961   1.198   5.874  10.875  1.6116 -0.0888 -2.0393
 8516TIP3   OH246962   4.667   3.781   0.382  0.0903 -0.1589 -0.0690
 8516TIP3    H146963   4.628   3.865   0.406 -0.3884 -0.2023 -0.6970
 8516TIP3    H246964   4.632   3.761   0.295 -1.0368 -1.7632  0.7014
 8517TIP3   OH246965   4.423   4.132  11.721  0.3236 -0.5199 -0.1635
 8517TIP3    H146966   4.486   4.074  11.763  0.1304 -1.5200 -1.2220
 8517TIP3    H246967   4.476   4.190  11.667  0.5517  0.6024  1.2134
 8518TIP3   OH246968   0.920   2.237  15.144  0.0037  0.1215  0.6308
 8518TIP3    H146969   0.898   2.209  15.056  0.3299  3.1282 -0.5378
 8518TIP3    H246970   1.012   2.213  15.155  0.5200  1.3911 -0.6393
 8519TIP3   OH246971   0.301   3.165  12.082 -0.1429 -0.1062 -0.2131
 8519TIP3    H146972   0.314   3.070  12.071 -0.3271 -0.2799  0.9169
 8519TIP3    H246973   0.335   3.203  12.002  1.7949 -0.9733  0.1400
 8520TIP3   OH246974   2.208   4.656  13.292 -0.5739 -0.1245  0.0821
 8520TIP3    H146975   2.140   4.603  13.334 -1.1412 -0.3065 -1.0337
 8520TIP3    H246976   2.200   4.741  13.334  1.2655 -1.2188  2.8952
 8521TIP3   OH246977   5.518   4.726  14.013 -0.0579 -0.2576 -0.4278
 8521TIP3    H146978   5.511   4.632  14.026 -0.9569 -0.1341  0.0921
 8521TIP3    H246979   5.563   4.736  13.929  1.7927 -1.1141  0.4329
 8522TIP3   OH246980   2.906   1.733   1.525 -0.6878 -0.1954  0.4888
 8522TIP3    H146981   2.986   1.717   1.574 -0.0641  1.7032  0.1980
 8522TIP3    H246982   2.930   1.802   1.462 -2.5049  0.3332  0.3118
 8523TIP3   OH246983   2.252   0.981   5.043  0.3999 -0.3692  0.2598
 8523TIP3    H146984   2.197   0.904   5.059  1.8990 -1.4853  0.1851
 8523TIP3    H246985   2.306   0.958   4.968  0.9358  0.7318  0.2735
 8524TIP3   OH246986   6.401   6.300  13.650 -0.4448 -0.0981 -0.1037
 8524TIP3    H146987   6.382   6.259  13.565 -1.1109  0.5250 -0.2543
 8524TIP3    H246988   6.483   6.258  13.678  0.3846  0.4581 -1.5626
 8525TIP3   OH246989   0.671   2.481  12.660  0.5167 -0.3734 -0.8534
 8525TIP3    H146990   0.622   2.425  12.721 -0.2241 -0.4405 -1.4965
 8525TIP3    H246991   0.737   2.423  12.623  1.0280 -0.3142 -0.0771
 8526TIP3   OH246992   4.138   0.410   1.788  0.3367  0.0291  0.0416
 8526TIP3    H146993   4.228   0.395   1.818  0.6330 -1.3054 -1.4256
 8526TIP3    H246994   4.107   0.323   1.762 -0.8340  0.7324 -0.9584
 8527TIP3   OH246995   1.200   5.815   2.958 -0.2738  0.0740  0.5775
 8527TIP3    H146996   1.241   5.833   3.043 -2.0166  1.7215  1.1448
 8527TIP3    H246997   1.119   5.769   2.980 -1.0419  1.0672 -0.1198
 8528TIP3   OH246998   2.093   0.457  12.588 -0.2722 -0.3620 -0.0232
 8528TIP3    H146999   2.018   0.506  12.622  0.2521  0.5928 -0.2156
 8528TIP3    H247000   2.164   0.521  12.585  0.0340 -0.7412 -1.7145
 8529TIP3   OH247001   1.939   3.050  11.449  0.0846 -0.0184 -0.1768
 8529TIP3    H147002   1.992   3.124  11.418  0.0138 -0.4360 -1.3497
 8529TIP3    H247003   1.853   3.088  11.467  0.0653  0.2076 -0.7136
 8530TIP3   OH247004   2.876   0.524   5.559  0.1659  0.2418 -0.5878
 8530TIP3    H147005   2.952   0.468   5.542  1.1066  1.2730  0.0422
 8530TIP3    H247006   2.913   0.610   5.575 -1.0668  0.5791  0.7030
 8531TIP3   OH247007   3.335   0.546  14.210  0.3594 -0.0887 -0.3698
 8531TIP3    H147008   3.287   0.479  14.161  1.1315  0.2106 -1.6005
 8531TIP3    H247009   3.427   0.522  14.199  0.5320 -0.9278  2.3443
 8532TIP3   OH247010   3.317   4.655  13.869  0.7618  0.1817  0.0610
 8532TIP3    H147011   3.398   4.706  13.878  1.1552 -0.3510 -0.3713
 8532TIP3    H247012   3.329   4.606  13.788 -0.2605  0.5538 -0.3309
 8533TIP3   OH247013   0.093   5.117   6.433 -0.0134  0.0139 -0.3696
 8533TIP3    H147014   0.030   5.046   6.419 -0.1617  0.3627 -1.6335
 8533TIP3    H247015   0.158   5.104   6.364 -0.1839  1.2442 -0.7747
 8534TIP3   OH247016   2.442   5.467  14.372  0.2219  0.1275  0.4651
 8534TIP3    H147017   2.350   5.488  14.389 -0.0253 -0.1133 -0.5221
 8534TIP3    H247018   2.469   5.417  14.449 -0.5322  0.0007  0.6606
 8535TIP3   OH247019   3.511   5.668   5.059  0.3719  0.0670  0.1106
 8535TIP3    H147020   3.589   5.666   5.114  0.0050 -1.1512  0.6167
 8535TIP3    H247021   3.448   5.722   5.107 -0.3621 -1.9158  1.5337
 8536TIP3   OH247022   6.564   3.244  11.531 -0.1300  0.4619 -0.1167
 8536TIP3    H147023   6.523   3.317  11.578 -1.2869  0.6089 -1.2846
 8536TIP3    H247024   6.650   3.278  11.506 -0.3921  1.1919 -0.0728
 8537TIP3   OH247025   4.485   4.635  12.797  0.0651  0.4738 -0.5097
 8537TIP3    H147026   4.435   4.618  12.717  0.1393  0.9822 -0.6697
 8537TIP3    H247027   4.484   4.730  12.806  1.4683  0.5423 -0.8328
 8538TIP3   OH247028   6.518   4.897   4.825  0.1498 -0.1075 -0.1835
 8538TIP3    H147029   6.428   4.915   4.852  0.3593 -0.0573  0.4890
 8538TIP3    H247030   6.510   4.863   4.736 -0.6897 -1.8490  0.5233
 8539TIP3   OH247031   4.901   3.994  12.363  0.0837 -0.3163 -0.2962
 8539TIP3    H147032   4.844   3.970  12.436 -0.7120 -1.0822 -1.1429
 8539TIP3    H247033   4.978   3.938  12.374  0.2234 -0.0207  0.2692
 8540TIP3   OH247034   6.365   0.372   6.071 -0.1018  0.1299  0.5009
 8540TIP3    H147035   6.349   0.445   6.011 -0.3568  0.0710  0.4980
 8540TIP3    H247036   6.324   0.399   6.153  0.9949  0.5905  0.9154
 8541TIP3   OH247037   6.585   5.947   2.809  0.3249 -0.0121 -0.0618
 8541TIP3    H147038   6.604   5.972   2.719 -1.3207 -2.4866 -1.2003
 8541TIP3    H247039   6.490   5.934   2.811 -0.0617  2.1539  2.6840
 8542TIP3   OH247040   5.233   6.050   0.476 -0.4329  0.5546 -0.1172
 8542TIP3    H147041   5.163   6.063   0.539 -0.8724 -2.3254  0.1191
 8542TIP3    H247042   5.280   6.134   0.475 -0.3647  0.7641  4.0445
 8543TIP3   OH247043   4.599   5.620  16.565 -0.1414 -0.3861 -0.0191
 8543TIP3    H147044   4.552   5.556  16.617 -0.7426  0.1453  0.1086
 8543TIP3    H247045   4.632   5.683  16.628 -1.6998  0.7954 -0.3156
 8544TIP3   OH247046   0.972   0.450   1.678 -0.0494  0.4673 -0.5110
 8544TIP3    H147047   0.914   0.426   1.751  1.0347 -2.5957 -0.5312
 8544TIP3    H247048   0.913   0.462   1.604 -0.9580  1.3305  0.3135
 8545TIP3   OH247049   2.119   3.755  15.255 -0.2190  0.1242  0.5952
 8545TIP3    H147050   2.196   3.784  15.207 -0.6283  2.3878  1.1913
 8545TIP3    H247051   2.154   3.718  15.336  0.3176 -1.1077 -0.1676
 8546TIP3   OH247052   5.232   3.411  10.547  0.1866 -0.2284  0.2994
 8546TIP3    H147053   5.217   3.351  10.620 -0.7170  0.5667  0.7930
 8546TIP3    H247054   5.172   3.484  10.563  1.1020  0.7103 -0.3981
 8547TIP3   OH247055   2.102   5.404   5.916 -0.1323 -1.1204 -0.2112
 8547TIP3    H147056   2.193   5.402   5.946 -0.1875  0.3666  0.1218
 8547TIP3    H247057   2.057   5.459   5.980 -1.2446 -1.6916 -0.4768
 8548TIP3   OH247058   4.246   6.463   0.363  0.2989 -0.0873 -0.1571
 8548TIP3    H147059   4.245   6.425   0.275  0.2462  0.4615 -0.3971
 8548TIP3    H247060   4.330   6.510   0.368  0.4282 -0.3494  0.1891
 8549TIP3   OH247061   2.271   5.564   3.273  0.6421 -0.3120  0.5241
 8549TIP3    H147062   2.336   5.633   3.265  2.2319 -1.6504  1.2645
 8549TIP3    H247063   2.258   5.532   3.183 -0.5883  1.3012  0.0829
 8550TIP3   OH247064   2.217   4.551   3.490  0.3039  0.6420 -0.9234
 8550TIP3    H147065   2.275   4.618   3.527 -0.3539 -0.0585  1.5739
 8550TIP3    H247066   2.129   4.576   3.518 -0.3051  0.2108 -2.3442
 8551TIP3   OH247067   2.021   4.912   2.605  0.2563 -0.3165 -0.3136
 8551TIP3    H147068   1.976   4.842   2.557 -1.2461 -0.2038  0.8781
 8551TIP3    H247069   2.031   4.982   2.541  0.3443 -1.0044 -1.0781
 8552TIP3   OH247070   2.915   4.622   6.615  0.8597 -0.1193  0.2309
 8552TIP3    H147071   2.828   4.584   6.603 -0.1818  2.4211 -0.9304
 8552TIP3    H247072   2.973   4.567   6.563  0.1878 -2.3948  1.7338
 8553TIP3   OH247073   2.271   1.117  16.857 -0.1197 -0.4665  0.5068
 8553TIP3    H147074   2.281   1.194  16.913  2.3434  0.6641 -1.2766
 8553TIP3    H247075   2.226   1.149  16.779 -1.5717 -1.5225  0.8752
 8554TIP3   OH247076   2.250   3.466   3.787  0.6471  0.0204 -0.4153
 8554TIP3    H147077   2.256   3.436   3.878  0.2740  0.4312 -0.2562
 8554TIP3    H247078   2.270   3.559   3.791  0.7400  0.0158 -0.7718
 8555TIP3   OH247079   3.347   0.932  15.756 -0.0812  0.3171  0.1010
 8555TIP3    H147080   3.438   0.959  15.749 -0.4441  1.1971 -2.4388
 8555TIP3    H247081   3.328   0.932  15.850  2.0701  1.6688  0.5837
 8556TIP3   OH247082   6.534   0.512   3.299 -0.1375 -0.0487  0.2610
 8556TIP3    H147083   6.627   0.499   3.281 -0.0267  2.0732 -1.1381
 8556TIP3    H247084   6.533   0.582   3.365 -0.6722  1.9513 -1.7354
 8557TIP3   OH247085   1.465   3.422   1.346 -0.3506  0.6452 -0.2557
 8557TIP3    H147086   1.489   3.509   1.378 -0.1763  0.2180  0.8220
 8557TIP3    H247087   1.547   3.386   1.313  0.0265  0.1256  1.1768
 8558TIP3   OH247088   6.406   4.644  16.057 -0.5399 -0.0462  0.0849
 8558TIP3    H147089   6.313   4.664  16.053 -1.1220 -2.4760 -0.0180
 8558TIP3    H247090   6.415   4.583  16.131  1.5251  2.5037  2.1345
 8559TIP3   OH247091   4.328   1.591  10.669  0.3736 -0.2359  0.1836
 8559TIP3    H147092   4.237   1.565  10.685  0.3991  0.2584  1.2369
 8559TIP3    H247093   4.333   1.681  10.701  0.9053  0.2300 -1.1253
 8560TIP3   OH247094   5.877   0.436   5.575 -0.2798  0.0212 -0.3274
 8560TIP3    H147095   5.873   0.341   5.592 -0.5925 -0.0519 -0.7892
 8560TIP3    H247096   5.851   0.444   5.483 -0.5936  0.5899 -0.1882
 8561TIP3   OH247097   2.162   5.598  16.446  0.0624 -0.3380 -0.1785
 8561TIP3    H147098   2.215   5.602  16.366  0.0204  0.0028 -0.1883
 8561TIP3    H247099   2.088   5.656  16.430 -0.9251 -1.6424 -0.6017
 8562TIP3   OH247100   6.366   1.551  11.980  0.3295 -0.1502 -0.0014
 8562TIP3    H147101   6.341   1.564  11.888  0.5889 -2.5020 -0.4565
 8562TIP3    H247102   6.299   1.494  12.016  0.9587 -0.3558  0.8847
 8563TIP3   OH247103   5.038   1.940  10.885  0.1808  0.0245  0.0249
 8563TIP3    H147104   5.032   1.888  10.965  0.0168  0.0340  0.0206
 8563TIP3    H247105   4.993   2.022  10.906  2.7941  1.3358  0.9396
 8564TIP3   OH247106   2.770   2.535  17.151  0.0568 -0.1914  0.0461
 8564TIP3    H147107   2.699   2.484  17.190 -2.2521  1.5664 -1.5277
 8564TIP3    H247108   2.726   2.611  17.113  2.8630  1.1259 -0.8371
 8565TIP3   OH247109   4.671   6.274  14.918 -0.5338  0.0047 -0.3645
 8565TIP3    H147110   4.695   6.189  14.955 -1.9867  0.2353  1.2322
 8565TIP3    H247111   4.710   6.274  14.831 -1.3895 -2.7561 -0.8584
 8566TIP3   OH247112   0.335   3.207  12.854  0.6005  0.2504 -0.4899
 8566TIP3    H147113   0.320   3.246  12.768 -0.5799  0.9995  0.0115
 8566TIP3    H247114   0.429   3.189  12.857  0.7877  0.9350 -1.6347
 8567TIP3   OH247115   5.244   2.652  15.327  0.3353 -0.2248  0.0071
 8567TIP3    H147116   5.285   2.596  15.392  0.4046  1.2105  1.2464
 8567TIP3    H247117   5.231   2.736  15.371  1.3007  1.1352 -2.1009
 8568TIP3   OH247118   1.864   0.283   2.005  0.5314 -1.1543  0.3139
 8568TIP3    H147119   1.839   0.375   1.994  0.9071 -0.9716  0.9240
 8568TIP3    H247120   1.799   0.248   2.065 -0.6983 -1.7863 -1.3108
 8569TIP3   OH247121   5.733   6.679   5.897 -0.4128  0.2366 -0.0752
 8569TIP3    H147122   5.702   6.590   5.879 -0.9587 -0.2018  2.6004
 8569TIP3    H247123   5.826   6.678   5.872  0.1156 -1.7274  1.7144
 8570TIP3   OH247124   0.694   0.801  12.986  0.2303  0.1038 -0.4160
 8570TIP3    H147125   0.693   0.711  13.018 -0.8950  0.8766  1.9977
 8570TIP3    H247126   0.786   0.825  12.985  0.4486 -0.6644  0.2418
 8571TIP3   OH247127   5.296   2.130   1.155 -1.0329  0.7829  0.1799
 8571TIP3    H147128   5.263   2.184   1.083  0.4749 -0.1995 -1.3191
 8571TIP3    H247129   5.238   2.054   1.156 -0.7873  0.5828 -0.3252
 8572TIP3   OH247130   0.742   3.439   4.381  0.2334  0.8160  0.1573
 8572TIP3    H147131   0.695   3.356   4.375  1.9953 -0.1364 -2.1094
 8572TIP3    H247132   0.673   3.506   4.378 -1.0996 -0.5348 -1.1524
 8573TIP3   OH247133   4.770   6.083   2.509 -0.3370 -0.0019  0.3472
 8573TIP3    H147134   4.733   6.054   2.592  2.9931 -2.6754  1.0962
 8573TIP3    H247135   4.839   6.145   2.534 -0.2028  0.2370 -0.5678
 8574TIP3   OH247136   0.290   3.587  11.900 -0.5693  0.1506 -0.0563
 8574TIP3    H147137   0.288   3.500  11.862 -0.4941 -0.3316  1.0050
 8574TIP3    H247138   0.221   3.585  11.967 -1.2794  1.2424 -0.7265
 8575TIP3   OH247139   4.329   0.022  16.946 -0.7889  0.1534  0.0567
 8575TIP3    H147140   4.393  -0.048  16.955 -0.4486  0.4727  0.1131
 8575TIP3    H247141   4.321   0.036  16.851 -1.5196 -0.5701  0.0062
 8576TIP3   OH247142   1.284   4.582   0.535  0.0793 -0.0737  0.4820
 8576TIP3    H147143   1.248   4.540   0.457  0.9332 -0.5241  0.3152
 8576TIP3    H247144   1.270   4.676   0.521  2.2446  0.0539 -1.2966
 8577TIP3   OH247145   2.711   0.331   2.546 -0.1039 -0.1841  0.4889
 8577TIP3    H147146   2.716   0.305   2.454  1.5897 -0.6323  0.6780
 8577TIP3    H247147   2.648   0.403   2.547  0.0209 -0.0203 -1.0617
 8578TIP3   OH247148   4.612   4.235  14.921  0.3986  0.1639  0.7976
 8578TIP3    H147149   4.657   4.233  14.837  1.9292  1.5187  1.5098
 8578TIP3    H247150   4.576   4.147  14.931  1.0823 -0.3378 -0.7938
 8579TIP3   OH247151   2.558   3.345   0.157 -0.1988  0.4472  0.0241
 8579TIP3    H147152   2.542   3.254   0.182  0.1305  0.2327 -0.5377
 8579TIP3    H247153   2.480   3.370   0.106  0.5776 -0.1492 -1.4986
 8580TIP3   OH247154   6.164   0.594   2.627 -0.2788  0.6600 -0.3304
 8580TIP3    H147155   6.235   0.541   2.663 -0.5867 -1.1147 -2.1995
 8580TIP3    H247156   6.087   0.568   2.677  0.0347  1.3273  0.5328
 8581TIP3   OH247157   0.345   4.678   4.906 -0.1078 -0.4789 -0.0938
 8581TIP3    H147158   0.302   4.730   4.974 -0.6804 -0.6412 -0.3258
 8581TIP3    H247159   0.349   4.737   4.830 -1.5180 -1.0120 -0.6268
 8582TIP3   OH247160   0.054   0.415  14.697  0.0798 -0.5515 -0.5325
 8582TIP3    H147161   0.117   0.367  14.643  1.4532 -1.0352  1.3915
 8582TIP3    H247162   0.078   0.507  14.687 -0.5405 -0.5152 -1.7714
 8583TIP3   OH247163   4.666   0.356  11.635 -0.6228  0.2295  0.1579
 8583TIP3    H147164   4.729   0.381  11.568  0.5964 -1.0037  0.8081
 8583TIP3    H247165   4.665   0.429  11.696 -1.8011  1.4050 -1.1733
 8584TIP3   OH247166   4.079   4.916  14.289  0.1443 -0.4223  0.1830
 8584TIP3    H147167   4.052   4.856  14.359 -0.1150 -0.7386 -0.1856
 8584TIP3    H247168   4.028   4.889  14.213 -0.7410  0.9133  0.2681
 8585TIP3   OH247169   6.219   3.862  12.148  0.0090  0.2868  0.0514
 8585TIP3    H147170   6.304   3.894  12.119  0.0731 -0.0475 -0.1329
 8585TIP3    H247171   6.165   3.940  12.157  0.1358  0.4334 -0.4849
 8586TIP3   OH247172   4.062   1.630   6.025 -0.2532  0.0730 -0.5831
 8586TIP3    H147173   4.062   1.701   6.090 -1.3257  0.1088 -0.6007
 8586TIP3    H247174   4.129   1.569   6.056  0.8891  1.2156 -0.7184
 8587TIP3   OH247175   6.149   3.836  10.742  0.1881 -0.1138  0.0023
 8587TIP3    H147176   6.165   3.766  10.805  0.9905  0.4179  0.4038
 8587TIP3    H247177   6.236   3.861  10.712 -0.1182  0.4370 -0.4451
 8588TIP3   OH247178   2.992   0.615  14.517  0.2985 -0.2872 -0.4634
 8588TIP3    H147179   2.976   0.643  14.427 -3.1176  0.4403  0.2083
 8588TIP3    H247180   2.917   0.560  14.539 -0.0400  1.1177  2.4811
 8589TIP3   OH247181   4.200   0.627   1.562 -0.5083  0.1001 -0.7057
 8589TIP3    H147182   4.208   0.722   1.553 -1.0111  0.0208 -2.2357
 8589TIP3    H247183   4.211   0.611   1.656  1.1219  1.5070 -0.6052
 8590TIP3   OH247184   1.350   1.613  16.460 -0.4792  0.4310 -0.2661
 8590TIP3    H147185   1.346   1.625  16.555  1.3448 -0.1012 -0.0925
 8590TIP3    H247186   1.371   1.700  16.426 -1.8100  0.7714 -0.2607
 8591TIP3   OH247187   6.582   4.691  15.805 -0.0194 -0.1026 -0.4655
 8591TIP3    H147188   6.529   4.725  15.877  1.2985 -1.3866  1.2233
 8591TIP3    H247189   6.651   4.756  15.794 -0.1639  0.0471 -0.4790
 8592TIP3   OH247190   5.330   2.037  11.345  0.4431  0.1920 -0.3454
 8592TIP3    H147191   5.333   2.073  11.257 -0.8599  0.1994 -0.4030
 8592TIP3    H247192   5.369   1.950  11.338  0.5169  0.2696 -0.8866
 8593TIP3   OH247193   1.271   1.016  16.076 -0.8398  0.4700 -0.4116
 8593TIP3    H147194   1.261   0.923  16.093  0.7300  0.2099 -0.7736
 8593TIP3    H247195   1.333   1.021  16.003 -0.0230  1.8124  0.3231
 8594TIP3   OH247196   1.424   5.836  17.059 -0.5453 -1.3213 -0.0635
 8594TIP3    H147197   1.378   5.758  17.030  2.3566 -3.3098  0.2411
 8594TIP3    H247198   1.513   5.806  17.078  0.5946  1.9811  0.5433
 8595TIP3   OH247199   3.669   1.637  10.170 -0.3053 -0.1556  0.0363
 8595TIP3    H147200   3.609   1.665  10.100  0.1750  0.5219 -0.1184
 8595TIP3    H247201   3.626   1.664  10.251 -0.5281 -0.2849 -0.0388
 8596TIP3   OH247202   5.439   5.544  15.369 -0.2498  0.0753  0.4172
 8596TIP3    H147203   5.379   5.471  15.381  2.1632 -2.2889 -0.9532
 8596TIP3    H247204   5.470   5.565  15.457 -0.9524 -0.5285  0.8210
 8597TIP3   OH247205   1.410   0.260   3.956  0.1558  0.0347  0.0342
 8597TIP3    H147206   1.422   0.169   3.982 -1.4351 -0.0318  0.6461
 8597TIP3    H247207   1.437   0.311   4.033  1.2905  0.1281 -0.3949
 8598TIP3   OH247208   4.765   2.799  12.460 -0.0373 -0.1025  0.2573
 8598TIP3    H147209   4.729   2.886  12.480 -2.4477 -0.9353 -0.1161
 8598TIP3    H247210   4.858   2.815  12.444  0.5029  1.8199  4.0906
 8599TIP3   OH247211   1.017   4.117   2.067  0.4902 -0.2017  0.7615
 8599TIP3    H147212   1.007   4.132   1.973  0.2596 -1.5877  0.5382
 8599TIP3    H247213   1.018   4.204   2.106 -0.8127  0.3510 -0.3833
 8600TIP3   OH247214   4.127   4.936  13.628  0.3013 -0.4856 -0.4501
 8600TIP3    H147215   4.145   5.012  13.573  1.7253 -0.0762  0.5357
 8600TIP3    H247216   4.202   4.878  13.614  0.2609 -0.7574  0.3836
 8601TIP3   OH247217   2.666   6.003   1.368 -0.3046 -0.0351  0.2419
 8601TIP3    H147218   2.616   5.923   1.385 -1.7025  1.0336  1.3606
 8601TIP3    H247219   2.607   6.074   1.391  1.6895  1.3136  1.5950
 8602TIP3   OH247220   2.251   0.843  16.854  0.0697 -0.4044  0.1406
 8602TIP3    H147221   2.260   0.931  16.892 -0.9366 -1.0757  2.0589
 8602TIP3    H247222   2.162   0.841  16.820  0.2794 -0.4989 -0.4056
 8603TIP3   OH247223   6.633   6.537  11.305  0.1336  0.1116 -0.2763
 8603TIP3    H147224   6.649   6.629  11.286 -0.4976  0.4373  0.6891
 8603TIP3    H247225   6.565   6.510  11.242  0.7346  0.1383 -0.9424
 8604TIP3   OH247226   1.844   6.525   2.603 -0.5163  0.9107 -0.1747
 8604TIP3    H147227   1.781   6.597   2.600  0.1610  1.5526  0.6674
 8604TIP3    H247228   1.926   6.566   2.632 -0.5057 -0.4455  1.9049
 8605TIP3   OH247229   6.650   0.605  15.199 -0.1664  0.2574  0.2968
 8605TIP3    H147230   6.609   0.538  15.144 -1.6839  0.4250  1.1570
 8605TIP3    H247231   6.627   0.580  15.288  0.0653  1.3954  0.6970
 8606TIP3   OH247232   1.303   5.396  17.193  0.0807 -0.4333 -0.2266
 8606TIP3    H147233   1.392   5.392  17.230 -0.3124 -2.2837  0.6453
 8606TIP3    H247234   1.246   5.399  17.270 -0.6390  1.3175 -0.7848
 8607TIP3   OH247235   5.087   6.585   0.124  0.0651  0.0303 -0.0256
 8607TIP3    H147236   5.040   6.533   0.059 -1.3698  0.8828  0.2844
 8607TIP3    H247237   5.057   6.675   0.110 -1.5916  0.0553  2.8117
 8608TIP3   OH247238   6.752   4.559   1.223  0.2036 -0.0563 -0.0550
 8608TIP3    H147239   6.747   4.643   1.269  0.5094  0.7387 -1.4059
 8608TIP3    H247240   6.759   4.583   1.130  0.9287 -1.5674 -0.4260
 8609TIP3   OH247241   3.527   4.588  10.763  0.8809  0.4717 -0.3398
 8609TIP3    H147242   3.568   4.664  10.722 -1.6078  2.4585  0.6127
 8609TIP3    H247243   3.445   4.577  10.716  0.6607 -0.9274  0.3271
 8610TIP3   OH247244   0.666   4.413  14.130 -0.2494 -0.1674 -0.0698
 8610TIP3    H147245   0.645   4.424  14.223  2.0908  2.1955  0.2888
 8610TIP3    H247246   0.730   4.342  14.128  0.4813  0.4685  0.2810
 8611TIP3   OH247247   1.236   6.482  14.582 -0.1469 -0.0626 -0.0605
 8611TIP3    H147248   1.235   6.575  14.604 -1.3263  0.3142 -1.4911
 8611TIP3    H247249   1.155   6.447  14.619 -1.8626  0.4601 -3.0242
 8612TIP3   OH247250   4.889   4.133  14.843 -0.1057  0.1885 -0.9192
 8612TIP3    H147251   4.836   4.053  14.840 -0.4497  0.4366 -1.8337
 8612TIP3    H247252   4.974   4.104  14.876 -0.9331 -0.1336  1.0375
 8613TIP3   OH247253   3.795   1.033  12.026  0.0550  0.1175 -0.1436
 8613TIP3    H147254   3.705   1.060  12.008 -0.2740 -1.7386 -1.7031
 8613TIP3    H247255   3.821   0.983  11.948  2.2358  0.0943  0.5162
 8614TIP3   OH247256   0.391   1.689  12.374 -0.0283  0.1138 -0.3228
 8614TIP3    H147257   0.477   1.709  12.337  0.2345  1.2563  0.8421
 8614TIP3    H247258   0.397   1.716  12.466 -0.9273 -1.8440  0.3755
 8615TIP3   OH247259   1.546   5.404  12.241  0.0331  0.8214  0.0907
 8615TIP3    H147260   1.572   5.313  12.257  1.7013  1.3290  0.4151
 8615TIP3    H247261   1.571   5.420  12.150 -0.3572  0.9322  0.0016
 8616TIP3   OH247262   0.177   2.536   3.094  0.1732  0.0908  0.2363
 8616TIP3    H147263   0.173   2.442   3.078 -1.3340  0.2429 -0.4701
 8616TIP3    H247264   0.111   2.552   3.162  0.0297  0.6948 -0.0330
 8617TIP3   OH247265   3.480   4.641   3.314  0.0251 -0.2431 -0.0046
 8617TIP3    H147266   3.408   4.663   3.255 -0.5650  0.3972  0.9297
 8617TIP3    H247267   3.559   4.647   3.259 -0.5257  0.1573 -0.7675
 8618TIP3   OH247268   1.808   1.817  13.550 -0.2520  0.2397 -0.1005
 8618TIP3    H147269   1.858   1.789  13.473  0.8985  0.9698  0.3511
 8618TIP3    H247270   1.870   1.809  13.622 -1.0932  0.2683  0.6333
 8619TIP3   OH247271   5.014   6.702   3.363 -0.1611  0.4495 -0.3665
 8619TIP3    H147272   5.068   6.623   3.359  2.6958  2.2035  0.1549
 8619TIP3    H247273   5.052   6.759   3.296 -1.4127  1.7881  0.0190
 8620TIP3   OH247274   0.889   1.432   4.418 -0.2768  0.6147  0.0520
 8620TIP3    H147275   0.918   1.479   4.496 -0.1995 -0.1670  0.5024
 8620TIP3    H247276   0.846   1.354   4.452 -1.2516  0.8214 -0.6619
 8621TIP3   OH247277   0.654   3.814  16.014 -0.2686  0.5308 -0.2975
 8621TIP3    H147278   0.605   3.756  16.072 -0.5217 -0.1254 -1.1421
 8621TIP3    H247279   0.695   3.755  15.951 -0.9533  1.3075 -1.4937
 8622TIP3   OH247280   1.039   3.570   3.681 -0.1962  0.0068 -0.1713
 8622TIP3    H147281   0.945   3.584   3.694 -0.1090  0.2526  0.1970
 8622TIP3    H247282   1.045   3.527   3.596 -0.8081 -1.8702  0.6821
 8623TIP3   OH247283   6.334   5.828   2.845 -0.0489 -0.0478 -0.5456
 8623TIP3    H147284   6.325   5.834   2.750  1.0071 -2.7582 -0.8995
 8623TIP3    H247285   6.292   5.744   2.867  0.2951  0.2321  1.2929
 8624TIP3   OH247286   2.396   0.910   4.484 -0.0834  0.8443 -0.5625
 8624TIP3    H147287   2.490   0.897   4.495 -0.1368  1.1156  0.2338
 8624TIP3    H247288   2.358   0.823   4.496 -0.1554  1.1274  1.6872
 8625TIP3   OH247289   0.326   0.804   5.441 -0.3838  0.1308  0.5374
 8625TIP3    H147290   0.405   0.829   5.489 -0.1111  0.8201 -0.2386
 8625TIP3    H247291   0.302   0.883   5.392  0.2707 -0.9490 -1.7044
 8626TIP3   OH247292   4.709   3.988   5.147  0.6060  0.3118  0.1364
 8626TIP3    H147293   4.766   4.059   5.116 -0.6973  0.6360 -1.7108
 8626TIP3    H247294   4.661   4.026   5.221 -0.2420  1.4805 -0.9776
 8627TIP3   OH247295   6.424   4.336  11.401  0.5765 -0.1483 -0.5511
 8627TIP3    H147296   6.425   4.421  11.357  0.0046  0.1559  0.0205
 8627TIP3    H247297   6.371   4.280  11.344  0.2459  0.1079 -0.4938
 8628TIP3   OH247298   2.285   2.177   1.080 -0.5367  0.0525 -0.3452
 8628TIP3    H147299   2.191   2.164   1.072 -0.9086  2.0769  0.1423
 8628TIP3    H247300   2.305   2.158   1.171 -0.8635  1.5096  0.0595
 8629TIP3   OH247301   0.630   2.074  14.214  0.3855  0.2946 -0.5348
 8629TIP3    H147302   0.600   2.130  14.143  1.5168 -0.8045 -1.9355
 8629TIP3    H247303   0.583   2.106  14.291  0.5624  2.7571 -1.3698
 8630TIP3   OH247304   0.338   0.232  15.201  0.4530  0.0576 -0.6904
 8630TIP3    H147305   0.361   0.231  15.108  0.9640  0.2707 -0.5712
 8630TIP3    H247306   0.399   0.295  15.240 -0.8223  1.2176 -0.4901
 8631TIP3   OH247307   4.951   6.658   5.308  0.0316 -0.0851 -0.4529
 8631TIP3    H147308   4.902   6.717   5.365  0.0719  1.6398 -2.0924
 8631TIP3    H247309   4.983   6.714   5.237  0.9452 -1.9116 -1.5704
 8632TIP3   OH247310   3.409   4.113  11.702  0.8042 -0.0287  0.8959
 8632TIP3    H147311   3.412   4.204  11.673  0.5996  0.0431  1.0980
 8632TIP3    H247312   3.316   4.090  11.701  0.7364  0.1245  1.9386
 8633TIP3   OH247313   6.069   6.649  14.530  0.1031 -0.5375 -0.1690
 8633TIP3    H147314   6.034   6.729  14.492  1.6744  0.0976 -0.3686
 8633TIP3    H247315   6.164   6.658  14.521  0.3888 -1.6812  1.2963
 8634TIP3   OH247316   3.037   5.070  11.397  0.3284  0.3610  0.2524
 8634TIP3    H147317   3.131   5.053  11.387  0.1072 -0.1525 -1.3233
 8634TIP3    H247318   2.999   4.985  11.420 -0.0453 -0.0791 -1.7776
 8635TIP3   OH247319   6.479   1.222   6.101  0.6034  0.3353 -0.5485
 8635TIP3    H147320   6.532   1.275   6.162 -0.4492  0.8171 -0.0341
 8635TIP3    H247321   6.544   1.178   6.045  1.6865 -1.0114  1.6216
 8636TIP3   OH247322   0.028   2.490  13.657  0.0111  0.0520  0.1655
 8636TIP3    H147323  -0.007   2.571  13.620 -0.0320  0.7922  1.7370
 8636TIP3    H247324   0.026   2.504  13.752  1.2696 -1.2638  0.4260
 8637TIP3   OH247325   5.172   3.007  16.058  0.0072  0.3644  0.4602
 8637TIP3    H147326   5.235   3.048  15.999  0.0552  0.1248  0.3400
 8637TIP3    H247327   5.144   2.928  16.011  1.4302 -0.8435  1.5267
 8638TIP3   OH247328   6.619   6.183  13.810  0.0527 -0.2996 -0.1252
 8638TIP3    H147329   6.653   6.121  13.875  1.5991 -0.1690 -0.7667
 8638TIP3    H247330   6.561   6.131  13.755  1.8456 -1.3927 -1.0689
 8639TIP3   OH247331   4.788   4.582   5.945 -0.0765  0.2178 -0.0234
 8639TIP3    H147332   4.793   4.556   6.037  0.0853  1.1044  0.2292
 8639TIP3    H247333   4.814   4.504   5.897 -1.5605 -0.7150  0.6164
 8640TIP3   OH247334   4.417   1.452  16.673 -0.3988  0.7159 -0.5396
 8640TIP3    H147335   4.496   1.409  16.638 -1.1501 -0.2505 -1.0915
 8640TIP3    H247336   4.354   1.447  16.602 -1.7845 -0.7634  0.7091
 8641TIP3   OH247337   6.470   2.403  15.238 -0.5896 -0.0570  0.2754
 8641TIP3    H147338   6.375   2.417  15.237 -0.4468  0.9703 -0.3438
 8641TIP3    H247339   6.487   2.353  15.159 -0.3856  1.6145 -0.7956
 8642TIP3   OH247340   1.291   1.448   5.990  0.2033 -0.4663 -0.0010
 8642TIP3    H147341   1.347   1.401   6.052  1.6202 -0.1183 -0.9466
 8642TIP3    H247342   1.347   1.518   5.956 -1.0334  0.3135 -0.5121
 8643TIP3   OH247343   1.103   6.543   4.329  0.5866  0.0124 -0.1572
 8643TIP3    H147344   1.171   6.560   4.393  0.4424  1.6611 -0.3963
 8643TIP3    H247345   1.054   6.626   4.323  0.0411 -0.3829 -1.7199
 8644TIP3   OH247346   1.891   5.801  15.824 -0.2723  0.1360 -0.0505
 8644TIP3    H147347   1.806   5.795  15.868 -0.2159  1.2918  0.2391
 8644TIP3    H247348   1.877   5.861  15.751  0.2453  0.1579 -0.1345
 8645TIP3   OH247349   6.312   0.020  13.551 -0.2038 -0.0179 -0.1426
 8645TIP3    H147350   6.350   0.075  13.620 -0.2420 -0.3353  0.1373
 8645TIP3    H247351   6.313  -0.069  13.588  4.5145 -1.2190 -2.3826
 8646TIP3   OH247352   0.584   5.226   1.823 -0.0851  0.3273 -0.4675
 8646TIP3    H147353   0.548   5.272   1.747  0.7050 -0.6907 -1.4791
 8646TIP3    H247354   0.616   5.296   1.880  0.0065  1.0860 -1.4271
 8647TIP3   OH247355   4.128   1.088   6.414 -0.3356 -0.0741 -0.0333
 8647TIP3    H147356   4.108   1.075   6.506 -1.0019  0.9994 -0.0098
 8647TIP3    H247357   4.204   1.032   6.398 -0.4793 -0.6005  1.0511
 8648TIP3   OH247358   3.800   5.867  11.251 -0.1058 -0.0468 -0.0448
 8648TIP3    H147359   3.855   5.924  11.198  0.1214 -0.5282 -0.3362
 8648TIP3    H247360   3.858   5.797  11.280 -0.4089 -0.2001  0.2000
 8649TIP3   OH247361   2.303   4.617  14.967  0.0008 -0.7199 -0.1202
 8649TIP3    H147362   2.300   4.564  15.047  0.3174 -0.3279  0.1544
 8649TIP3    H247363   2.375   4.678  14.981 -1.2206  0.7093  0.1389
 8650TIP3   OH247364   0.235   3.460  15.198 -0.1301  0.0853 -0.3847
 8650TIP3    H147365   0.173   3.389  15.215  1.0002 -0.9227 -0.3203
 8650TIP3    H247366   0.187   3.539  15.220 -1.0101 -0.7364  0.8364
 8651TIP3   OH247367   2.182   0.309  15.455  0.1238 -0.5595  0.3677
 8651TIP3    H147368   2.124   0.318  15.530  0.0937  0.0533  0.2720
 8651TIP3    H247369   2.222   0.395  15.444  3.6871 -1.7154  2.5524
 8652TIP3   OH247370   2.457   4.285  13.890  0.0958  0.2101  0.7168
 8652TIP3    H147371   2.376   4.248  13.854 -0.3371  1.0932  0.7533
 8652TIP3    H247372   2.482   4.353  13.827 -0.1196  1.0876  1.5422
 8653TIP3   OH247373   1.869   1.356   0.102 -0.5239  0.2365 -0.5229
 8653TIP3    H147374   1.846   1.289   0.166  1.1089 -0.8782 -1.0086
 8653TIP3    H247375   1.873   1.437   0.152  0.8545 -0.6264  0.8650
 8654TIP3   OH247376   1.069   0.585   2.386  0.3033  0.0754 -0.1023
 8654TIP3    H147377   1.145   0.586   2.328 -1.0803  0.6256 -1.9998
 8654TIP3    H247378   0.997   0.618   2.333 -1.3766 -0.7686  1.5077
 8655TIP3   OH247379   2.995   6.653  16.452  0.1855  0.2415 -0.3743
 8655TIP3    H147380   3.084   6.655  16.488 -0.1752  2.1928  0.5334
 8655TIP3    H247381   2.979   6.560  16.433  1.3165 -0.5871  2.2199
 8656TIP3   OH247382   3.957   0.675  16.568 -0.5158 -0.0778 -0.0236
 8656TIP3    H147383   3.873   0.714  16.545  0.2802  0.0888 -2.9399
 8656TIP3    H247384   4.022   0.742  16.547  0.5337 -1.1512 -0.2977
 8657TIP3   OH247385   6.445   1.891  16.256 -0.3094  0.3141 -0.1850
 8657TIP3    H147386   6.404   1.912  16.172  0.5614 -1.2012 -1.0354
 8657TIP3    H247387   6.398   1.814  16.287  0.5020 -0.1824 -0.1532
 8658TIP3   OH247388   0.430   1.079   1.275 -0.2799 -0.3328  0.5134
 8658TIP3    H147389   0.425   1.164   1.231  0.3465 -1.2142 -1.4032
 8658TIP3    H247390   0.397   1.095   1.363 -1.8584  1.5022 -0.3395
 8659TIP3   OH247391   6.385   2.286  17.016 -0.7137 -1.2852  0.4988
 8659TIP3    H147392   6.429   2.363  16.979  0.7372 -0.5359  3.5114
 8659TIP3    H247393   6.300   2.320  17.045 -1.1639 -1.4909 -0.5199
 8660TIP3   OH247394   3.913   2.931  15.157  0.6098  0.1571 -0.1756
 8660TIP3    H147395   3.915   2.845  15.114 -1.7293 -0.8685  1.4688
 8660TIP3    H247396   3.820   2.953  15.161  1.0965  2.3793  0.2704
 8661TIP3   OH247397   2.729   5.842  12.659 -0.9073  0.3012 -0.0938
 8661TIP3    H147398   2.780   5.770  12.696 -2.8931 -0.5048  1.2743
 8661TIP3    H247399   2.775   5.865  12.579  1.3013 -0.6614  0.8058
 8662TIP3   OH247400   5.694   2.269   4.595 -0.0063 -0.0333  0.6170
 8662TIP3    H147401   5.739   2.255   4.678  0.5911 -0.0228  0.3008
 8662TIP3    H247402   5.631   2.339   4.613  1.7018  1.6219  0.5009
 8663TIP3   OH247403   0.288   3.731   0.447 -0.1178 -0.3534 -0.0691
 8663TIP3    H147404   0.208   3.763   0.405  0.0436 -0.7738 -0.7065
 8663TIP3    H247405   0.350   3.718   0.375 -0.0491 -1.6940  0.2124
 8664TIP3   OH247406   4.449   2.183   3.231 -0.9044  0.7919 -0.5201
 8664TIP3    H147407   4.373   2.132   3.203 -1.8188  2.2791 -0.8224
 8664TIP3    H247408   4.456   2.166   3.325 -1.0677 -0.0205 -0.6464
 8665TIP3   OH247409   5.423   1.628  11.787 -0.5271  0.4229  0.2235
 8665TIP3    H147410   5.450   1.657  11.699  1.7670  0.5469  0.8931
 8665TIP3    H247411   5.499   1.646  11.842 -2.6246  2.3662  2.7413
 8666TIP3   OH247412   6.163   1.712   6.922  0.6349 -0.3917  0.4278
 8666TIP3    H147413   6.249   1.720   6.880  0.4499  2.0009  0.3925
 8666TIP3    H247414   6.142   1.619   6.914  1.9099 -0.5606 -2.2102
 8667TIP3   OH247415   0.851   5.869  12.908 -0.2829  0.3005  0.2550
 8667TIP3    H147416   0.771   5.922  12.908  0.4209  1.4315  1.5876
 8667TIP3    H247417   0.889   5.884  12.821  0.5523  3.1248  0.9767
 8668TIP3   OH247418   2.260   1.045   5.649  0.0039  0.5004 -0.1823
 8668TIP3    H147419   2.209   1.037   5.729 -0.7245  0.1500 -0.6679
 8668TIP3    H247420   2.312   1.125   5.661 -0.6234  0.8346  0.3444
 8669TIP3   OH247421   2.553   6.689   2.727 -0.0869 -0.4772  0.0661
 8669TIP3    H147422   2.511   6.775   2.731  0.9649  0.0164  0.8905
 8669TIP3    H247423   2.487   6.629   2.760 -0.8279  0.0082 -0.4978
 8670TIP3   OH247424   4.970   1.754   2.995 -0.1819  0.5369  0.0959
 8670TIP3    H147425   4.884   1.717   3.016 -0.2597  0.8260  0.2997
 8670TIP3    H247426   5.002   1.789   3.078  1.8658 -2.9286  0.9441
 8671TIP3   OH247427   5.611   4.055  15.974  0.1355 -0.6615 -0.2065
 8671TIP3    H147428   5.680   4.002  16.015  0.0380  0.1717  1.0904
 8671TIP3    H247429   5.658   4.122  15.925  0.3334  0.9303  2.0124
 8672TIP3   OH247430   3.623   5.317   3.923 -0.4468  0.0963 -0.1611
 8672TIP3    H147431   3.718   5.303   3.926 -0.2685  1.2088 -0.3412
 8672TIP3    H247432   3.609   5.372   3.846 -1.1851  0.3453  0.1444
 8673TIP3   OH247433   5.668   0.712  13.880 -0.1152 -0.4389 -0.1284
 8673TIP3    H147434   5.713   0.746  13.802 -1.0416  0.7151 -0.1796
 8673TIP3    H247435   5.604   0.650  13.845  0.5636 -1.1565 -0.1420
 8674TIP3   OH247436   4.538   1.472  10.930  0.0113 -0.2115  0.0196
 8674TIP3    H147437   4.540   1.397  10.989  2.2570  0.4456  0.8540
 8674TIP3    H247438   4.527   1.548  10.987 -2.7162  0.1536 -0.8486
 8675TIP3   OH247439   5.767   4.222   1.482  1.1290  0.2544  0.5658
 8675TIP3    H147440   5.672   4.213   1.466  1.1820  0.1547  0.2900
 8675TIP3    H247441   5.794   4.290   1.421  1.5656 -1.0074 -0.7031
 8676TIP3   OH247442   3.713   1.760  14.469  0.8228 -0.0262  0.1270
 8676TIP3    H147443   3.724   1.752  14.375 -0.0540  0.9565 -0.0785
 8676TIP3    H247444   3.731   1.852  14.488  2.7277 -0.5713  1.1903
 8677TIP3   OH247445   0.148   2.691   6.370 -0.0549  0.2714 -0.0672
 8677TIP3    H147446   0.181   2.662   6.455 -0.0756 -0.2155 -0.2224
 8677TIP3    H247447   0.166   2.785   6.368 -2.0059  0.7412  1.3718
 8678TIP3   OH247448   1.260   4.569   3.139 -0.0559  0.2579  0.6894
 8678TIP3    H147449   1.255   4.491   3.083 -1.1785 -0.8970  2.3100
 8678TIP3    H247450   1.261   4.534   3.228 -3.0077  2.1224  1.5781
 8679TIP3   OH247451   1.921   2.602  11.802 -0.0897  0.0910  0.2857
 8679TIP3    H147452   1.961   2.654  11.732 -0.1805 -0.2135  0.0050
 8679TIP3    H247453   1.920   2.512  11.768 -0.2482 -0.0391  0.6276
 8680TIP3   OH247454   6.560   1.229   3.134 -0.8122  0.5612 -0.2123
 8680TIP3    H147455   6.548   1.238   3.039 -0.9299  1.2603 -0.1359
 8680TIP3    H247456   6.495   1.163   3.159 -1.3978  1.0200 -0.4897
 8681TIP3   OH247457   1.094   4.303   2.480  0.4030  0.1116  0.1769
 8681TIP3    H147458   1.076   4.228   2.537 -0.6582 -0.3311 -0.7081
 8681TIP3    H247459   1.057   4.378   2.527 -0.4660 -0.2495  0.0843
 8682TIP3   OH247460   0.709   1.205   4.620 -1.3469  0.1680 -0.2168
 8682TIP3    H147461   0.729   1.178   4.710 -0.2268 -0.3662 -0.6017
 8682TIP3    H247462   0.739   1.132   4.566 -2.8810  0.0750 -0.9821
 8683TIP3   OH247463   5.492   1.034   3.060 -0.0355 -0.3257 -0.6049
 8683TIP3    H147464   5.499   1.011   3.152 -1.0919  0.4762 -0.3128
 8683TIP3    H247465   5.492   1.129   3.058 -1.9537 -0.2967 -1.2460
 8684TIP3   OH247466   1.954   3.154   3.499  0.5893  0.3735 -0.2910
 8684TIP3    H147467   1.898   3.212   3.448  1.8595  0.5204 -1.5867
 8684TIP3    H247468   1.989   3.210   3.568  0.7034  0.7890 -0.6825
 8685TIP3   OH247469   0.808   6.316  14.042  0.2624  0.0963  0.3194
 8685TIP3    H147470   0.846   6.229  14.049 -0.4465 -0.3136 -0.6594
 8685TIP3    H247471   0.877   6.370  14.004  0.2013 -0.4258 -0.5760
 8686TIP3   OH247472   5.046   6.047  15.128 -0.1038  0.3188 -0.2707
 8686TIP3    H147473   5.018   5.957  15.142 -0.4609  0.4625 -0.0043
 8686TIP3    H247474   5.140   6.042  15.111  0.6046  0.1559  3.0369
 8687TIP3   OH247475   5.931   4.025  14.714 -0.2392  0.9088 -0.4895
 8687TIP3    H147476   5.924   3.929  14.707  0.4083  0.8731 -0.7731
 8687TIP3    H247477   5.841   4.056  14.711 -0.4396  0.3226 -0.7563
 8688TIP3   OH247478   1.103   3.681   3.425 -0.8680  0.0784  0.8917
 8688TIP3    H147479   1.087   3.770   3.394 -0.9800 -0.4526 -0.6542
 8688TIP3    H247480   1.026   3.631   3.396 -0.8822 -0.5138  1.8729
 8689TIP3   OH247481   3.029   2.505  12.225  0.2317  0.4386 -0.5777
 8689TIP3    H147482   3.017   2.586  12.175 -0.5750 -0.2903 -1.5840
 8689TIP3    H247483   3.123   2.502  12.244  0.7597  0.1796 -3.0054
 8690TIP3   OH247484   0.974   1.428   3.665  0.0955 -0.3390  0.2177
 8690TIP3    H147485   0.892   1.470   3.692  0.8359  0.6350  1.0477
 8690TIP3    H247486   0.995   1.468   3.580 -0.8256 -1.3762 -0.5106
 8691TIP3   OH247487   5.613   4.434   5.228 -0.3886  0.2761  0.1364
 8691TIP3    H147488   5.634   4.341   5.217 -3.0119 -0.5287  1.0656
 8691TIP3    H247489   5.694   4.474   5.258  0.7923 -1.7279 -0.2217
 8692TIP3   OH247490   0.641   3.862  15.134  0.1024  0.3129  0.7507
 8692TIP3    H147491   0.578   3.817  15.078 -1.6930 -0.5842  3.3039
 8692TIP3    H247492   0.706   3.795  15.157 -0.9168 -0.2297  2.1754
 8693TIP3   OH247493   3.677   6.539  16.877 -0.3112 -0.0939 -0.3500
 8693TIP3    H147494   3.678   6.471  16.944 -0.7557 -0.3629 -0.6082
 8693TIP3    H247495   3.670   6.490  16.794 -1.5925  0.2833 -0.4924
 8694TIP3   OH247496   0.498   0.688   6.802  0.6379 -0.4281 -0.4387
 8694TIP3    H147497   0.550   0.757   6.760  1.2482 -1.1478 -0.8946
 8694TIP3    H247498   0.555   0.654   6.872  0.0265  0.0632  0.3092
 8695TIP3   OH247499   1.311   4.610   2.775 -0.1960  0.1927 -0.3529
 8695TIP3    H147500   1.390   4.565   2.745  0.6056  0.3144  1.4400
 8695TIP3    H247501   1.261   4.543   2.820 -0.9226  0.2196 -1.1035
 8696TIP3   OH247502   1.366   2.430  14.170 -0.3652 -0.4756 -0.2396
 8696TIP3    H147503   1.427   2.427  14.244 -1.1913  1.2661  0.5601
 8696TIP3    H247504   1.395   2.359  14.113  0.7283 -1.4400  1.4131
 8697TIP3   OH247505   3.135   5.366  15.508 -0.1326  0.2118 -0.2116
 8697TIP3    H147506   3.147   5.421  15.585 -1.7960  2.3057 -1.3377
 8697TIP3    H247507   3.084   5.292  15.539  0.9817 -0.0625  1.0644
 8698TIP3   OH247508   5.314   5.673   5.569  0.1316  0.0872 -0.5205
 8698TIP3    H147509   5.345   5.755   5.530 -1.5363 -0.0047 -2.1930
 8698TIP3    H247510   5.283   5.698   5.656 -2.3784  1.7807 -1.7780
 8699TIP3   OH247511   4.394   4.757  10.848  0.2751 -0.7991 -0.2944
 8699TIP3    H147512   4.487   4.734  10.841  0.6318  0.2330  0.6318
 8699TIP3    H247513   4.357   4.691  10.906  0.2513 -1.6629 -1.2827
 8700TIP3   OH247514   2.017   4.480  13.363 -0.3040  0.3561 -0.2141
 8700TIP3    H147515   2.020   4.401  13.310 -0.8623  0.0282  0.2406
 8700TIP3    H247516   1.950   4.463  13.429  0.4007  0.7398  0.6252
 8701TIP3   OH247517   2.106   1.808   2.863 -0.0787  0.1871  0.8037
 8701TIP3    H147518   2.095   1.737   2.799 -1.2479  1.3087 -0.2888
 8701TIP3    H247519   2.037   1.791   2.928  0.3417 -0.2759  1.1378
 8702TIP3   OH247520   6.679   4.809   3.728 -0.3270 -0.3159  0.4891
 8702TIP3    H147521   6.748   4.799   3.794 -0.2018 -0.4951  0.3301
 8702TIP3    H247522   6.726   4.814   3.645 -0.4320  0.7406  0.4825
 8703TIP3   OH247523   2.944   5.395  11.588  0.3367 -0.1502 -0.0073
 8703TIP3    H147524   2.961   5.489  11.593 -2.5917  0.4746 -0.0375
 8703TIP3    H247525   2.933   5.369  11.679  0.5010 -0.3498 -0.0438
 8704TIP3   OH247526   3.319   5.299   1.794  0.0936 -0.0168 -0.4150
 8704TIP3    H147527   3.323   5.342   1.880 -0.8093  1.5850 -1.1248
 8704TIP3    H247528   3.410   5.297   1.765  0.2318  0.8354 -0.0727
 8705TIP3   OH247529   2.673   5.264  12.341 -0.2076 -0.4848 -0.0216
 8705TIP3    H147530   2.652   5.257  12.434 -2.3224 -0.4937 -0.4483
 8705TIP3    H247531   2.656   5.356  12.319  2.4046  0.0906  0.0097
 8706TIP3   OH247532   6.587   1.015   0.603 -0.8278  0.2395  0.3820
 8706TIP3    H147533   6.510   1.031   0.658  0.8866 -0.2782  3.0870
 8706TIP3    H247534   6.631   0.941   0.644 -0.1704 -1.1955 -2.6205
 8707TIP3   OH247535   6.629   4.145  17.187  0.3355  0.8139 -0.3529
 8707TIP3    H147536   6.614   4.098  17.105 -1.8490  0.7971  0.0079
 8707TIP3    H247537   6.709   4.106  17.223  0.4063 -0.3085 -1.6761
 8708TIP3   OH247538   5.711   2.855   4.509  0.1028  0.1912  0.1618
 8708TIP3    H147539   5.726   2.887   4.597 -2.1716  0.8009  0.3841
 8708TIP3    H247540   5.620   2.826   4.509  0.6316 -1.7622 -1.4202
 8709TIP3   OH247541   6.228   2.562   1.007 -0.3712 -0.5653 -0.2378
 8709TIP3    H147542   6.248   2.653   1.029 -0.3303 -0.4525 -0.7314
 8709TIP3    H247543   6.158   2.537   1.068 -1.0536  0.1031 -0.7201
 8710TIP3   OH247544   4.385   4.376   5.753  0.4018  0.0937  0.3905
 8710TIP3    H147545   4.476   4.356   5.777 -0.0238 -0.6252  1.4829
 8710TIP3    H247546   4.336   4.361   5.834 -0.5222  1.7392  0.1872
 8711TIP3   OH247547   5.271   0.749   4.341 -0.2669 -0.1776 -0.5479
 8711TIP3    H147548   5.237   0.830   4.305 -0.1455  0.4800  0.7621
 8711TIP3    H247549   5.358   0.740   4.302 -0.7103 -0.2687 -1.5391
 8712TIP3   OH247550   1.577   2.093   3.396 -0.3266 -0.3796 -0.1556
 8712TIP3    H147551   1.495   2.078   3.443 -0.6101  0.3976 -0.3890
 8712TIP3    H247552   1.632   2.019   3.420 -1.3914 -1.3668 -0.6756
 8713TIP3   OH247553   2.877   3.193  11.500  0.3143 -0.4608  0.8944
 8713TIP3    H147554   2.788   3.208  11.468  0.6613  1.8237  0.8533
 8713TIP3    H247555   2.866   3.138  11.577 -1.0352 -1.0957  0.2670
 8714TIP3   OH247556   2.124   5.127   4.432 -0.0990 -0.0485 -0.3132
 8714TIP3    H147557   2.137   5.041   4.391 -0.2724 -0.2830  0.1206
 8714TIP3    H247558   2.196   5.180   4.399  1.5443 -1.0774  1.4077
 8715TIP3   OH247559   1.071   5.005  10.603 -0.1611 -0.2133 -0.1881
 8715TIP3    H147560   1.120   4.926  10.578 -1.3856 -0.2205 -2.8933
 8715TIP3    H247561   0.979   4.979  10.599 -0.5396  0.9860  0.2502
 8716TIP3   OH247562   4.330   0.202   2.450  0.8484  0.5345  0.4170
 8716TIP3    H147563   4.258   0.234   2.505 -0.2411 -0.7428 -0.1991
 8716TIP3    H247564   4.403   0.189   2.511 -0.4271 -1.1747  1.6856
 8717TIP3   OH247565   2.350   2.672  11.633 -0.6930 -0.0051 -0.4050
 8717TIP3    H147566   2.378   2.627  11.553 -0.6485 -1.2111  0.2513
 8717TIP3    H247567   2.421   2.733  11.652 -0.1988 -0.4641 -0.7235
 8718TIP3   OH247568   6.455   5.684  12.753 -0.2999  0.2846 -0.0894
 8718TIP3    H147569   6.521   5.726  12.699 -0.1366 -0.0931 -0.1895
 8718TIP3    H247570   6.399   5.637  12.691 -1.1894  1.3038 -0.0847
 8719TIP3   OH247571   0.273   1.651   4.177 -0.1417 -0.2990  0.6209
 8719TIP3    H147572   0.363   1.639   4.206 -1.0084 -2.6060  2.7237
 8719TIP3    H247573   0.239   1.721   4.234  0.1243  0.1635  0.2226
 8720TIP3   OH247574   4.718   4.782   4.342 -0.3844  0.6140  0.3315
 8720TIP3    H147575   4.696   4.695   4.308 -0.1251  1.8839 -3.6109
 8720TIP3    H247576   4.812   4.779   4.356 -0.5297 -0.0077  1.2805
 8721TIP3   OH247577   6.013   3.499   2.841  0.0544  0.5243 -0.2999
 8721TIP3    H147578   5.962   3.451   2.906 -0.2171 -0.0350 -0.9254
 8721TIP3    H247579   5.986   3.590   2.853  0.4971  0.5269  0.8170
 8722TIP3   OH247580   0.008   4.302  12.358 -0.3907 -0.2160 -0.1891
 8722TIP3    H147581  -0.071   4.348  12.330  0.6992  1.2766 -0.9702
 8722TIP3    H247582  -0.001   4.214  12.320 -2.3118 -0.5773  0.9590
 8723TIP3   OH247583   2.806   3.481   4.359 -0.3972 -0.1602  0.1586
 8723TIP3    H147584   2.809   3.493   4.454  0.3872  0.4957  0.0599
 8723TIP3    H247585   2.838   3.391   4.346  2.2060  0.6599  0.3688
 8724TIP3   OH247586   4.950   0.810  15.273  0.0589 -0.3642 -0.2176
 8724TIP3    H147587   4.988   0.778  15.355 -1.7547 -2.1541  0.0221
 8724TIP3    H247588   4.965   0.905  15.274  2.1283 -0.6543  1.0287
 8725TIP3   OH247589   6.102   1.321  11.863 -0.0556 -0.6170 -0.2374
 8725TIP3    H147590   6.088   1.414  11.849 -0.9703 -1.0028 -2.1922
 8725TIP3    H247591   6.139   1.289  11.781  0.2964 -1.9889  0.4141
 8726TIP3   OH247592   0.138   2.793  17.299  0.2757  0.1774  0.0891
 8726TIP3    H147593   0.118   2.728  17.366 -0.0223  0.3895  0.2099
 8726TIP3    H247594   0.233   2.804  17.302  0.3510 -0.4117 -0.0808
 8727TIP3   OH247595   2.637   4.218   2.117  0.0120  0.2095 -0.5511
 8727TIP3    H147596   2.548   4.245   2.094  0.3678  3.4788  1.2469
 8727TIP3    H247597   2.682   4.208   2.033 -1.8775 -1.1035 -1.4765
 8728TIP3   OH247598   4.369   3.405   4.745 -0.7121 -0.0527  0.0003
 8728TIP3    H147599   4.442   3.349   4.773 -0.2173  0.5988  0.0214
 8728TIP3    H247600   4.401   3.494   4.755 -0.9461  0.2327 -1.4925
 8729TIP3   OH247601   2.546   5.937   5.926 -0.0214 -0.0401 -0.0781
 8729TIP3    H147602   2.604   5.913   5.854  1.8417  0.5940  1.1553
 8729TIP3    H247603   2.469   5.881   5.914  1.2091 -1.5675 -1.2497
 8730TIP3   OH247604   4.413   3.266   1.573 -0.2967  0.2268  0.2350
 8730TIP3    H147605   4.457   3.311   1.645 -2.0052  1.0797  0.8193
 8730TIP3    H247606   4.392   3.336   1.511  1.2794 -0.5167 -1.2111
 8731TIP3   OH247607   4.373   2.333  11.880 -0.0118 -0.5685 -0.3564
 8731TIP3    H147608   4.301   2.281  11.915 -0.5635 -0.4594 -1.2985
 8731TIP3    H247609   4.437   2.269  11.849  0.3139 -0.6649  0.4850
 8732TIP3   OH247610   3.130   3.445  15.507 -0.4074 -0.1011  0.1978
 8732TIP3    H147611   3.129   3.540  15.507 -0.3353 -0.0755 -1.4988
 8732TIP3    H247612   3.079   3.420  15.585 -0.6443  1.3021  0.5088
 8733TIP3   OH247613   5.519   1.628   3.565  0.6085 -0.3175 -0.2958
 8733TIP3    H147614   5.547   1.537   3.556  1.3089  0.0268 -1.9966
 8733TIP3    H247615   5.514   1.642   3.659  2.2278 -1.5977  0.0268
 8734TIP3   OH247616   5.208   5.325   3.059 -0.1164 -0.1273  0.3660
 8734TIP3    H147617   5.273   5.263   3.092  3.2125  3.7985  2.1648
 8734TIP3    H247618   5.143   5.332   3.129 -0.0044 -0.9009  0.5516
 8735TIP3   OH247619   2.973   1.289   5.093  0.5688  0.0478 -0.8150
 8735TIP3    H147620   2.910   1.227   5.057 -1.3211  1.2925  0.1452
 8735TIP3    H247621   3.047   1.236   5.121 -0.7347 -1.6908 -0.5262
 8736TIP3   OH247622   0.213   2.535   1.476  0.6811 -0.4704  0.2175
 8736TIP3    H147623   0.151   2.600   1.443 -0.6818 -0.4651  2.6289
 8736TIP3    H247624   0.277   2.586   1.525  1.2711 -0.7128 -0.2851
 8737TIP3   OH247625   0.683   2.176  13.333  0.3386 -0.3859 -0.3774
 8737TIP3    H147626   0.637   2.143  13.410 -2.6433  1.2984 -1.2905
 8737TIP3    H247627   0.720   2.259  13.362  2.1067 -1.2826  0.0766
 8738TIP3   OH247628   2.338   5.118  14.320  0.6615 -0.0479 -0.3371
 8738TIP3    H147629   2.244   5.098  14.324  0.5073 -0.0083 -2.4852
 8738TIP3    H247630   2.351   5.150  14.230  2.7921 -0.3611 -0.1756
 8739TIP3   OH247631   0.951   6.229  12.095  0.6746 -0.6176 -0.4316
 8739TIP3    H147632   0.959   6.322  12.118 -0.3230 -0.0916 -2.0709
 8739TIP3    H247633   0.866   6.222  12.053  1.4727 -1.9268 -1.9169
 8740TIP3   OH247634   3.371   2.665   4.911 -0.1422  0.8396 -0.4351
 8740TIP3    H147635   3.416   2.593   4.867 -0.8795 -0.3358  0.6669
 8740TIP3    H247636   3.289   2.676   4.862 -0.6837 -0.0594  0.2373
 8741TIP3   OH247637   3.385   4.114  14.950 -0.4020  0.1287 -0.6967
 8741TIP3    H147638   3.324   4.184  14.974  0.9810  1.6922 -1.5603
 8741TIP3    H247639   3.472   4.153  14.960  0.4327 -1.5257 -1.0842
 8742TIP3   OH247640   1.610   4.081  14.479  0.2179  0.5691 -0.0049
 8742TIP3    H147641   1.663   4.007  14.449 -0.3887 -0.5296  1.5396
 8742TIP3    H247642   1.673   4.140  14.521  0.2709 -0.8058  1.9728
 8743TIP3   OH247643   3.743   3.696   1.291 -0.2751 -0.2339  0.4058
 8743TIP3    H147644   3.651   3.703   1.318 -0.2016 -1.1200  0.8928
 8743TIP3    H247645   3.785   3.772   1.331 -1.1054  1.1865 -1.2385
 8744TIP3   OH247646   6.360   4.182  14.131 -0.2935 -0.3797  0.4691
 8744TIP3    H147647   6.274   4.201  14.093 -0.8350  0.8935  2.1580
 8744TIP3    H247648   6.348   4.099  14.177 -0.3495 -0.6811 -0.0919
 8745TIP3   OH247649   5.844   6.028   5.711 -0.3862  0.4595  0.2723
 8745TIP3    H147650   5.793   5.980   5.645  0.7643 -2.0790  1.1089
 8745TIP3    H247651   5.878   6.104   5.665 -1.6762  0.1148 -1.3418
 8746TIP3   OH247652   1.775   5.197  16.222 -0.2481 -0.4989  0.0808
 8746TIP3    H147653   1.717   5.235  16.156 -0.5867 -1.2451 -0.0571
 8746TIP3    H247654   1.862   5.202  16.184 -0.3123 -0.0291 -0.0110
 8747TIP3   OH247655   5.345   4.278   4.832  0.3438 -0.2958  0.2442
 8747TIP3    H147656   5.250   4.269   4.821  0.1862  1.1433  0.1766
 8747TIP3    H247657   5.354   4.341   4.904  1.2771 -1.7587  1.4612
 8748TIP3   OH247658   2.187   2.529   2.880  0.2377  0.8513 -0.0246
 8748TIP3    H147659   2.121   2.503   2.815 -0.3664 -1.8783  1.5151
 8748TIP3    H247660   2.269   2.532   2.831 -0.4957  0.8228 -1.3013
 8749TIP3   OH247661   0.738   0.186  11.403  0.0010  0.4098 -0.1793
 8749TIP3    H147662   0.800   0.133  11.353 -0.2420 -0.9165  0.8457
 8749TIP3    H247663   0.777   0.191  11.491 -0.5889  0.8825  0.0630
 8750TIP3   OH247664   0.425   6.726   1.452  0.3114  0.2313  0.4225
 8750TIP3    H147665   0.394   6.816   1.447  0.1426  0.4002  3.2108
 8750TIP3    H247666   0.351   6.673   1.423 -0.5144  0.8980  1.2680
 8751TIP3   OH247667   0.058   6.275  15.223  0.7659 -0.1930 -0.4457
 8751TIP3    H147668  -0.000   6.199  15.231  0.8212 -0.2167 -0.2740
 8751TIP3    H247669   0.064   6.290  15.129 -0.5424  0.5948 -0.4228
 8752TIP3   OH247670   3.287   0.279   0.598  0.5169  0.0354  0.1153
 8752TIP3    H147671   3.348   0.206   0.596  1.3982  0.5333  3.4001
 8752TIP3    H247672   3.342   0.356   0.612 -0.6432  0.9392 -0.1204
 8753TIP3   OH247673   2.606   1.165  16.966 -0.2268  0.0705 -0.0827
 8753TIP3    H147674   2.670   1.171  17.037  0.1127  1.7850 -0.4916
 8753TIP3    H247675   2.533   1.220  16.994  0.1975  1.3135 -1.3152
 8754TIP3   OH247676   3.061   3.949  17.035 -1.2128  0.0164  0.0223
 8754TIP3    H147677   3.093   3.859  17.047  3.0963  0.4717 -4.6200
 8754TIP3    H247678   3.122   4.003  17.086 -2.0708  0.4823  0.5790
 8755TIP3   OH247679   2.479   5.314   5.680 -0.2567  0.7776  0.1788
 8755TIP3    H147680   2.545   5.254   5.714  0.1372  1.6370  0.9718
 8755TIP3    H247681   2.398   5.290   5.725  0.2321  1.8280  1.7048
 8756TIP3   OH247682   6.450   4.672   2.744  0.0309  0.2802 -0.1089
 8756TIP3    H147683   6.505   4.595   2.734 -0.1555  0.1134  0.1398
 8756TIP3    H247684   6.408   4.684   2.659 -0.0065  0.0567 -0.1204
 8757TIP3   OH247685   4.498   0.463   3.496 -0.4322 -0.2230  0.8056
 8757TIP3    H147686   4.475   0.491   3.584 -0.8867  0.6219  0.4297
 8757TIP3    H247687   4.577   0.513   3.475  1.1609 -2.2674  1.6577
 8758TIP3   OH247688   3.933   0.895   4.940  0.0542 -0.5822 -0.4856
 8758TIP3    H147689   4.006   0.933   4.892  1.0562 -0.7225  0.8400
 8758TIP3    H247690   3.949   0.800   4.936 -1.5317 -0.8367 -2.3934
 8759TIP3   OH247691   2.555   0.387  15.364 -0.2740  0.7218 -0.4883
 8759TIP3    H147692   2.476   0.413  15.316  0.0189 -0.5066 -1.7048
 8759TIP3    H247693   2.613   0.351  15.296  1.0347  0.9226  0.4916
 8760TIP3   OH247694   3.555   4.732   6.023  0.4093  0.3129  0.1647
 8760TIP3    H147695   3.577   4.676   6.097 -2.4906  0.2019  1.0663
 8760TIP3    H247696   3.563   4.676   5.946  0.5072 -0.4545  0.7313
 8761TIP3   OH247697   6.611   3.417   2.420 -0.3687 -0.2312  0.1335
 8761TIP3    H147698   6.608   3.321   2.417  2.1083 -0.4599  1.8660
 8761TIP3    H247699   6.613   3.444   2.329 -4.8341 -1.4932 -0.6122
 8762TIP3   OH247700   3.224   6.665   5.074 -0.7652 -0.1738  0.7150
 8762TIP3    H147701   3.307   6.711   5.082 -0.6671 -0.0339 -0.7537
 8762TIP3    H247702   3.187   6.697   4.991 -1.2451 -1.8686  0.2315
 8763TIP3   OH247703   3.724   1.987  11.626 -0.2683  0.1247 -0.1287
 8763TIP3    H147704   3.810   2.000  11.586  0.0834  0.7989  0.8149
 8763TIP3    H247705   3.739   1.997  11.720 -1.8134  3.0002 -0.0633
 8764TIP3   OH247706   5.615   5.234  17.170 -0.2503  0.6244  0.2260
 8764TIP3    H147707   5.571   5.164  17.123  0.6107  1.3240 -1.7546
 8764TIP3    H247708   5.709   5.219  17.153 -0.0064  1.6888  0.5547
 8765TIP3   OH247709   5.398   4.387  12.215 -0.2765  0.8943  0.4045
 8765TIP3    H147710   5.347   4.399  12.136 -0.9353 -0.5048  0.6068
 8765TIP3    H247711   5.336   4.356  12.280  0.5886  0.3702  1.0020
 8766TIP3   OH247712   0.466   3.975   5.644 -0.2582  0.1345 -0.4862
 8766TIP3    H147713   0.473   4.056   5.694  1.9551  0.1036 -0.6820
 8766TIP3    H247714   0.529   3.915   5.684  0.2672 -0.4938 -2.1451
 8767TIP3   OH247715   0.858   6.653  13.660 -0.2735 -0.2661  0.6888
 8767TIP3    H147716   0.922   6.705  13.709 -0.5126 -0.5830  1.3469
 8767TIP3    H247717   0.869   6.564  13.692 -1.0296 -0.3289  0.8016
 8768TIP3   OH247718   0.200   1.903   0.587  0.4598 -0.3133 -0.0899
 8768TIP3    H147719   0.184   1.997   0.594  0.1232 -0.4230  0.6538
 8768TIP3    H247720   0.247   1.893   0.504 -1.0304  0.3135 -1.0448
 8769TIP3   OH247721   1.951   6.400   4.052 -0.7658 -0.0753 -0.5582
 8769TIP3    H147722   1.896   6.381   4.128 -1.8185  1.0217 -1.0162
 8769TIP3    H247723   1.898   6.377   3.976 -0.6832  1.1230 -1.0100
 8770TIP3   OH247724   2.544   6.009   5.122 -0.1502 -0.3512 -0.3606
 8770TIP3    H147725   2.504   6.096   5.124 -3.3002 -1.7066  0.9473
 8770TIP3    H247726   2.518   5.972   5.038 -0.2388 -0.6540 -0.2007
 8771TIP3   OH247727   6.636   3.491   3.222 -0.4417 -0.0520 -0.0501
 8771TIP3    H147728   6.686   3.572   3.220 -2.2001  1.0734 -1.8907
 8771TIP3    H247729   6.674   3.437   3.153  0.6002 -0.7774  1.0453
 8772TIP3   OH247730   4.879   1.292   5.173 -0.3761 -0.1884 -0.2603
 8772TIP3    H147731   4.857   1.241   5.095 -3.3541 -1.5106  1.2996
 8772TIP3    H247732   4.940   1.237   5.222 -1.0403 -0.8057 -0.1233
 8773TIP3   OH247733   6.254   6.679  13.943  0.4975 -0.2992 -0.4822
 8773TIP3    H147734   6.287   6.612  14.003  1.0067  1.9720  1.9102
 8773TIP3    H247735   6.330   6.704  13.891  0.5633 -0.7830 -0.6267
 8774TIP3   OH247736   3.829   0.453  14.147 -0.3130  0.0786  0.1070
 8774TIP3    H147737   3.779   0.531  14.125 -1.9551 -1.1233 -0.6555
 8774TIP3    H247738   3.907   0.457  14.091 -1.7851 -0.2279 -2.0878
 8775TIP3   OH247739   4.875   6.079  14.085  0.6530  0.0552  0.6699
 8775TIP3    H147740   4.827   6.022  14.026 -0.9601  2.2927 -0.3449
 8775TIP3    H247741   4.966   6.073  14.056 -0.0082  0.6863 -1.8053
 8776TIP3   OH247742   0.761   0.008   2.999  0.4683 -0.1173 -0.7034
 8776TIP3    H147743   0.672   0.042   3.005 -0.0234 -0.5666 -3.9742
 8776TIP3    H247744   0.751  -0.087   3.010  0.7215 -0.0824 -0.0893
 8777TIP3   OH247745   2.725   4.895  14.055 -0.5995 -0.1790  0.4279
 8777TIP3    H147746   2.807   4.877  14.101 -0.9187 -0.9005  0.7183
 8777TIP3    H247747   2.681   4.810  14.050 -1.8655  0.3856  1.3254
 8778TIP3   OH247748   5.253   4.418   1.954 -0.5287  0.1353  0.6520
 8778TIP3    H147749   5.244   4.420   2.049 -0.3410  0.2040  0.6684
 8778TIP3    H247750   5.179   4.470   1.922 -0.5378  0.1902  0.7633
 8779TIP3   OH247751   0.368   5.029   2.583  0.2352 -0.2184  1.0906
 8779TIP3    H147752   0.426   5.098   2.550 -2.6428  2.1487  0.5409
 8779TIP3    H247753   0.361   5.046   2.677 -1.5354  1.2581  0.7571
 8780TIP3   OH247754   6.262   4.189  11.224 -0.3488  0.0043 -0.6902
 8780TIP3    H147755   6.273   4.190  11.129 -1.5975  0.3893 -0.8541
 8780TIP3    H247756   6.291   4.101  11.251 -0.2522 -0.2057 -1.4622
 8781TIP3   OH247757   3.949   2.912  11.041  0.4372  0.2997 -0.2623
 8781TIP3    H147758   4.044   2.911  11.046  0.4511 -0.4815 -0.5430
 8781TIP3    H247759   3.929   2.962  10.961  0.5858  1.0576  0.1689
 8782TIP3   OH247760   0.892   5.911   6.165  0.0932  0.2086  0.9656
 8782TIP3    H147761   0.885   5.977   6.234 -0.7515  1.6709 -0.4300
 8782TIP3    H247762   0.807   5.914   6.120  1.4209  1.1907 -1.7094
 8783TIP3   OH247763   2.419   4.920  14.690  0.1174  0.1859 -0.0247
 8783TIP3    H147764   2.463   4.899  14.772  0.7707 -0.2697 -0.4814
 8783TIP3    H247765   2.422   4.839  14.639 -0.3758  0.4336 -0.4579
 8784TIP3   OH247766   5.380   5.473   3.800 -0.1940  0.2282 -0.1627
 8784TIP3    H147767   5.390   5.490   3.893 -2.0976  0.3816  0.0558
 8784TIP3    H247768   5.384   5.377   3.793 -1.5325  0.1191  0.3116
 8785TIP3   OH247769   4.773   1.247   0.807 -0.6614 -0.6335  0.3856
 8785TIP3    H147770   4.722   1.170   0.781 -1.3585  0.5038 -1.9719
 8785TIP3    H247771   4.811   1.278   0.725  2.5886 -0.4713  1.8076
 8786TIP3   OH247772   3.499   4.436   0.242 -0.8592  0.2647 -0.1261
 8786TIP3    H147773   3.549   4.503   0.197 -1.4000  0.3831 -0.5751
 8786TIP3    H247774   3.563   4.368   0.264 -0.5643  0.2285 -1.0385
 8787TIP3   OH247775   3.751   1.018  14.530  0.0191 -0.6358  0.2936
 8787TIP3    H147776   3.729   1.098  14.578 -0.7215 -0.0089 -1.0122
 8787TIP3    H247777   3.826   0.981  14.577 -0.8331 -0.2272  2.0604
 8788TIP3   OH247778   4.914   4.313   4.481  0.6160 -0.1670  0.4838
 8788TIP3    H147779   4.899   4.407   4.474 -0.9279 -0.3969  0.3875
 8788TIP3    H247780   4.858   4.285   4.554  1.0447 -1.0080  0.5042
 8789TIP3   OH247781   2.139   3.839   1.407 -0.4481  0.8512 -0.0412
 8789TIP3    H147782   2.190   3.838   1.488 -1.4509 -2.1041  0.6691
 8789TIP3    H247783   2.195   3.794   1.344 -0.3490  1.7166 -0.5951
 8790TIP3   OH247784   6.769   3.566   5.467 -0.0424  0.1135  0.3541
 8790TIP3    H147785   6.683   3.576   5.509  0.6768 -0.5009  2.0883
 8790TIP3    H247786   6.751   3.568   5.373 -2.1141 -1.1512  0.6694
 8791TIP3   OH247787   6.652   0.755  17.222  0.4860 -0.2161 -0.0715
 8791TIP3    H147788   6.669   0.672  17.268  1.2638  0.4721  0.9260
 8791TIP3    H247789   6.693   0.744  17.137  0.8922 -0.7371  0.1848
 8792TIP3   OH247790   1.081   5.293   4.504 -0.2675  0.1677  0.0282
 8792TIP3    H147791   0.990   5.318   4.487 -0.6975 -0.4038  1.3382
 8792TIP3    H247792   1.114   5.361   4.563 -0.1540 -0.1590  0.3427
 8793TIP3   OH247793   1.662   1.998  12.723  0.2293  0.4658 -0.3677
 8793TIP3    H147794   1.646   2.066  12.788 -2.3142 -0.7004  0.3564
 8793TIP3    H247795   1.590   2.008  12.659  0.3537 -0.9244 -0.7545
 8794TIP3   OH247796   6.474   3.841   3.640  0.0202 -0.3253  0.8952
 8794TIP3    H147797   6.547   3.843   3.578 -0.4631 -0.7283  0.3041
 8794TIP3    H247798   6.413   3.777   3.603 -1.4168  1.2265  0.4802
 8795TIP3   OH247799   1.924   1.503  14.212 -0.0476  0.0672  0.5136
 8795TIP3    H147800   1.982   1.429  14.228  1.5170  0.8232 -1.2600
 8795TIP3    H247801   1.852   1.466  14.160  1.9037  0.0868 -2.4259
 8796TIP3   OH247802   4.114   3.181  15.944  0.1744  0.3211  0.7171
 8796TIP3    H147803   4.104   3.270  15.911  1.7793  1.8031  3.8329
 8796TIP3    H247804   4.031   3.162  15.989  0.9856  1.6846  2.9411
 8797TIP3   OH247805   6.585   2.111   2.621  0.0502  0.6778 -0.1440
 8797TIP3    H147806   6.505   2.097   2.671 -0.2439  1.2625 -0.4385
 8797TIP3    H247807   6.607   2.203   2.636  0.4818  0.6077 -0.3260
 8798TIP3   OH247808   6.760   2.134  10.631 -0.4489  0.4366 -0.0984
 8798TIP3    H147809   6.765   2.050  10.676 -0.2622  0.3943 -0.1946
 8798TIP3    H247810   6.731   2.196  10.697  3.5769  1.1953  1.2474
 8799TIP3   OH247811   6.272   1.872  15.622 -0.3062  0.2050 -0.1519
 8799TIP3    H147812   6.339   1.820  15.578  0.6543  1.8266 -0.6851
 8799TIP3    H247813   6.227   1.810  15.679  1.2771 -1.0478 -0.2020
 8800TIP3   OH247814   3.703   4.621   1.933 -0.0360 -0.0274 -0.4633
 8800TIP3    H147815   3.775   4.666   1.888 -0.2044  0.0590 -0.6461
 8800TIP3    H247816   3.624   4.652   1.890 -0.3261  1.2519  0.9099
 8801TIP3   OH247817   2.522   2.944  16.807 -0.1308  0.0552 -0.4202
 8801TIP3    H147818   2.616   2.961  16.802 -0.0339  0.1334  1.1694
 8801TIP3    H247819   2.511   2.858  16.766  0.6025  0.1381 -0.7984
 8802TIP3   OH247820   3.176   3.117   1.784  0.1687  0.3383  0.2321
 8802TIP3    H147821   3.240   3.156   1.844  0.8431  0.5423 -0.6053
 8802TIP3    H247822   3.129   3.192   1.747  0.0088  0.2343  0.2250
 8803TIP3   OH247823   1.125   3.448  12.227  0.1380 -0.3968  0.4364
 8803TIP3    H147824   1.140   3.423  12.318 -0.2650 -2.4836 -0.0257
 8803TIP3    H247825   1.031   3.438  12.215  0.3391 -1.2854 -0.5095
 8804TIP3   OH247826   2.999   6.569  14.974  0.2589 -0.0505 -0.0816
 8804TIP3    H147827   2.999   6.569  15.069 -0.8377 -0.1708 -0.0746
 8804TIP3    H247828   3.085   6.534  14.950  0.9644  0.9845  0.8452
 8805TIP3   OH247829   4.158   5.381   2.271 -0.1712  0.0286  0.4841
 8805TIP3    H147830   4.066   5.408   2.262 -0.1520 -0.5040 -1.9251
 8805TIP3    H247831   4.158   5.318   2.342 -1.4069  1.1216  1.4968
 8806TIP3   OH247832   4.513   1.890  13.159 -0.0660 -0.1936  0.0764
 8806TIP3    H147833   4.447   1.958  13.144  1.7031  1.2424 -1.8512
 8806TIP3    H247834   4.587   1.938  13.198  0.8494 -1.1913 -0.3836
 8807TIP3   OH247835   3.606   3.784  10.631 -0.0373  0.5648 -0.6114
 8807TIP3    H147836   3.623   3.877  10.617 -0.7576  0.7666 -0.1432
 8807TIP3    H247837   3.645   3.764  10.716  2.0388 -0.0772 -1.6397
 8808TIP3   OH247838   1.591   4.369   3.713  0.3798 -1.3826 -0.1420
 8808TIP3    H147839   1.596   4.294   3.654  0.1301 -1.4547 -0.0696
 8808TIP3    H247840   1.557   4.334   3.795 -1.0814 -0.9475 -0.5360
 8809TIP3   OH247841   2.285   5.492   1.117 -0.5478 -0.1566 -0.0440
 8809TIP3    H147842   2.271   5.487   1.023  0.9655  1.8874 -0.4278
 8809TIP3    H247843   2.246   5.575   1.143 -0.5280 -0.4737  1.0746
 8810TIP3   OH247844   6.764   0.082   1.963  0.4701  0.0080 -0.1965
 8810TIP3    H147845   6.684   0.045   2.001 -0.0678 -0.6698 -1.8860
 8810TIP3    H247846   6.733   0.154   1.907  0.9116 -0.9172 -1.6752
 8811TIP3   OH247847   5.367   5.197   0.287 -0.4689 -0.0866  0.4261
 8811TIP3    H147848   5.277   5.193   0.321 -0.5364 -0.2731  0.2272
 8811TIP3    H247849   5.358   5.238   0.201 -0.2006  1.1548  0.9672
 8812TIP3   OH247850   6.555   1.030  17.212  0.5257 -0.0524  0.0595
 8812TIP3    H147851   6.600   0.946  17.222  3.3267  1.3786  0.4232
 8812TIP3    H247852   6.577   1.060  17.124 -0.9738  0.0764 -0.3079
 8813TIP3   OH247853   4.847   4.455  16.372  0.5078  0.9761  0.0076
 8813TIP3    H147854   4.753   4.445  16.355  0.4875 -1.9411  1.2613
 8813TIP3    H247855   4.860   4.549  16.381 -2.7440  1.3676  2.1111
 8814TIP3   OH247856   1.853   1.986  11.735  0.0394  0.3101 -0.6679
 8814TIP3    H147857   1.822   2.022  11.818  0.7505 -1.6339  0.5136
 8814TIP3    H247858   1.944   2.014  11.730  0.4622 -0.8632  0.0323
 8815TIP3   OH247859   2.755   3.547   4.643 -0.6850  0.0732  0.1331
 8815TIP3    H147860   2.715   3.632   4.626  1.0713  1.0870  0.7444
 8815TIP3    H247861   2.733   3.527   4.734  1.2979  1.3695  0.9845
 8816TIP3   OH247862   5.698   2.224   0.912 -0.6439 -0.3127  1.0232
 8816TIP3    H147863   5.721   2.161   0.844 -0.6502  0.4312  0.3112
 8816TIP3    H247864   5.764   2.294   0.904 -0.0161 -0.6889  2.4677
 8817TIP3   OH247865   5.855   0.997   5.352 -0.0720 -0.0601 -0.6033
 8817TIP3    H147866   5.865   0.972   5.260 -0.2336  1.4167 -1.0505
 8817TIP3    H247867   5.775   0.953   5.381 -0.6507  0.3657 -1.5106
 8818TIP3   OH247868   4.783   4.513   3.252  0.2665 -0.3228 -0.5167
 8818TIP3    H147869   4.696   4.474   3.250 -0.0365  0.3577 -1.0193
 8818TIP3    H247870   4.836   4.452   3.304 -0.7692 -0.2010  0.7223
 8819TIP3   OH247871   2.441   4.694  12.077 -0.4680 -0.5501  0.0040
 8819TIP3    H147872   2.420   4.639  12.153 -1.2695 -1.6497 -0.9666
 8819TIP3    H247873   2.379   4.767  12.083  0.0940 -0.1270  0.8952
 8820TIP3   OH247874   2.948   0.995  16.318 -0.3360  0.3831  0.3449
 8820TIP3    H147875   2.915   1.072  16.365 -0.3165  0.5094  0.1519
 8820TIP3    H247876   3.035   0.980  16.354 -0.2289  0.6193  0.1860
 8821TIP3   OH247877   5.827   0.848   5.119 -0.3735 -0.1079  0.5166
 8821TIP3    H147878   5.864   0.832   5.033 -0.5806  0.3166  0.3472
 8821TIP3    H247879   5.765   0.776   5.132  0.5979 -0.9028  0.8640
 8822TIP3   OH247880   0.184   1.784   2.821 -0.6900  0.3052  0.8223
 8822TIP3    H147881   0.259   1.761   2.765 -0.1215  0.6233  1.4402
 8822TIP3    H247882   0.114   1.806   2.759 -0.1494  0.4106  0.2382
 8823TIP3   OH247883   2.946   1.339  15.811  0.3549 -0.0767 -0.3738
 8823TIP3    H147884   2.918   1.248  15.821 -0.4685  0.1444 -0.6107
 8823TIP3    H247885   2.975   1.365  15.899 -0.2171 -0.3005 -0.1176
 8824TIP3   OH247886   0.438   0.835   5.892 -0.6799 -0.5586 -0.3308
 8824TIP3    H147887   0.486   0.798   5.818 -0.1534 -1.7907  0.5804
 8824TIP3    H247888   0.380   0.900   5.853  0.4312 -0.3235 -1.6774
 8825TIP3   OH247889   1.085   1.434  17.222  0.0021  0.4534 -0.1015
 8825TIP3    H147890   1.016   1.376  17.254  0.3983  0.4680  0.8233
 8825TIP3    H247891   1.043   1.486  17.153 -0.9728  0.5985  0.5779
 8826TIP3   OH247892   6.453   1.178  12.698  0.4505 -0.7056 -0.0177
 8826TIP3    H147893   6.443   1.122  12.622  0.7764  0.3271 -0.8450
 8826TIP3    H247894   6.371   1.227  12.703  0.9331  0.1737 -0.5026
 8827TIP3   OH247895   3.458   1.437  14.748 -0.5031  0.2694  1.1603
 8827TIP3    H147896   3.518   1.461  14.819 -0.7763  0.6049  1.2802
 8827TIP3    H247897   3.443   1.518  14.700 -0.7863  0.1675  1.0735
 8828TIP3   OH247898   1.486   6.234  15.043  0.3010 -0.3095  0.0334
 8828TIP3    H147899   1.490   6.198  15.131 -0.4461  0.0298  0.2184
 8828TIP3    H247900   1.501   6.159  14.985 -0.5119 -0.7882  0.4252
 8829TIP3   OH247901   3.736   2.391   2.074  0.2227  0.4479  0.2357
 8829TIP3    H147902   3.652   2.386   2.119 -1.2915 -1.1763 -2.5216
 8829TIP3    H247903   3.739   2.480   2.039 -0.1365  0.6333  0.6651
 8830TIP3   OH247904   4.447   0.547  16.510  0.0415 -0.4120 -0.5945
 8830TIP3    H147905   4.466   0.609  16.439 -1.9153 -0.1839 -0.9785
 8830TIP3    H247906   4.386   0.484  16.471  0.3094 -1.3270  0.4079
 8831TIP3   OH247907   1.249   5.553   5.174  0.4294 -0.4845 -0.2743
 8831TIP3    H147908   1.310   5.487   5.141  0.5678 -0.2347 -0.5338
 8831TIP3    H247909   1.277   5.569   5.264  1.6418  0.6189 -0.8031
 8832TIP3   OH247910   1.480   6.159   2.703 -0.6319  0.2624  0.7660
 8832TIP3    H147911   1.406   6.125   2.753 -1.3471  0.5600 -0.0609
 8832TIP3    H247912   1.474   6.254   2.715 -0.2527  0.2736  0.8709
 8833TIP3   OH247913   5.182   0.008  13.222 -0.0650 -0.1063 -0.4162
 8833TIP3    H147914   5.117  -0.047  13.180 -2.1034  2.0024 -0.2638
 8833TIP3    H247915   5.210   0.070  13.154 -0.4467  0.8508  0.2724
 8834TIP3   OH247916   2.181   0.642   6.446  0.3262 -0.0478 -0.0887
 8834TIP3    H147917   2.273   0.668   6.446  0.6668 -1.0663 -1.9726
 8834TIP3    H247918   2.141   0.693   6.375 -0.7503  0.8215  1.0756
 8835TIP3   OH247919   4.130   0.279   0.880  0.2851 -0.2705  0.2610
 8835TIP3    H147920   4.174   0.350   0.926 -0.9940  1.3085 -0.8042
 8835TIP3    H247921   4.067   0.244   0.943 -1.2652  1.6922 -0.1003
 8836TIP3   OH247922   1.609   4.255  14.912  0.2086  0.3289  0.3041
 8836TIP3    H147923   1.603   4.241  15.006  0.9783 -1.7957  0.0895
 8836TIP3    H247924   1.691   4.213  14.886 -0.0455  0.7645 -1.3304
 8837TIP3   OH247925   4.919   0.327   2.758  0.2880 -0.0219 -0.1640
 8837TIP3    H147926   4.854   0.290   2.699 -1.1235 -1.5563  2.1762
 8837TIP3    H247927   4.868   0.373   2.824  1.7561  1.0269  0.2848
 8838TIP3   OH247928   2.245   6.596  11.268  0.3582 -0.0331  0.2925
 8838TIP3    H147929   2.213   6.661  11.205 -0.6415 -0.0856  0.7368
 8838TIP3    H247930   2.288   6.649  11.336 -0.0621  0.1323  0.4298
 8839TIP3   OH247931   3.921   1.002   0.077 -1.0863  0.1719 -0.3956
 8839TIP3    H147932   3.901   1.096   0.071 -0.5141  0.4129  1.0035
 8839TIP3    H247933   3.997   0.990   0.021 -0.9355  0.6211 -0.2930
 8840TIP3   OH247934   0.973   1.917  13.665  0.1337 -0.1555  0.6084
 8840TIP3    H147935   1.029   1.897  13.740  1.0794 -0.7100 -0.2179
 8840TIP3    H247936   1.007   1.862  13.594  0.2611  1.4844 -0.6622
 8841TIP3   OH247937   1.068   2.822   1.084 -0.3689  0.4260 -0.4552
 8841TIP3    H147938   0.978   2.842   1.108 -0.1492 -0.0971  0.8768
 8841TIP3    H247939   1.088   2.883   1.012 -2.0831 -0.1276 -1.4627
 8842TIP3   OH247940   2.647   0.662   1.746 -0.0158 -0.5436 -0.1574
 8842TIP3    H147941   2.687   0.746   1.723 -0.4611 -0.2499  0.1164
 8842TIP3    H247942   2.557   0.685   1.771  0.3792 -0.8514  1.7089
 8843TIP3   OH247943   2.767   4.164   2.624  0.3749  0.5102 -0.2513
 8843TIP3    H147944   2.705   4.091   2.629 -0.2471  1.0182 -0.3236
 8843TIP3    H247945   2.724   4.227   2.566  0.9370  0.8967 -0.2526
 8844TIP3   OH247946   3.589   3.118  11.671  0.3310  0.2553  0.3814
 8844TIP3    H147947   3.544   3.154  11.748  0.3367 -0.8736  0.9271
 8844TIP3    H247948   3.669   3.170  11.664  0.0565  0.7501  0.7873
 8845TIP3   OH247949   2.332   5.126   3.164 -0.2430 -0.7872  0.3692
 8845TIP3    H147950   2.319   5.211   3.121 -1.5607 -0.2099  1.8044
 8845TIP3    H247951   2.243   5.094   3.180  0.2431 -2.5185 -0.2521
 8846TIP3   OH247952   1.029   1.395   4.704  0.2586  0.0493 -0.1502
 8846TIP3    H147953   1.032   1.460   4.774  0.4228  2.0085 -1.8663
 8846TIP3    H247954   1.119   1.391   4.672  0.0435 -0.2448 -0.7247
 8847TIP3   OH247955   6.277   5.918  16.449 -0.5853  0.2367 -0.1430
 8847TIP3    H147956   6.289   5.825  16.472  1.2736 -0.2168 -2.5617
 8847TIP3    H247957   6.313   5.926  16.361  0.7717  3.5915  0.5557
 8848TIP3   OH247958   6.155   6.145   1.987 -0.9272  0.1590  0.3603
 8848TIP3    H147959   6.188   6.056   1.985 -0.5409  0.3220 -0.9079
 8848TIP3    H247960   6.232   6.200   1.980 -1.1695  0.6091  1.0664
 8849TIP3   OH247961   0.271   2.997   5.574  0.0190  0.4416 -0.5304
 8849TIP3    H147962   0.213   2.974   5.647 -1.0714 -0.4085 -1.6234
 8849TIP3    H247963   0.219   3.059   5.521  0.9215  1.3059 -0.4346
 8850TIP3   OH247964   0.467   1.612   1.986 -0.5092 -0.1140 -0.6268
 8850TIP3    H147965   0.387   1.560   1.971  0.0535 -1.2596  0.2015
 8850TIP3    H247966   0.524   1.589   1.912  0.6167 -2.5022  0.8574
 8851TIP3   OH247967   5.568   2.040  15.960  0.3029 -0.5664 -0.4986
 8851TIP3    H147968   5.486   2.089  15.957  0.4312 -0.3760 -2.6101
 8851TIP3    H247969   5.581   2.019  16.053 -1.1860  0.9727  0.1027
 8852TIP3   OH247970   1.962   0.819  17.105  0.1798  0.1711 -0.4503
 8852TIP3    H147971   1.885   0.848  17.154  0.7810  1.1810 -0.0732
 8852TIP3    H247972   2.032   0.816  17.170  0.5716 -0.2754 -0.8853
 8853TIP3   OH247973   4.749   3.755   1.731  0.5044 -0.8910  0.0824
 8853TIP3    H147974   4.783   3.840   1.705 -0.7423 -0.1367  0.8235
 8853TIP3    H247975   4.766   3.750   1.825  0.1001 -1.2195  0.1426
 8854TIP3   OH247976   2.190   0.628  17.004  0.1396  0.6877  0.0502
 8854TIP3    H147977   2.146   0.645  17.087 -0.4707  2.4169 -0.5688
 8854TIP3    H247978   2.237   0.710  16.986  0.0695  0.4229 -1.4113
 8855TIP3   OH247979   0.968   3.933   4.520  0.1180 -0.7506  0.1987
 8855TIP3    H147980   0.961   3.972   4.432  1.3797 -0.0590  0.3704
 8855TIP3    H247981   0.941   3.842   4.508 -0.7313 -0.4008 -0.6863
 8856TIP3   OH247982   3.576   2.691  14.185  0.1376  0.1438  0.5175
 8856TIP3    H147983   3.564   2.652  14.272  1.3026 -3.2099 -0.6842
 8856TIP3    H247984   3.487   2.705  14.153 -0.3228 -0.6652  1.4009
 8857TIP3   OH247985   2.299   2.819  12.743 -0.0406 -0.0951 -0.5246
 8857TIP3    H147986   2.348   2.764  12.682  2.7686 -0.2695  1.6864
 8857TIP3    H247987   2.220   2.770  12.762  1.9850 -3.1072  0.7654
 8858TIP3   OH247988   1.499   3.591   4.818 -0.5394 -0.1655 -0.0668
 8858TIP3    H147989   1.567   3.577   4.752 -0.8876  1.8980 -0.9159
 8858TIP3    H247990   1.533   3.546   4.896  0.9015 -0.7825 -1.0015
 8859TIP3   OH247991   6.270   5.536   3.991 -0.1122  0.3587 -0.4846
 8859TIP3    H147992   6.286   5.565   4.080 -0.7892 -1.1296  0.1507
 8859TIP3    H247993   6.357   5.516   3.956  0.2123  1.5350 -0.4031
 8860TIP3   OH247994   3.671   6.389  13.052 -0.4692  0.4069 -0.0115
 8860TIP3    H147995   3.766   6.388  13.065  0.0308  0.8378 -3.0052
 8860TIP3    H247996   3.637   6.432  13.131  1.8150  0.4778  1.0146
 8861TIP3   OH247997   2.164   4.151  16.034  0.2260  0.3398 -0.1715
 8861TIP3    H147998   2.123   4.226  15.990 -0.5559  0.2963  0.4537
 8861TIP3    H247999   2.253   4.180  16.053 -0.4852  1.7004  1.3987
 8862TIP3   OH248000   0.365   6.412  17.090 -0.3537  0.3172  0.6281
 8862TIP3    H148001   0.323   6.479  17.145 -1.0833  0.4500 -0.0836
 8862TIP3    H248002   0.353   6.331  17.139  0.4372  0.6731  1.4458
 8863TIP3   OH248003   5.714   3.283   1.783  0.7585 -0.0628  0.2327
 8863TIP3    H148004   5.807   3.293   1.762  0.7296 -0.3538 -0.0446
 8863TIP3    H248005   5.705   3.322   1.870  1.1424 -0.0523  0.2718
 8864TIP3   OH248006   2.391   1.396   5.443  0.1482  0.2140 -0.2671
 8864TIP3    H148007   2.455   1.361   5.381  0.5608  0.0500  0.2387
 8864TIP3    H248008   2.314   1.341   5.431 -0.2601  1.0247 -1.5632
 8865TIP3   OH248009   4.005   5.670  11.886 -0.5432 -0.1436 -0.0752
 8865TIP3    H148010   4.040   5.673  11.797  1.5296 -0.7544  0.6727
 8865TIP3    H248011   3.990   5.577  11.902 -0.0472 -0.1178  0.5382
 8866TIP3   OH248012   5.184   5.686   0.963  0.0727 -0.1733  0.6563
 8866TIP3    H148013   5.245   5.695   1.037 -1.5528 -0.5852  2.1075
 8866TIP3    H248014   5.239   5.694   0.886  1.8115  0.5406  1.9054
 8867TIP3   OH248015   4.377   1.212  12.061  0.3137 -0.0344 -0.4131
 8867TIP3    H148016   4.421   1.262  12.130  0.9821  0.2117 -0.9953
 8867TIP3    H248017   4.384   1.268  11.984  0.4047 -0.7018 -0.8960
 8868TIP3   OH248018   3.391   1.029   6.653 -0.0862 -0.3383 -0.2578
 8868TIP3    H148019   3.451   1.101   6.671  1.4759 -1.5338 -0.4928
 8868TIP3    H248020   3.379   0.985   6.738 -0.2181 -0.4077 -0.3117
 8869TIP3   OH248021   5.509   2.109   6.153  0.0869 -0.1447 -0.4609
 8869TIP3    H148022   5.472   2.191   6.186 -0.9277 -0.9345  0.4154
 8869TIP3    H248023   5.435   2.066   6.109  0.5154 -0.7583 -0.5928
 8870TIP3   OH248024   0.813   3.532   2.985  0.3072 -0.1146  0.0152
 8870TIP3    H148025   0.733   3.568   2.945  0.8991  1.3917  0.1343
 8870TIP3    H248026   0.780   3.468   3.049 -0.7190 -1.0700 -1.3859
 8871TIP3   OH248027   6.732   6.035  12.203 -0.2372 -0.1336 -0.2128
 8871TIP3    H148028   6.769   6.018  12.116 -1.4216 -0.9793 -0.5770
 8871TIP3    H248029   6.691   6.121  12.195 -0.2522 -0.1620 -0.4499
 8872TIP3   OH248030   5.243   2.442   5.691 -0.1689 -0.2154  0.3052
 8872TIP3    H148031   5.299   2.366   5.679  1.8213  1.5066 -2.5340
 8872TIP3    H248032   5.295   2.501   5.746 -0.5029  0.1939  0.1870
 8873TIP3   OH248033   0.972   5.358   4.764  0.3402  0.2051  0.4062
 8873TIP3    H148034   0.927   5.318   4.838 -0.5571 -1.2429 -0.8683
 8873TIP3    H248035   1.065   5.339   4.780  0.0768 -0.8998  0.7029
 8874TIP3   OH248036   5.597   6.131   1.693 -0.0819 -0.8226  0.0682
 8874TIP3    H148037   5.646   6.100   1.616 -0.1398  0.0768 -0.3479
 8874TIP3    H248038   5.665   6.162   1.753 -0.1136  0.5177 -0.5507
 8875TIP3   OH248039   2.122   0.342   4.318  0.4216  0.4267 -0.7076
 8875TIP3    H148040   2.159   0.258   4.291 -0.0032  0.2461 -0.7416
 8875TIP3    H248041   2.198   0.397   4.337  0.6996 -0.0179 -0.5223
 8876TIP3   OH248042   4.416   0.480  11.748  0.2569  0.4690 -0.0321
 8876TIP3    H148043   4.404   0.438  11.662  1.7796 -0.5229  0.1808
 8876TIP3    H248044   4.464   0.561  11.729  0.8677  0.0986 -0.1190
 8877TIP3   OH248045   1.641   3.007  11.962  0.1679 -0.0980  0.4900
 8877TIP3    H148046   1.627   2.965  12.047 -0.6451 -0.3021  0.2688
 8877TIP3    H248047   1.685   2.941  11.909 -0.4129 -0.4136  0.3850
 8878TIP3   OH248048   3.426   4.566   3.715 -0.4053  0.5106  0.1687
 8878TIP3    H148049   3.418   4.661   3.724  2.7982  0.7835  1.5600
 8878TIP3    H248050   3.426   4.551   3.621 -1.6023  1.7989 -0.0666
 8879TIP3   OH248051   4.841   3.141   2.607  0.6322  0.3201 -0.0384
 8879TIP3    H148052   4.882   3.224   2.634  0.2714  0.7654 -0.8382
 8879TIP3    H248053   4.888   3.074   2.657  2.6323  0.7661 -1.2228
 8880TIP3   OH248054   1.014   1.018  15.374 -0.1701  0.8255  0.0673
 8880TIP3    H148055   0.934   1.065  15.347 -1.2457 -1.4470 -0.9661
 8880TIP3    H248056   1.045   1.067  15.450 -1.2365  3.1354 -0.8647
 8881TIP3   OH248057   0.896   6.134   0.065 -0.1223  0.5166  0.6379
 8881TIP3    H148058   0.844   6.123   0.145 -1.6867 -0.3405 -0.4302
 8881TIP3    H248059   0.843   6.191   0.009  0.2737 -0.0120 -0.3167
 8882TIP3   OH248060   5.773   2.248  11.998  0.6565 -0.0076 -0.1718
 8882TIP3    H148061   5.768   2.295  12.082 -0.3640  1.3027 -0.9211
 8882TIP3    H248062   5.866   2.233  11.985  0.9195  0.7799  0.6578
 8883TIP3   OH248063   2.405   2.387  16.613 -0.6553  0.0562  0.5253
 8883TIP3    H148064   2.463   2.354  16.544  0.3991  0.3073  1.2552
 8883TIP3    H248065   2.368   2.309  16.653 -2.3193 -0.0714 -1.1405
 8884TIP3   OH248066   1.761   5.932  12.468  0.5501  0.0178  0.0132
 8884TIP3    H148067   1.800   5.851  12.498 -0.1064 -0.8733 -1.4537
 8884TIP3    H248068   1.792   5.943  12.378  0.9278  1.6071  0.2922
 8885TIP3   OH248069   0.827   3.383  11.144  0.4425 -0.0713 -0.4175
 8885TIP3    H148070   0.811   3.474  11.170 -1.7793 -0.7042  0.6719
 8885TIP3    H248071   0.847   3.338  11.227  0.9075 -0.7041 -0.8653
 8886TIP3   OH248072   2.556   1.116  14.029 -0.1561 -0.2008 -0.3850
 8886TIP3    H148073   2.474   1.154  13.997  0.3377  0.4924 -0.8260
 8886TIP3    H248074   2.614   1.115  13.953  0.3874 -0.3153  0.0265
 8887TIP3   OH248075   3.143   3.817   0.987  0.0339 -0.4878 -0.4890
 8887TIP3    H148076   3.131   3.910   0.968  2.9630  0.4582  1.4939
 8887TIP3    H248077   3.065   3.793   1.037  0.2447  1.6366  1.0349
 8888TIP3   OH248078   4.999   0.659  11.601  0.2013 -0.0444 -0.4652
 8888TIP3    H148079   5.004   0.693  11.512  0.4697  0.3354 -0.3044
 8888TIP3    H248080   4.905   0.664  11.623  0.2340  0.5993 -0.4433
 8889TIP3   OH248081   3.823   3.181   5.533  0.5821 -0.0005  0.3040
 8889TIP3    H148082   3.768   3.107   5.505  2.1468 -0.7874 -0.8447
 8889TIP3    H248083   3.762   3.255   5.537 -0.9236 -1.2131  0.9628
 8890TIP3   OH248084   1.259   1.610   5.340  0.1752 -0.2932  0.3910
 8890TIP3    H148085   1.177   1.569   5.369 -0.5334  0.0237 -1.0731
 8890TIP3    H248086   1.272   1.683   5.400 -0.3334 -0.6562  0.9577
 8891TIP3   OH248087   0.613   6.484  11.466  0.3461 -0.3083 -0.1367
 8891TIP3    H148088   0.672   6.420  11.506 -0.1403 -1.5267 -1.2760
 8891TIP3    H248089   0.671   6.546  11.421  0.8169 -0.1306  0.7036
 8892TIP3   OH248090   3.391   0.928  11.790 -0.7441  0.0984 -0.0067
 8892TIP3    H148091   3.419   0.862  11.853 -0.2554  2.0445  1.9485
 8892TIP3    H248092   3.296   0.924  11.790 -0.7506  0.1701  0.9901
 8893TIP3   OH248093   0.154   4.745  17.058 -0.5132 -0.2394  0.3441
 8893TIP3    H148094   0.101   4.801  17.114 -1.6957 -1.4668  0.5142
 8893TIP3    H248095   0.098   4.727  16.982  0.5748  0.3460 -0.6236
 8894TIP3   OH248096   3.458   1.198  17.087 -0.4786 -0.2467 -0.0561
 8894TIP3    H148097   3.459   1.124  17.026  0.3148  1.6977 -2.6323
 8894TIP3    H248098   3.551   1.216  17.102 -0.6464 -1.1501  2.4870
 8895TIP3   OH248099   3.433   1.338  11.237 -0.2971  0.1215  0.2050
 8895TIP3    H148100   3.493   1.310  11.167 -1.3181 -2.3283  0.2222
 8895TIP3    H248101   3.350   1.355  11.193 -0.6095 -0.2159  0.6510
 8896TIP3   OH248102   1.990   2.241   1.465 -0.8352 -0.3241 -0.4461
 8896TIP3    H148103   1.996   2.285   1.380 -0.6172  0.6370  0.0475
 8896TIP3    H248104   1.910   2.277   1.505 -0.1327  0.3799  0.3688
 8897TIP3   OH248105   5.469   4.084  15.742  0.1632  0.2123  0.3099
 8897TIP3    H148106   5.383   4.120  15.760 -0.1793 -0.4691  0.0541
 8897TIP3    H248107   5.499   4.050  15.826 -0.3319 -0.6350  0.1490
 8898TIP3   OH248108   2.121   2.491   3.893 -0.2263 -0.5745  0.6768
 8898TIP3    H148109   2.163   2.464   3.975  0.7196 -0.0780  0.3684
 8898TIP3    H248110   2.193   2.504   3.832 -0.5887  2.4288  0.7247
 8899TIP3   OH248111   1.454   0.518  15.018 -0.4263  0.4797  0.7631
 8899TIP3    H148112   1.413   0.585  15.073  0.6457 -0.0968  2.3301
 8899TIP3    H248113   1.418   0.435  15.051  0.9057  0.0671  1.2415
 8900TIP3   OH248114   5.567   1.308   4.386 -0.8371 -0.6056  0.0179
 8900TIP3    H148115   5.509   1.232   4.373 -1.9332  0.0830  0.7301
 8900TIP3    H248116   5.530   1.354   4.461  0.2458  0.2519  0.0496
 8901TIP3   OH248117   0.257   3.363  13.391 -0.6139 -0.2778  0.4334
 8901TIP3    H148118   0.246   3.427  13.461 -1.0625 -1.3596  1.3788
 8901TIP3    H248119   0.206   3.287  13.419 -1.3158 -0.5306 -1.3467
 8902TIP3   OH248120   5.578   3.113   1.631 -0.0458 -0.0468  0.2087
 8902TIP3    H148121   5.588   3.188   1.689 -2.2405  0.2076  0.3621
 8902TIP3    H248122   5.527   3.050   1.682 -1.9892  0.1667 -1.3435
 8903TIP3   OH248123   6.246   6.688   2.348 -0.7262  0.0517 -0.2524
 8903TIP3    H148124   6.273   6.745   2.277 -0.6112  1.5205  0.9105
 8903TIP3    H248125   6.154   6.669   2.331 -0.3899 -0.6111 -1.4076
 8904TIP3   OH248126   1.847   4.431  16.257 -0.3294 -0.5567  0.1512
 8904TIP3    H148127   1.802   4.348  16.247 -0.3050 -0.6052  0.4177
 8904TIP3    H248128   1.880   4.429  16.347 -1.4966  0.3234  0.6188
 8905TIP3   OH248129   6.325   2.125   3.580 -0.1944 -0.0479  0.0654
 8905TIP3    H148130   6.297   2.210   3.614 -0.6910 -0.7344  1.4456
 8905TIP3    H248131   6.348   2.075   3.658 -0.5389 -1.4037 -0.6812
 8906TIP3   OH248132   4.056   6.605   4.414 -0.3004 -0.8021 -0.3495
 8906TIP3    H148133   4.005   6.663   4.470  0.0603  0.3575 -1.1903
 8906TIP3    H248134   4.025   6.624   4.326  0.3145 -1.4012 -0.7004
 8907TIP3   OH248135   5.249   1.957  14.339  0.0339  0.2401  0.7961
 8907TIP3    H148136   5.336   1.920  14.352  0.7563  0.8165 -1.8936
 8907TIP3    H248137   5.265   2.042  14.297 -1.7994  0.8979  1.3236
 8908TIP3   OH248138   5.493   5.641   3.631 -0.6772  0.2220  0.9499
 8908TIP3    H148139   5.441   5.585   3.688 -1.0475  0.6949  1.0784
 8908TIP3    H248140   5.452   5.634   3.545 -0.0282 -0.6109  0.6894
 8909TIP3   OH248141   3.283   0.997   1.463  0.5958  0.2577 -0.5284
 8909TIP3    H148142   3.216   1.026   1.524 -1.3317 -0.8518 -2.0107
 8909TIP3    H248143   3.346   0.949   1.518 -0.1590  0.7430  0.7989
 8910TIP3   OH248144   3.073   0.479  15.805 -0.1775 -0.4626  0.0183
 8910TIP3    H148145   3.043   0.402  15.854 -0.4701  0.1916  0.8698
 8910TIP3    H248146   2.997   0.506  15.753 -0.0399 -0.7987 -0.3732
 8911TIP3   OH248147   2.974   6.764   4.146 -0.6203 -0.2923 -0.0145
 8911TIP3    H148148   3.064   6.796   4.150 -0.2256 -1.2696 -0.8313
 8911TIP3    H248149   2.931   6.806   4.221  0.5519  0.0272  0.5048
 8912TIP3   OH248150   3.571   5.964   0.104  0.1412 -0.6737 -0.2665
 8912TIP3    H148151   3.573   5.908   0.027 -0.3872  1.1381 -1.6864
 8912TIP3    H248152   3.654   5.948   0.148  0.8177 -1.1565 -1.6630
 8913TIP3   OH248153   5.429   1.170   0.067  0.1659  0.1528 -0.0767
 8913TIP3    H148154   5.476   1.206   0.142  1.3185 -0.0992 -0.6587
 8913TIP3    H248155   5.385   1.092   0.101 -0.7242  0.9828  0.7232
 8914TIP3   OH248156   5.762   5.415   6.046 -0.1214 -0.2451  0.1114
 8914TIP3    H148157   5.739   5.329   6.080  1.5405 -0.3665  1.0013
 8914TIP3    H248158   5.690   5.472   6.073 -0.0021 -0.8442  1.7585
 8915TIP3   OH248159   4.967   1.102  11.482  0.3308  0.6435  0.7149
 8915TIP3    H148160   5.048   1.081  11.434 -0.9154 -2.1471 -0.4234
 8915TIP3    H248161   4.915   1.153  11.420  0.7812  1.5429  1.0660
 8916TIP3   OH248162   5.928   5.203   6.448 -0.4724 -0.1732  1.2465
 8916TIP3    H148163   6.008   5.225   6.400  0.1055  0.8629  2.6227
 8916TIP3    H248164   5.886   5.136   6.394  0.3557  0.6167 -0.4624
 8917TIP3   OH248165   0.595   0.864   1.199 -0.6015 -0.1689  0.1643
 8917TIP3    H148166   0.531   0.936   1.204 -0.6155 -0.2130  0.7864
 8917TIP3    H248167   0.618   0.847   1.291  0.8895  0.3633 -0.0836
 8918TIP3   OH248168   1.183   4.838   0.493 -0.4579 -0.0798 -0.5113
 8918TIP3    H148169   1.101   4.871   0.531 -0.5299  0.0217 -0.7558
 8918TIP3    H248170   1.247   4.905   0.514 -0.1435 -0.7784  0.8482
 8919TIP3   OH248171   4.517   6.755   2.835 -0.0853 -0.2431 -0.3987
 8919TIP3    H148172   4.508   6.814   2.759 -0.9936 -0.5804 -0.5655
 8919TIP3    H248173   4.595   6.787   2.880 -0.4796  1.0154 -0.5538
 8920TIP3   OH248174   2.817   3.328   1.472  0.0941  0.4286 -0.0996
 8920TIP3    H148175   2.779   3.401   1.521  0.7884  0.3976  0.5037
 8920TIP3    H248176   2.750   3.260   1.473  0.6425 -0.1559  2.1530
 8921TIP3   OH248177   2.042   1.791   5.001  0.5222  0.0283  0.8641
 8921TIP3    H148178   2.019   1.718   4.944 -0.7719  0.6990  0.4977
 8921TIP3    H248179   1.988   1.863   4.971 -0.9712  0.1560  3.5460
 8922TIP3   OH248180   2.539   5.874   1.886  0.1639 -0.6634 -0.2587
 8922TIP3    H148181   2.520   5.835   1.801 -0.4782 -3.0100  0.8594
 8922TIP3    H248182   2.619   5.924   1.872  0.3251 -1.3575 -2.1449
 8923TIP3   OH248183   1.464   0.316  15.688 -0.4284 -0.1863  0.3366
 8923TIP3    H148184   1.525   0.347  15.756  0.3671  1.5311 -1.0877
 8923TIP3    H248185   1.378   0.348  15.716  0.1394  2.0302 -0.2603
 8924TIP3   OH248186   6.225   5.464  12.166  0.5025 -0.4505  0.2156
 8924TIP3    H148187   6.256   5.552  12.145 -0.4855 -0.3595 -0.9163
 8924TIP3    H248188   6.201   5.426  12.082  1.5004 -2.0482  0.6181
 8925TIP3   OH248189   5.429   4.206  17.216 -0.2124  0.0249  0.0223
 8925TIP3    H148190   5.522   4.230  17.216  0.8596 -3.5429  0.4404
 8925TIP3    H248191   5.386   4.277  17.169  2.8620  1.3525 -1.0308
 8926TIP3   OH248192   1.353   3.696  10.759 -0.1137  0.3318 -0.6266
 8926TIP3    H148193   1.388   3.611  10.733  1.4216 -0.1450  2.6193
 8926TIP3    H248194   1.296   3.677  10.834  0.1347  2.1413  0.0729
 8927TIP3   OH248195   1.652   4.787  16.051  0.3389 -0.1245  0.1217
 8927TIP3    H148196   1.732   4.751  16.088  0.5856  0.0835 -0.2060
 8927TIP3    H248197   1.629   4.859  16.109  0.7474  0.2273 -0.1527
 8928TIP3   OH248198   6.151   2.704  16.093  0.1915 -0.2239  0.5561
 8928TIP3    H148199   6.225   2.759  16.065  0.4737 -0.5331  0.6893
 8928TIP3    H248200   6.169   2.684  16.185 -0.4400  0.3105  0.8080
 8929TIP3   OH248201   0.546   4.525  11.399  0.5400  0.1518 -0.1788
 8929TIP3    H148202   0.616   4.468  11.431  3.0093  2.4685 -1.0872
 8929TIP3    H248203   0.579   4.614  11.413 -2.7599  1.4441  0.3884
 8930TIP3   OH248204   3.422   4.485   0.797 -0.7530  0.7917  0.4758
 8930TIP3    H148205   3.369   4.489   0.877  0.1554 -1.7986  1.2902
 8930TIP3    H248206   3.380   4.418   0.744 -0.1931  1.1031 -0.3773
 8931TIP3   OH248207   1.926   3.942  15.333  0.1029 -0.0036 -0.1790
 8931TIP3    H148208   1.883   3.860  15.357  0.3175  0.1604  0.8134
 8931TIP3    H248209   2.000   3.916  15.279 -1.1994 -0.2954 -1.9139
 8932TIP3   OH248210   5.097   5.813   3.924  0.0025 -0.6324  0.4159
 8932TIP3    H148211   5.176   5.867   3.924  0.3045 -1.0788 -0.2723
 8932TIP3    H248212   5.079   5.797   4.017  0.9009 -0.8024  0.5651
 8933TIP3   OH248213   5.036   3.510  11.832 -0.1179  0.3513  0.5922
 8933TIP3    H148214   5.034   3.451  11.757 -1.7812 -1.4252  1.9337
 8933TIP3    H248215   5.108   3.479  11.886  0.7555  1.3125  0.0135
 8934TIP3   OH248216   4.514   3.295  16.076  0.0125 -0.4251  0.1319
 8934TIP3    H148217   4.497   3.234  16.004  2.7460 -1.6290  0.4063
 8934TIP3    H248218   4.448   3.272  16.142 -1.3047 -0.5925 -1.1735
 8935TIP3   OH248219   2.215   3.709   3.383  0.5376  0.5035  0.0437
 8935TIP3    H148220   2.293   3.675   3.426  0.4168 -0.9985 -0.8509
 8935TIP3    H248221   2.175   3.633   3.340 -0.0090  1.6813 -1.6699
 8936TIP3   OH248222   3.682   6.687  12.526 -0.0231 -0.0744  0.0313
 8936TIP3    H148223   3.750   6.686  12.593  1.0976  0.0467 -1.0553
 8936TIP3    H248224   3.601   6.673  12.573  0.5951  1.1591  1.5549
 8937TIP3   OH248225   6.524   0.190   2.758 -0.1589  0.6995 -0.1065
 8937TIP3    H148226   6.543   0.222   2.670 -1.1370  0.8404 -0.2783
 8937TIP3    H248227   6.572   0.108   2.765  3.3298  2.6243  0.7370
 8938TIP3   OH248228   6.002   5.565   6.323  0.1478 -0.0277 -0.1991
 8938TIP3    H148229   5.951   5.646   6.327  1.6428  0.9921 -0.7453
 8938TIP3    H248230   6.001   5.532   6.412 -3.0547 -1.1427 -0.5013
 8939TIP3   OH248231   5.649   0.386   3.554  0.1481 -0.1937  0.0357
 8939TIP3    H148232   5.650   0.459   3.492 -0.0788  0.0070  0.2701
 8939TIP3    H248233   5.741   0.374   3.578  0.1860  0.0108 -0.0050
 8940TIP3   OH248234   5.879   1.148  13.157 -0.3031 -0.5712 -0.4811
 8940TIP3    H148235   5.837   1.227  13.192  1.0381 -0.9242  2.1848
 8940TIP3    H248236   5.832   1.130  13.076 -1.6804  2.0625 -0.3775
 8941TIP3   OH248237   5.091   5.104   4.602 -0.4747 -0.6175 -0.2195
 8941TIP3    H148238   5.129   5.181   4.643 -3.1273 -0.4357  2.1567
 8941TIP3    H248239   4.998   5.107   4.624 -1.0152 -3.5980 -1.5056
 8942TIP3   OH248240   1.632   4.978  16.244  0.2353  0.5004  0.0621
 8942TIP3    H148241   1.702   5.031  16.208  2.9495 -1.9341  1.3619
 8942TIP3    H248242   1.671   4.933  16.318 -1.7254 -3.2974 -0.9375
 8943TIP3   OH248243   0.942   2.546   5.797  0.1385 -0.0935  0.2936
 8943TIP3    H148244   0.905   2.513   5.879 -0.3411  0.1738  0.1888
 8943TIP3    H248245   0.993   2.472   5.762 -1.5674 -1.0288 -0.3469
 8944TIP3   OH248246   5.569   6.494   3.071  0.3460 -0.3400 -0.1442
 8944TIP3    H148247   5.563   6.570   3.013 -1.2725  0.0012  0.4180
 8944TIP3    H248248   5.661   6.470   3.070  0.6348  0.7220 -1.4937
 8945TIP3   OH248249   4.306   0.976   1.164  0.0100 -0.1038 -0.2929
 8945TIP3    H148250   4.256   0.956   1.243 -0.2817 -1.1977 -0.7366
 8945TIP3    H248251   4.315   0.892   1.119 -1.3876  0.7601 -2.3337
 8946TIP3   OH248252   4.012   0.905   4.234  0.1901 -0.5851  0.1145
 8946TIP3    H148253   3.943   0.966   4.210  0.4755 -0.7946 -1.3144
 8946TIP3    H248254   3.974   0.852   4.304 -1.8994 -2.0776 -2.0061
 8947TIP3   OH248255   2.836   4.324   6.099  0.1810 -0.9394 -0.2628
 8947TIP3    H148256   2.745   4.349   6.079 -0.3428 -0.4989  2.3628
 8947TIP3    H248257   2.865   4.390   6.162  1.7532 -2.0806  0.2389
 8948TIP3   OH248258   4.878   2.839  17.081 -0.1856 -0.1503 -0.2932
 8948TIP3    H148259   4.827   2.800  17.011 -1.6498  1.1129  0.0017
 8948TIP3    H248260   4.848   2.794  17.160 -0.9943  0.6949 -0.1023
 8949TIP3   OH248261   0.291   6.154  13.997  0.4237 -0.1295 -0.0976
 8949TIP3    H148262   0.318   6.233  13.949  0.4480 -0.4320 -0.5923
 8949TIP3    H248263   0.243   6.187  14.073 -0.2187  0.3446 -0.6957
 8950TIP3   OH248264   2.493   0.818   4.001  0.0922  0.3108  0.1966
 8950TIP3    H148265   2.520   0.783   4.086  0.3805  0.1857  0.0552
 8950TIP3    H248266   2.575   0.831   3.954 -0.0732  0.3068 -0.0907
 8951TIP3   OH248267   5.214   1.288   5.761 -0.0982 -0.0447 -0.2286
 8951TIP3    H148268   5.244   1.371   5.797 -1.0810  0.6903 -1.0637
 8951TIP3    H248269   5.218   1.227   5.835  0.6852  0.7186  0.3744
 8952TIP3   OH248270   5.051   0.559  13.304 -0.1668 -0.3472  0.2422
 8952TIP3    H148271   4.968   0.604  13.295  0.5434  0.6376 -2.2535
 8952TIP3    H248272   5.034   0.488  13.366 -2.4946  0.5896  0.7581
 8953TIP3   OH248273   2.945   4.262  12.138 -0.5379 -0.4964  0.8629
 8953TIP3    H148274   2.923   4.261  12.045 -0.2382 -1.0717  0.7945
 8953TIP3    H248275   2.942   4.355  12.162  0.5337 -0.2109  0.0020
 8954TIP3   OH248276   1.883   2.729  13.759 -0.2752  0.2508 -0.6070
 8954TIP3    H148277   1.862   2.665  13.691  0.0128 -1.5986  0.9565
 8954TIP3    H248278   1.840   2.695  13.838  1.2879  1.0615  0.6474
 8955TIP3   OH248279   6.563   0.093   4.238 -0.2748 -0.3935 -0.3899
 8955TIP3    H148280   6.518   0.145   4.304 -2.9723 -1.4544 -1.2440
 8955TIP3    H248281   6.609   0.157   4.184 -3.9597  1.3682 -1.7835
 8956TIP3   OH248282   6.771   1.208   0.284 -0.0642 -0.8540  0.1371
 8956TIP3    H148283   6.758   1.302   0.272 -0.3949 -1.1674 -2.5917
 8956TIP3    H248284   6.747   1.192   0.375 -1.8938  1.4000  0.1483
 8957TIP3   OH248285   4.209   1.969  14.137 -0.1593  0.0513 -0.2404
 8957TIP3    H148286   4.276   1.947  14.202 -0.5686  0.2535  0.2628
 8957TIP3    H248287   4.237   1.925  14.057  1.1713  1.0569 -0.3610
 8958TIP3   OH248288   3.914   2.233   3.029 -0.3222  0.0551 -0.2437
 8958TIP3    H148289   3.896   2.139   3.039 -2.1291  0.5190  1.7277
 8958TIP3    H248290   3.950   2.242   2.941 -3.1430 -2.0946 -1.7864
 8959TIP3   OH248291   3.696   4.423  12.379 -0.0868  0.1636 -0.6777
 8959TIP3    H148292   3.648   4.499  12.346 -2.3700 -0.9104 -0.0273
 8959TIP3    H248293   3.717   4.373  12.300 -3.6745 -1.3400 -0.8625
 8960TIP3   OH248294   0.947   0.745  14.229 -0.2311  0.2514  0.0079
 8960TIP3    H148295   1.011   0.733  14.299  0.3871  2.0268 -0.1982
 8960TIP3    H248296   0.897   0.822  14.256 -0.7640  0.2458 -0.9335
 8961TIP3   OH248297   0.517   3.272  16.638 -0.2414 -0.6283  0.3566
 8961TIP3    H148298   0.553   3.274  16.550 -0.5729  0.7013  0.2359
 8961TIP3    H248299   0.592   3.249  16.694  0.2191 -0.3914 -0.1554
 8962TIP3   OH248300   5.625   4.992  16.071  0.3314 -0.2899 -0.1460
 8962TIP3    H148301   5.556   4.928  16.086 -1.0676  0.8219 -1.5371
 8962TIP3    H248302   5.579   5.074  16.053  2.0217  0.5934 -0.6737
 8963TIP3   OH248303   6.110   3.488  14.931  0.0312  0.3972 -0.1581
 8963TIP3    H148304   6.140   3.575  14.957 -1.6231  0.7322  0.7849
 8963TIP3    H248305   6.031   3.474  14.983  0.9198 -2.1927  0.6509
 8964TIP3   OH248306   3.223   0.617  15.013  0.1687  0.0673 -0.4635
 8964TIP3    H148307   3.314   0.617  14.981  0.5801  1.4021  0.5902
 8964TIP3    H248308   3.226   0.563  15.092  0.2395  0.7795  0.0277
 8965TIP3   OH248309   6.553   1.921   6.106  0.2006  0.0665  0.1162
 8965TIP3    H148310   6.558   1.825   6.099  2.0129  0.1434  0.0636
 8965TIP3    H248311   6.459   1.940   6.096 -0.1094 -1.6343 -0.6498
 8966TIP3   OH248312   1.199   5.908  15.360  0.5475 -0.1080 -0.0026
 8966TIP3    H148313   1.279   5.875  15.319  0.4895 -0.5013  0.1978
 8966TIP3    H248314   1.155   5.830  15.394  0.1067  0.1099 -0.0607
 8967TIP3   OH248315   3.176   3.222  14.135 -0.3834 -0.0680 -0.3498
 8967TIP3    H148316   3.159   3.315  14.119  0.7222  0.0367 -0.9985
 8967TIP3    H248317   3.096   3.178  14.105 -1.2357  0.7090  0.6826
 8968TIP3   OH248318   0.103   5.282   2.377 -0.1653  0.2503  0.2902
 8968TIP3    H148319   0.096   5.246   2.288  0.5197  0.6287  0.0744
 8968TIP3    H248320   0.188   5.252   2.408 -0.8307 -0.7341  1.2260
 8969TIP3   OH248321   2.018   5.054  15.664  0.4270 -0.7573 -0.2049
 8969TIP3    H148322   2.038   4.998  15.739 -1.0030  0.5496  1.2258
 8969TIP3    H248323   1.994   5.138  15.702 -2.5405 -0.6752 -1.9593
 8970TIP3   OH248324   6.628   2.771  11.656  0.0980  0.2697 -0.2106
 8970TIP3    H148325   6.548   2.819  11.633 -0.6766 -1.5596 -1.5464
 8970TIP3    H248326   6.696   2.839  11.659 -1.4107  1.8256  0.6374
 8971TIP3   OH248327   2.841   5.412   4.021  0.5585  0.5928  0.6449
 8971TIP3    H148328   2.868   5.322   4.002 -1.5823 -0.0051  0.1695
 8971TIP3    H248329   2.876   5.429   4.109 -0.3900 -1.3281  1.4561
 8972TIP3   OH248330   0.199   4.634  11.149  0.1774  0.3692 -0.2944
 8972TIP3    H148331   0.116   4.605  11.187 -0.9412  0.7379 -2.2856
 8972TIP3    H248332   0.193   4.729  11.149  1.8534  0.5502  2.0513
 8973TIP3   OH248333   4.532   4.497   4.002  0.5610  0.5096  0.4313
 8973TIP3    H148334   4.491   4.413   3.984 -0.0818  0.7570  0.7352
 8973TIP3    H248335   4.503   4.520   4.090 -1.3043  2.2276 -0.5574
 8974TIP3   OH248336   0.573   3.246   1.551  0.1848 -0.0840  0.2547
 8974TIP3    H148337   0.609   3.261   1.639  1.0390  0.4733 -0.1745
 8974TIP3    H248338   0.510   3.175   1.563 -0.3559  0.5679  1.4747
 8975TIP3   OH248339   0.705   5.708   0.391  0.1802  0.0239 -0.0134
 8975TIP3    H148340   0.697   5.679   0.300 -0.3522 -1.4360  0.4594
 8975TIP3    H248341   0.739   5.631   0.437 -0.6934  0.3528  1.2257
 8976TIP3   OH248342   5.282   3.145   5.255  0.2172  0.3809  0.4566
 8976TIP3    H148343   5.304   3.073   5.197 -1.2794 -1.4609  2.0130
 8976TIP3    H248344   5.365   3.186   5.276  1.0952 -0.7364 -0.6832
 8977TIP3   OH248345   4.850   3.267   1.636 -0.0241 -0.1525 -0.5024
 8977TIP3    H148346   4.872   3.235   1.549  0.7869 -0.6160 -0.1404
 8977TIP3    H248347   4.875   3.359   1.635  0.8997 -0.3923 -0.4681
 8978TIP3   OH248348   5.467   4.828   0.698 -0.7573  0.0855  0.2869
 8978TIP3    H148349   5.556   4.805   0.724 -0.1696  1.9776  0.1134
 8978TIP3    H248350   5.456   4.788   0.612 -0.1174 -0.2301  0.3431
 8979TIP3   OH248351   3.941   1.542   3.943  0.0797  0.3446 -0.4752
 8979TIP3    H148352   3.850   1.543   3.914  0.7021  0.0815 -2.5687
 8979TIP3    H248353   3.949   1.618   4.000 -1.5516  0.0972  0.1248
 8980TIP3   OH248354   2.791   5.090   2.169 -0.0248  0.1755 -0.7474
 8980TIP3    H148355   2.859   5.113   2.232  0.2685  0.6741 -1.2440
 8980TIP3    H248356   2.825   5.013   2.124 -0.1917 -0.1216 -0.3763
 8981TIP3   OH248357   1.806   2.137   0.466  0.3806 -0.2327  0.2933
 8981TIP3    H148358   1.767   2.182   0.541  1.1220  0.3924  0.3280
 8981TIP3    H248359   1.787   2.045   0.481 -3.2659  0.1539 -0.9832
 8982TIP3   OH248360   5.894   2.327   2.831  0.4474 -0.0029 -0.1711
 8982TIP3    H148361   5.947   2.307   2.908 -0.6095 -2.9000 -0.0547
 8982TIP3    H248362   5.938   2.282   2.759 -0.8943 -1.0741 -0.3703
 8983TIP3   OH248363   4.919   0.087  12.907  0.0588  0.4711 -0.0490
 8983TIP3    H148364   4.962   0.004  12.925 -1.3449  0.1705  2.2683
 8983TIP3    H248365   4.852   0.066  12.842 -1.6169 -0.7137  1.9593
 8984TIP3   OH248366   4.097   3.580   2.672  0.4515  0.1220  0.1136
 8984TIP3    H148367   4.013   3.597   2.715  0.6761  0.2186  0.5192
 8984TIP3    H248368   4.075   3.523   2.598  0.1966 -1.0145  1.0176
 8985TIP3   OH248369   6.328   1.982   5.574  0.3782 -0.4538  0.0890
 8985TIP3    H148370   6.243   2.019   5.597  0.1605 -0.1670 -1.1460
 8985TIP3    H248371   6.377   2.055   5.536  0.3172 -1.1735 -1.4179
 8986TIP3   OH248372   5.864   0.955   0.750  0.0227  0.0679  0.3812
 8986TIP3    H148373   5.786   0.996   0.788  0.6803  1.3184  0.4407
 8986TIP3    H248374   5.858   0.976   0.657  1.4384  2.2289  0.7080
 8987TIP3   OH248375   0.731   2.170  12.826 -0.6754 -0.3451  0.3431
 8987TIP3    H148376   0.736   2.110  12.752 -1.5293  0.4913 -0.4119
 8987TIP3    H248377   0.808   2.227  12.817 -2.4434  1.9183 -1.8786
 8988TIP3   OH248378   6.673   6.339   2.625 -0.3998 -1.1177 -0.5021
 8988TIP3    H148379   6.730   6.354   2.701 -2.1656 -2.5021  1.2085
 8988TIP3    H248380   6.685   6.247   2.603 -2.6637 -1.7532  0.6038
 8989TIP3   OH248381   2.619   0.666  11.634  0.4516 -0.4033 -0.0278
 8989TIP3    H148382   2.551   0.608  11.599  0.1482 -0.4140  0.5746
 8989TIP3    H248383   2.600   0.672  11.727  0.6828  0.4055 -0.0266
 8990TIP3   OH248384   6.011   0.056   0.061 -0.2055  0.1074 -1.0438
 8990TIP3    H148385   5.977   0.144   0.078 -0.4810 -0.1309 -0.3162
 8990TIP3    H248386   5.986   0.005   0.138 -0.5033 -0.7449 -1.6822
 8991TIP3   OH248387   2.412   5.334   5.288  0.1920  0.4343 -0.2868
 8991TIP3    H148388   2.431   5.282   5.209 -0.1296 -3.1157  1.7519
 8991TIP3    H248389   2.489   5.322   5.343 -0.5779  0.8212  0.8971
 8992TIP3   OH248390   1.082   3.136   4.538  0.1977  0.2414 -0.8903
 8992TIP3    H148391   1.162   3.183   4.512  0.2230  1.4083  1.1262
 8992TIP3    H248392   1.022   3.205   4.565 -0.1315 -0.8022  1.2247
 8993TIP3   OH248393   3.140   4.011   0.752  0.4071  0.3584 -0.2926
 8993TIP3    H148394   3.085   4.051   0.685  0.8042  2.5328  0.5944
 8993TIP3    H248395   3.226   4.002   0.711  0.3136  0.3845 -0.4964
 8994TIP3   OH248396   3.965   5.205   3.579 -0.4506  0.2518  0.1977
 8994TIP3    H148397   3.913   5.126   3.565 -0.6454  0.3802  0.1881
 8994TIP3    H248398   3.980   5.240   3.491  0.5185 -0.3281  0.1109
 8995TIP3   OH248399   4.371   3.643   1.814 -0.1414 -0.3258 -0.3412
 8995TIP3    H148400   4.287   3.614   1.780 -0.9651  0.8561  0.5812
 8995TIP3    H248401   4.370   3.617   1.906 -0.7227  2.0385  0.4037
 8996TIP3   OH248402   4.675   5.786   4.340  0.5094 -0.3748 -0.2731
 8996TIP3    H148403   4.689   5.879   4.328  2.1479 -0.6730 -0.9914
 8996TIP3    H248404   4.701   5.769   4.431 -0.8768  0.0289  0.2184
 8997TIP3   OH248405   3.200   3.921  16.436 -0.2283 -0.0632  0.0986
 8997TIP3    H148406   3.200   3.943  16.529  0.8567  0.9775 -0.1276
 8997TIP3    H248407   3.188   4.005  16.392 -1.2759 -0.6044 -0.7156
 8998TIP3   OH248408   0.128   3.514  16.722 -0.3815 -0.0637  0.1080
 8998TIP3    H148409   0.135   3.446  16.789 -0.5967  0.1912  0.3960
 8998TIP3    H248410   0.207   3.504  16.669 -0.7409 -0.9716 -0.2702
 8999TIP3   OH248411   2.289   1.753  12.646 -0.2833 -0.7300  0.0923
 8999TIP3    H148412   2.348   1.827  12.658 -0.2037 -0.9876  1.5102
 8999TIP3    H248413   2.347   1.680  12.624 -0.0470 -0.9438  1.3157
 9000TIP3   OH248414   2.949   5.062  13.247  0.0914  0.4328 -0.1860
 9000TIP3    H148415   2.986   5.031  13.329 -0.1309  0.3506 -0.1160
 9000TIP3    H248416   2.962   4.989  13.186 -0.5314  0.1596  0.0077
 9001TIP3   OH248417   5.965   3.526   1.167 -0.2016  0.0421  0.5850
 9001TIP3    H148418   5.925   3.537   1.081  1.3307 -0.6349 -0.2545
 9001TIP3    H248419   5.990   3.434   1.171  0.2561  0.1881  1.5359
 9002TIP3   OH248420   3.189   3.617   3.166  0.0734 -0.5382  0.2585
 9002TIP3    H148421   3.259   3.670   3.128 -1.4289  1.5663  0.2722
 9002TIP3    H248422   3.201   3.626   3.260 -0.3030 -0.0596  0.2601
 9003TIP3   OH248423   4.643   4.670   5.418 -0.2836 -0.4040 -0.0404
 9003TIP3    H148424   4.729   4.633   5.438  0.2095  0.9102  0.3299
 9003TIP3    H248425   4.610   4.700   5.503 -0.7353 -0.1182 -0.3128
 9004TIP3   OH248426   2.211   4.693  15.847 -0.2449 -0.1853 -0.5879
 9004TIP3    H148427   2.241   4.637  15.918  0.3324 -0.3490 -0.9557
 9004TIP3    H248428   2.213   4.637  15.770  1.3213  0.5970 -1.1486
 9005TIP3   OH248429   3.747   4.373   2.996 -0.7889 -0.1870 -0.1244
 9005TIP3    H148430   3.767   4.289   3.037 -2.5025 -0.7856 -0.4371
 9005TIP3    H248431   3.733   4.353   2.904  1.2402  0.8712 -0.7304
 9006TIP3   OH248432   1.312   0.098  16.021 -0.9440 -0.0721 -0.5677
 9006TIP3    H148433   1.354   0.182  16.038 -0.7490 -0.2054 -0.3774
 9006TIP3    H248434   1.230   0.120  15.976 -0.3561  0.1580 -1.5573
 9007TIP3   OH248435   2.786   3.759  13.195  0.5980 -0.0957  0.2687
 9007TIP3    H148436   2.838   3.682  13.220  1.7442  0.4297 -0.4222
 9007TIP3    H248437   2.829   3.792  13.117 -0.3968  0.7649  0.0681
 9008TIP3   OH248438   1.688   0.793   1.314  0.3705  0.1047  0.1047
 9008TIP3    H148439   1.762   0.751   1.357 -0.2074  0.3207  1.3637
 9008TIP3    H248440   1.611   0.755   1.357 -0.1891  1.4971  0.3828
 9009TIP3   OH248441   3.625   1.598  12.823  0.2248  0.0112 -0.5337
 9009TIP3    H148442   3.619   1.658  12.749 -0.0399  1.8531  0.9227
 9009TIP3    H248443   3.535   1.568  12.837  0.1877  0.0826 -0.6196
 9010TIP3   OH248444   0.082   2.190   6.440 -0.3659 -0.4036  0.9454
 9010TIP3    H148445   0.055   2.134   6.367  0.6084  0.7671 -0.3744
 9010TIP3    H248446   0.177   2.178   6.446  0.0207  1.7510  0.0040
 9011TIP3   OH248447   3.129   0.982  10.964 -0.0557 -0.5269  0.7767
 9011TIP3    H148448   3.063   1.033  11.011  0.0059 -0.6102  0.9564
 9011TIP3    H248449   3.139   1.026  10.880  0.5997  0.2587  1.2453
 9012TIP3   OH248450   5.037   6.417  15.843 -0.6869 -0.3878 -0.0283
 9012TIP3    H148451   5.111   6.357  15.836 -0.4148 -0.1389  0.6900
 9012TIP3    H248452   5.076   6.501  15.867 -1.2815 -0.4852  1.3970
 9013TIP3   OH248453   6.457   5.828  11.526 -0.2276 -0.6564  0.4286
 9013TIP3    H148454   6.504   5.894  11.577 -1.2718  0.8057 -0.4342
 9013TIP3    H248455   6.527   5.771  11.493  0.6345 -0.4517  1.8001
 9014TIP3   OH248456   0.995   4.180   4.658 -0.2773  0.0395 -0.4102
 9014TIP3    H148457   1.009   4.088   4.635  0.7478  0.6018 -2.3083
 9014TIP3    H248458   1.049   4.229   4.595 -0.1181  1.9217  1.0881
 9015TIP3   OH248459   2.897   4.322   1.987  0.1756  0.5850 -0.4394
 9015TIP3    H148460   2.923   4.240   2.031  1.6024  1.3413  0.1773
 9015TIP3    H248461   2.893   4.299   1.894  0.7044 -0.1564 -0.2884
 9016TIP3   OH248462   3.781   3.778  16.881  0.0097  0.3739  0.0750
 9016TIP3    H148463   3.693   3.746  16.859 -0.6614  2.2926 -0.2585
 9016TIP3    H248464   3.831   3.767  16.800 -0.1525  0.0044  0.0214
 9017TIP3   OH248465   2.930   2.496   0.339 -0.5669 -0.0475  0.8269
 9017TIP3    H148466   2.999   2.490   0.273 -1.2301 -1.4982  0.2325
 9017TIP3    H248467   2.937   2.585   0.373  0.7695  0.2330 -0.1197
 9018TIP3   OH248468   5.772   0.648  16.663 -0.4929 -0.2373  0.0597
 9018TIP3    H148469   5.808   0.624  16.749  0.1276 -1.0464 -0.4083
 9018TIP3    H248470   5.680   0.620  16.667  0.0724 -2.3511 -0.2773
 9019TIP3   OH248471   6.210   4.693  14.840 -1.1165 -0.1726  0.1412
 9019TIP3    H148472   6.129   4.737  14.867  0.0176  2.7136 -0.7276
 9019TIP3    H248473   6.261   4.685  14.920 -1.7800 -0.9718  0.4958
 9020TIP3   OH248474   5.298   0.167   6.006  0.3574  0.1554 -0.2228
 9020TIP3    H148475   5.280   0.130   6.092  0.8266  0.8529  0.1786
 9020TIP3    H248476   5.377   0.220   6.018 -0.2653  1.2467 -0.8006
 9021TIP3   OH248477   2.860   3.337   0.891 -0.0478 -0.9104 -0.1530
 9021TIP3    H148478   2.953   3.322   0.872 -0.2327 -0.5070 -1.5436
 9021TIP3    H248479   2.857   3.354   0.985  1.4696  0.3319 -0.2867
 9022TIP3   OH248480   1.863   4.082   0.560  0.4033 -0.0085 -0.7466
 9022TIP3    H148481   1.797   4.127   0.507  2.4878  0.7876 -2.8062
 9022TIP3    H248482   1.877   4.140   0.635  0.3652  0.9249 -1.4459
 9023TIP3   OH248483   6.592   3.225  15.869  0.3349 -0.3056  0.2983
 9023TIP3    H148484   6.604   3.141  15.824  2.0433  0.7152 -1.2922
 9023TIP3    H248485   6.574   3.287  15.798 -0.1256  0.8378  1.3762
 9024TIP3   OH248486   6.547   1.288  16.022 -0.0455 -0.0866  0.5604
 9024TIP3    H148487   6.453   1.278  16.041  0.1571 -0.1274  1.6516
 9024TIP3    H248488   6.587   1.296  16.109  0.8768  0.7187  0.0678
 9025TIP3   OH248489   6.160   0.449  16.309  0.5043  0.1932 -0.2955
 9025TIP3    H148490   6.079   0.501  16.309 -0.7076 -1.5906  0.9936
 9025TIP3    H248491   6.147   0.385  16.379  3.3139  0.2284  0.3471
 9026TIP3   OH248492   5.844   1.367   5.902 -0.2232  0.3017  0.2320
 9026TIP3    H148493   5.752   1.393   5.911 -0.6466 -0.7828 -0.7311
 9026TIP3    H248494   5.840   1.282   5.858  1.2772  0.4987 -0.3088
 9027TIP3   OH248495   2.428   1.755  16.839  0.3376 -0.3003 -0.0948
 9027TIP3    H148496   2.461   1.762  16.750  0.3670  0.5643 -0.0227
 9027TIP3    H248497   2.500   1.784  16.894 -0.4998  1.6173  0.0618
 9028TIP3   OH248498   4.733   5.773  12.517 -0.8873  0.8441 -0.8055
 9028TIP3    H148499   4.773   5.818  12.443 -0.1350  0.1220 -0.8486
 9028TIP3    H248500   4.746   5.833  12.591  1.7085  0.0072 -0.4793
 9029TIP3   OH248501   1.559   6.656   2.958 -0.7279 -0.3096 -0.2855
 9029TIP3    H148502   1.562   6.653   3.053  0.6516  1.0849 -0.2444
 9029TIP3    H248503   1.578   6.566   2.931  1.4550 -0.2299  0.7724
 9030TIP3   OH248504   0.345   1.801  13.248  0.0674 -0.5603 -0.2951
 9030TIP3    H148505   0.314   1.782  13.159 -0.7481  2.1522 -0.6829
 9030TIP3    H248506   0.349   1.897  13.252  0.5893 -0.6173  2.4432
 9031TIP3   OH248507   5.768   4.424  15.385  0.8350  0.1126 -0.0816
 9031TIP3    H148508   5.747   4.375  15.306 -0.2511  0.7139 -0.1952
 9031TIP3    H248509   5.780   4.358  15.453 -0.1230 -0.3270 -0.3333
 9032TIP3   OH248510   6.720   1.298  16.713  0.4808  0.2583  0.2157
 9032TIP3    H148511   6.784   1.357  16.752  1.0240 -0.5879  0.6325
 9032TIP3    H248512   6.769   1.218  16.693 -0.0315  0.2633 -1.1805
 9033TIP3   OH248513   5.906   2.723  13.065 -0.3783 -0.1989  0.2176
 9033TIP3    H148514   5.882   2.657  13.000 -0.9125  2.1549 -2.1228
 9033TIP3    H248515   5.975   2.774  13.024  1.5581 -0.5173  2.8367
 9034TIP3   OH248516   5.005   4.600  12.070 -0.1421  0.3625  0.0830
 9034TIP3    H148517   5.009   4.692  12.097 -1.3457  1.2842 -2.5455
 9034TIP3    H248518   4.917   4.589  12.035  0.4080 -1.4459 -0.8865
 9035TIP3   OH248519   0.169   1.118  13.050 -0.2425 -0.5006  0.1134
 9035TIP3    H148520   0.206   1.160  12.972 -2.6270 -1.6795 -1.7884
 9035TIP3    H248521   0.179   1.025  13.034  0.5728 -0.7727  1.9832
 9036TIP3   OH248522   1.178   5.297  14.625  0.4392 -0.8225 -0.3388
 9036TIP3    H148523   1.153   5.286  14.533 -0.9393  2.2293 -0.4645
 9036TIP3    H248524   1.113   5.246  14.673 -1.5401  0.9591 -0.9820
 9037TIP3   OH248525   1.846   1.892   0.195  0.2298  0.4540  0.7377
 9037TIP3    H148526   1.903   1.825   0.235  1.4263  0.5071 -0.7810
 9037TIP3    H248527   1.907   1.949   0.148 -1.0455  0.8276 -0.5019
 9038TIP3   OH248528   5.321   0.291   5.116  0.7202  0.2975 -0.5545
 9038TIP3    H148529   5.363   0.373   5.090 -0.2551 -0.2787 -4.4592
 9038TIP3    H248530   5.357   0.225   5.057  1.6987 -2.3264  2.6339
 9039TIP3   OH248531   1.993   5.780   4.071 -0.2596 -0.2823 -0.2798
 9039TIP3    H148532   2.077   5.794   4.115 -0.4741  0.9211 -0.2110
 9039TIP3    H248533   2.016   5.736   3.989  0.5246  0.6266 -0.5670
 9040TIP3   OH248534   6.201   5.045   3.011  0.3835  0.3055  0.1488
 9040TIP3    H148535   6.289   5.071   2.984  1.6628 -0.6440  3.0198
 9040TIP3    H248536   6.158   5.126   3.035  1.4820  0.5676  1.3361
 9041TIP3   OH248537   3.507   3.895   4.903  0.1580 -0.2078  0.3680
 9041TIP3    H148538   3.446   3.937   4.842  0.3900  1.4596  1.2037
 9041TIP3    H248539   3.594   3.924   4.874  0.4247 -1.1099  0.2520
 9042TIP3   OH248540   6.332   3.095  16.410  0.3173 -0.9211 -0.1225
 9042TIP3    H148541   6.320   3.187  16.431  0.5063 -0.5915 -1.3603
 9042TIP3    H248542   6.259   3.050  16.452 -2.1219  0.3004 -2.7457
 9043TIP3   OH248543   0.459   4.718  13.139  0.7742  0.2559  0.6223
 9043TIP3    H148544   0.520   4.722  13.212  1.0294 -2.4487  0.6461
 9043TIP3    H248545   0.373   4.720  13.179  0.9069 -2.0163  1.1529
 9044TIP3   OH248546   1.860   3.677   4.525 -0.6295  1.0030 -0.2072
 9044TIP3    H148547   1.811   3.757   4.543 -2.3459  0.3058 -1.4520
 9044TIP3    H248548   1.866   3.674   4.429  3.2601  1.7984 -0.1354
 9045TIP3   OH248549   0.820   2.726   4.544 -0.1416 -0.2295  0.2482
 9045TIP3    H148550   0.806   2.819   4.560 -1.3661 -0.5896  1.4414
 9045TIP3    H248551   0.909   2.708   4.576 -0.3690  0.2777  1.1742
 9046TIP3   OH248552   6.104   6.134   3.473  0.2782 -0.3910  0.4489
 9046TIP3    H148553   6.119   6.205   3.536  1.8847 -0.8110  0.5771
 9046TIP3    H248554   6.055   6.068   3.522 -1.8175  0.8658  0.1438
 9047TIP3   OH248555   1.288   0.819   0.032  0.0968  0.3905  0.2383
 9047TIP3    H148556   1.311   0.877  -0.040  0.4164  0.5727  0.4867
 9047TIP3    H248557   1.281   0.732  -0.008 -0.3089  0.5820 -0.1208
 9048TIP3   OH248558   1.197   4.780   5.999  0.5648  0.1402 -0.2821
 9048TIP3    H148559   1.263   4.718   5.966  1.2637 -0.1881  1.5593
 9048TIP3    H248560   1.226   4.799   6.089  0.8756  3.8349 -1.0221
 9049TIP3   OH248561   3.317   3.042  15.787  0.4838 -0.4679 -0.5092
 9049TIP3    H148562   3.374   3.068  15.859  1.8495 -2.4636 -0.8002
 9049TIP3    H248563   3.339   2.951  15.771 -0.5670 -0.3868 -2.7555
 9050TIP3   OH248564   3.403   0.508  16.780 -0.0713  0.0574  0.2541
 9050TIP3    H148565   3.436   0.422  16.753 -1.0669 -0.6077  1.0594
 9050TIP3    H248566   3.478   0.551  16.820 -0.1252 -1.4688  2.1458
 9051TIP3   OH248567   4.061   0.768  17.052 -0.2019 -0.2936  0.1018
 9051TIP3    H148568   4.078   0.828  16.979 -0.8549  0.3816  0.4915
 9051TIP3    H248569   4.146   0.726  17.068 -0.3500 -1.5947 -2.0219
 9052TIP3   OH248570   4.942   0.350  16.138 -0.4206  0.1070  0.0427
 9052TIP3    H148571   4.943   0.357  16.234  0.0197 -0.3356  0.0752
 9052TIP3    H248572   4.868   0.404  16.111 -0.7822 -0.0666  0.6582
 9053TIP3   OH248573   5.765   4.525  14.991  0.4405  0.0208  0.3877
 9053TIP3    H148574   5.683   4.572  14.976  1.2015  0.8316 -1.4950
 9053TIP3    H248575   5.813   4.580  15.053 -0.3386 -0.3923  1.3976
 9054TIP3   OH248576   1.288   1.391   0.654  0.3155  0.1044 -0.4466
 9054TIP3    H148577   1.222   1.437   0.707  1.6479  2.6731 -0.8167
 9054TIP3    H248578   1.334   1.335   0.716 -1.2585 -0.6249  0.1021
 9055TIP3   OH248579   2.790   5.914   1.780 -0.3280 -0.1226  0.4070
 9055TIP3    H148580   2.875   5.921   1.823  0.4645 -1.4004 -0.8801
 9055TIP3    H248581   2.797   5.836   1.726 -1.4461  1.1322 -1.6633
 9056TIP3   OH248582   0.191   3.060   3.852  0.0839 -0.4170 -0.2602
 9056TIP3    H148583   0.134   3.131   3.881 -0.0900  0.0432 -1.6421
 9056TIP3    H248584   0.161   2.984   3.901 -0.2560  0.2883  0.6548
 9057TIP3   OH248585   6.371   4.091  15.926  0.0886  0.6043 -0.1392
 9057TIP3    H148586   6.388   4.056  15.839  0.1541  1.2845 -0.4085
 9057TIP3    H248587   6.325   4.020  15.972 -1.1546  0.6958 -1.1616
 9058TIP3   OH248588   2.251   1.136   3.385  0.9152 -0.1224  0.4276
 9058TIP3    H148589   2.191   1.094   3.324  0.0870 -0.7406  1.6234
 9058TIP3    H248590   2.223   1.227   3.387 -0.1808 -0.4669  1.1889
 9059TIP3   OH248591   4.667   0.387  17.032 -0.4228 -0.4870  0.6075
 9059TIP3    H148592   4.608   0.392  16.957 -0.6400  1.6713  0.8582
 9059TIP3    H248593   4.659   0.297  17.063  0.9081 -1.9721 -2.8669
 9060TIP3   OH248594   5.124   5.307  15.193  0.3381  0.4926 -0.0808
 9060TIP3    H148595   5.107   5.401  15.191  0.9336  0.6259 -2.8747
 9060TIP3    H248596   5.086   5.274  15.111  1.6017 -1.4124  0.0286
 9061TIP3   OH248597   3.371   2.023   4.832  0.6382 -0.3737 -0.0936
 9061TIP3    H148598   3.289   2.039   4.784  1.6864  0.0727 -1.8473
 9061TIP3    H248599   3.351   2.045   4.923 -0.4676  2.4217 -0.9058
 9062TIP3   OH248600   3.896   2.455  10.504  0.2920  0.0184 -0.5177
 9062TIP3    H148601   3.890   2.361  10.491  1.3653 -0.2162  0.5034
 9062TIP3    H248602   3.988   2.471  10.523  0.2755  1.3951 -1.4781
 9063TIP3   OH248603   5.736   4.938   1.280 -0.4118 -0.0927 -0.4871
 9063TIP3    H148604   5.725   5.024   1.239  0.7720  0.6040  0.6003
 9063TIP3    H248605   5.803   4.894   1.228  0.8789  0.6772  0.4960
 9064TIP3   OH248606   0.704   5.643   0.119  0.0715 -0.2262 -0.1256
 9064TIP3    H148607   0.741   5.557   0.096  0.2230 -0.0141 -0.6872
 9064TIP3    H248608   0.763   5.706   0.077  1.3064  0.2499  2.1893
 9065TIP3   OH248609   3.375   1.696  13.675  0.2719 -0.2925 -0.1341
 9065TIP3    H148610   3.335   1.781  13.695 -0.3871 -0.5676 -0.2520
 9065TIP3    H248611   3.302   1.642  13.645  1.0622 -0.0999 -2.7269
 9066TIP3   OH248612   5.038   4.929   1.500 -0.2921  0.5679  0.2865
 9066TIP3    H148613   5.045   4.869   1.426  0.9400 -0.0932  0.9134
 9066TIP3    H248614   4.947   4.959   1.498 -0.4849 -0.0369 -1.0157
 9067TIP3   OH248615   6.007   4.722   5.210  0.5944 -0.1114  0.3379
 9067TIP3    H148616   5.982   4.667   5.136  1.9400 -0.0756 -0.1784
 9067TIP3    H248617   6.052   4.663   5.270  1.3608  0.2532  0.1366
 9068TIP3   OH248618   0.166   2.896   5.212  0.5941 -0.0445 -0.0427
 9068TIP3    H148619   0.146   2.828   5.276  1.6496  0.4193  0.8166
 9068TIP3    H248620   0.200   2.849   5.136 -0.8976 -0.6172 -0.3801
 9069TIP3   OH248621   1.416   1.011   1.255  0.3319  0.6155 -0.0125
 9069TIP3    H148622   1.407   1.007   1.351  0.9480  1.3145  0.0802
 9069TIP3    H248623   1.495   0.959   1.237  0.1522  0.3910 -0.1563
 9070TIP3   OH248624   0.304   2.411  14.062 -0.7524  0.2082 -0.9596
 9070TIP3    H148625   0.396   2.423  14.082 -0.5873  1.2610 -2.2009
 9070TIP3    H248626   0.298   2.423  13.967 -2.0839 -0.3739 -0.9795
 9071TIP3   OH248627   4.050   3.809   1.194  0.3681 -0.0802  1.0673
 9071TIP3    H148628   3.995   3.865   1.139  1.2604  0.8302  1.0653
 9071TIP3    H248629   4.136   3.850   1.191  1.0899 -1.5372  0.9743
 9072TIP3   OH248630   4.740   6.188   5.349  0.0732 -0.2539 -0.1237
 9072TIP3    H148631   4.829   6.223   5.353  0.5094 -1.3594  0.0415
 9072TIP3    H248632   4.729   6.139   5.431 -1.3909  1.4483  0.7957
 9073TIP3   OH248633   1.623   4.007   2.075  0.1547  0.4182 -0.2514
 9073TIP3    H148634   1.587   3.931   2.031  2.0089  1.2712 -3.6064
 9073TIP3    H248635   1.699   3.973   2.124 -0.9094 -0.2886  0.9576
 9074TIP3   OH248636   0.183   4.065  12.258  0.1997  0.1601 -0.0153
 9074TIP3    H148637   0.197   4.006  12.184 -0.1067  0.4307 -0.2903
 9074TIP3    H248638   0.211   4.151  12.226  1.9604 -0.0455  0.8088
 9075TIP3   OH248639   0.568   0.055   1.117  0.2307  0.3067  0.0205
 9075TIP3    H148640   0.487   0.074   1.069  0.7026  0.9578 -0.5356
 9075TIP3    H248641   0.600   0.141   1.144 -0.0978 -0.0561  1.6593
 9076TIP3   OH248642   0.802   4.753   4.851  0.4668 -0.1982 -0.1666
 9076TIP3    H148643   0.777   4.820   4.788  0.1767 -0.9871 -0.9241
 9076TIP3    H248644   0.719   4.728   4.893  0.8180  1.1634  1.4219
 9077TIP3   OH248645   5.028   5.547  15.119 -0.8840 -0.0794  0.2710
 9077TIP3    H148646   5.051   5.625  15.169  0.8558 -0.7834  0.6296
 9077TIP3    H248647   4.933   5.552  15.111 -0.9816  1.2429  1.6746
 9078TIP3   OH248648   5.866   1.612   3.034  0.1955 -0.2358  0.0623
 9078TIP3    H148649   5.799   1.677   3.013  1.8941  1.7769  0.4857
 9078TIP3    H248650   5.885   1.569   2.951 -2.1346 -1.4306  0.0904
 9079TIP3   OH248651   1.524   1.923   3.088 -0.0050  0.0323  0.9542
 9079TIP3    H148652   1.607   1.932   3.136 -0.0499 -0.6167  1.1639
 9079TIP3    H248653   1.477   2.004   3.107  1.2076  1.1030 -0.4207
 9080TIP3   OH248654   2.344   0.153  12.336  0.4058  0.2166  0.0440
 9080TIP3    H148655   2.375   0.114  12.255  1.0475 -1.4472  1.0486
 9080TIP3    H248656   2.256   0.118  12.348  0.3491  0.3830  0.1174
 9081TIP3   OH248657   2.011   5.788   3.499  0.0057  0.1273 -0.5218
 9081TIP3    H148658   2.042   5.809   3.587  1.2591  0.5138 -1.0196
 9081TIP3    H248659   1.934   5.844   3.486 -1.2156 -1.1358  0.9007
 9082TIP3   OH248660   2.844   5.622  15.068 -0.2472 -0.1800 -0.2496
 9082TIP3    H148661   2.819   5.695  15.124 -0.4312  0.8574 -1.6150
 9082TIP3    H248662   2.832   5.655  14.979 -0.5173 -1.9438 -0.9191
 9083TIP3   OH248663   3.245   1.639  16.959 -0.5300  0.1501  0.4626
 9083TIP3    H148664   3.280   1.634  16.870  0.4524  0.4998  0.8189
 9083TIP3    H248665   3.305   1.587  17.012 -1.6999 -0.9479  0.7672
 9084TIP3   OH248666   4.006   2.015   1.457  0.3256 -0.2127 -0.0076
 9084TIP3    H148667   3.949   2.046   1.528  0.6617  1.6466 -0.4899
 9084TIP3    H248668   4.076   1.968   1.501  0.4622  0.8155  0.9086
 9085TIP3   OH248669   6.690   5.685  13.473  0.4913  0.4632 -0.3310
 9085TIP3    H148670   6.658   5.722  13.391  0.3663  1.2725  0.0739
 9085TIP3    H248671   6.611   5.670  13.525  0.6565  1.3173  0.1930
 9086TIP3   OH248672   5.858   5.555  11.454  0.8503 -0.0719 -0.5118
 9086TIP3    H148673   5.848   5.534  11.547  1.5054  1.5207 -0.0495
 9086TIP3    H248674   5.826   5.477  11.408  0.0707 -0.7005  1.0324
 9087TIP3   OH248675   0.938   0.745  12.775 -0.6189  0.2628  0.6174
 9087TIP3    H148676   0.944   0.789  12.860 -1.2328  2.0604 -0.2138
 9087TIP3    H248677   0.845   0.726  12.765 -0.4730 -0.4560  0.5797
 9088TIP3   OH248678   2.311   3.811  15.864 -0.3172 -0.0622  0.2899
 9088TIP3    H148679   2.238   3.793  15.923  0.1459 -0.8281  0.6553
 9088TIP3    H248680   2.331   3.903  15.877 -0.7103 -0.0417  0.7777
 9089TIP3   OH248681   0.627   3.397  13.363  0.8704  0.3904 -0.2269
 9089TIP3    H148682   0.698   3.391  13.427  1.2804 -0.0311 -0.7107
 9089TIP3    H248683   0.592   3.308  13.358  0.3594  0.5776 -0.0581
 9090TIP3   OH248684   1.570   4.096  16.324 -0.0261 -0.7205  0.8750
 9090TIP3    H148685   1.482   4.134  16.332 -0.1371 -1.2784  2.9975
 9090TIP3    H248686   1.612   4.147  16.255 -1.7790  0.0269  0.3040
 9091TIP3   OH248687   5.267   1.132   5.981 -0.8805  0.0387  0.3278
 9091TIP3    H148688   5.237   1.153   6.069 -0.5969  0.7447  0.2687
 9091TIP3    H248689   5.262   1.037   5.976  2.6844 -0.4566  2.4779
 9092TIP3   OH248690   5.881   6.770   1.654 -0.0675 -0.2767  0.2424
 9092TIP3    H148691   5.802   6.716   1.657 -0.2468 -0.0097  0.3787
 9092TIP3    H248692   5.949   6.711   1.623 -0.7475  0.0264 -1.9709
 9093TIP3   OH248693   6.081   5.826   5.449 -0.0622  0.0737 -0.0936
 9093TIP3    H148694   6.160   5.849   5.498 -0.0748 -0.5898  0.2620
 9093TIP3    H248695   6.111   5.764   5.383 -0.3261 -0.4408  0.2559
 9094TIP3   OH248696   4.659   6.428   5.137  0.0278 -0.0817 -0.3679
 9094TIP3    H148697   4.606   6.367   5.189 -1.4569 -0.0665 -1.7751
 9094TIP3    H248698   4.597   6.467   5.075  1.2364  1.7544 -0.5137
 9095TIP3   OH248699   4.663   1.695  14.083 -0.3009  0.0773 -0.0805
 9095TIP3    H148700   4.638   1.698  14.175 -0.0978  1.0727 -0.0461
 9095TIP3    H248701   4.703   1.608  14.072 -0.8793 -0.2902  0.6112
 9096TIP3   OH248702   4.137   1.864   1.653  0.3174  0.3491 -0.2970
 9096TIP3    H148703   4.095   1.809   1.719  0.5428 -0.8475 -1.1165
 9096TIP3    H248704   4.231   1.851   1.667  0.3780 -0.7424 -1.4697
 9097TIP3   OH248705   1.336   4.728   5.584  0.2475 -0.1313  0.2271
 9097TIP3    H148706   1.400   4.690   5.644  1.0927 -1.3362 -1.3668
 9097TIP3    H248707   1.368   4.706   5.497  0.2991  3.4957 -0.8347
 9098TIP3   OH248708   2.788   6.430  14.226 -0.4165 -0.5070  0.0443
 9098TIP3    H148709   2.713   6.490  14.237 -1.9415 -2.5792  1.9458
 9098TIP3    H248710   2.754   6.358  14.174  0.2268 -1.4700  0.9152
 9099TIP3   OH248711   6.115   2.271   3.003  0.2268  0.5268  0.2063
 9099TIP3    H148712   6.141   2.350   3.049  1.6351  0.5158 -0.5241
 9099TIP3    H248713   6.197   2.230   2.976 -0.4926 -0.8382 -0.0195
 9100TIP3   OH248714   6.603   1.002   2.085  0.0492 -0.1152  0.1985
 9100TIP3    H148715   6.603   0.913   2.119 -0.5484  0.4127  1.7085
 9100TIP3    H248716   6.596   0.993   1.991  1.2144 -1.6750  0.2412
 9101TIP3   OH248717   4.588   0.917   6.012 -0.3588 -0.4801  0.2386
 9101TIP3    H148718   4.626   0.939   6.097 -0.3922  1.4758 -0.2032
 9101TIP3    H248719   4.612   0.826   5.997  2.1997  0.0075  1.0189
 9102TIP3   OH248720   4.787   0.293  12.612 -0.5590 -0.0231 -0.5977
 9102TIP3    H148721   4.802   0.303  12.518 -0.4993  1.1226 -0.4844
 9102TIP3    H248722   4.695   0.318  12.625 -0.3175  0.7347 -0.2464
 9103TIP3   OH248723   3.498   0.485   2.215  0.1713  0.2041  0.5761
 9103TIP3    H148724   3.508   0.530   2.299  2.1195 -2.6688  2.0410
 9103TIP3    H248725   3.406   0.457   2.214 -0.2427  1.4719  1.0693
 9104TIP3   OH248726   1.325   3.518  15.293 -0.5704  0.1848 -0.1115
 9104TIP3    H148727   1.376   3.597  15.308  1.8152 -1.6645  3.0106
 9104TIP3    H248728   1.384   3.461  15.243 -1.6271 -0.1695 -0.9667
 9105TIP3   OH248729   3.251   3.654  16.872 -0.8955  0.1350 -0.2175
 9105TIP3    H148730   3.252   3.559  16.862  0.5271  0.1594 -0.5600
 9105TIP3    H248731   3.175   3.683  16.823  0.3446 -0.6076 -2.7701
 9106TIP3   OH248732   6.369   1.950   0.707 -0.4510  0.2545 -0.1882
 9106TIP3    H148733   6.379   1.934   0.613 -0.5370 -1.9346  0.1219
 9106TIP3    H248734   6.400   1.869   0.748  0.1104  1.3813  1.7032
 9107TIP3   OH248735   0.772   0.631  11.147  0.0354  0.3252  0.0410
 9107TIP3    H148736   0.682   0.621  11.176  0.5803 -1.2860  1.3840
 9107TIP3    H248737   0.787   0.556  11.089  0.9263 -0.3217  1.0658
 9108TIP3   OH248738   1.520   2.560  16.453 -0.4692 -0.0806  0.3747
 9108TIP3    H148739   1.540   2.541  16.544  0.1405  1.0886  0.5006
 9108TIP3    H248740   1.442   2.616  16.456 -0.5893 -0.2317  0.1601
 9109TIP3   OH248741   6.605   2.963  13.188  0.3383  0.2780 -0.0868
 9109TIP3    H148742   6.530   3.018  13.210  0.4950  0.2516  0.5240
 9109TIP3    H248743   6.580   2.875  13.218  0.4557  0.1912 -0.2408
 9110TIP3   OH248744   3.948   0.478   5.433  0.1371 -0.0061 -0.2057
 9110TIP3    H148745   4.019   0.488   5.496  1.2386 -2.2815 -0.9774
 9110TIP3    H248746   3.967   0.541   5.364  1.1170 -0.1791 -0.1097
 9111TIP3   OH248747   5.925   6.078  14.494 -0.5767 -0.0861  0.0063
 9111TIP3    H148748   5.915   6.123  14.410 -0.8534  0.7402  0.4745
 9111TIP3    H248749   6.012   6.038  14.490 -0.7592 -0.4105 -0.8381
 9112TIP3   OH248750   3.330   2.700  13.358  0.3902 -0.2958 -0.3768
 9112TIP3    H148751   3.391   2.754  13.308  1.5852 -1.3165 -0.0588
 9112TIP3    H248752   3.290   2.760  13.421  0.1446  0.6357 -1.3880
 9113TIP3   OH248753   1.995   6.544   3.588  0.2233 -0.5673  0.1481
 9113TIP3    H148754   2.050   6.493   3.527 -0.5790 -1.8769  0.4823
 9113TIP3    H248755   1.959   6.479   3.648  0.0559  0.5621  1.3031
 9114TIP3   OH248756   3.437   6.313   1.441 -0.3019  0.4571  0.4021
 9114TIP3    H148757   3.448   6.288   1.532  1.1168  0.1435  0.1665
 9114TIP3    H248758   3.344   6.336   1.433 -0.2879  1.2006  2.0823
 9115TIP3   OH248759   2.821   0.762  12.990  0.1557 -0.2888 -0.2190
 9115TIP3    H148760   2.814   0.668  12.972  0.5243  0.0292 -2.2471
 9115TIP3    H248761   2.914   0.782  12.982 -0.0892  0.5033 -1.3007
 9116TIP3   OH248762   1.591   3.048   2.196  0.2428 -0.7631  0.2293
 9116TIP3    H148763   1.507   3.095   2.200  0.3118 -0.5837 -0.3632
 9116TIP3    H248764   1.566   2.957   2.182  0.1390 -0.7302  0.1925
 9117TIP3   OH248765   4.661   1.124  15.920 -0.0056  0.0437  0.4756
 9117TIP3    H148766   4.727   1.161  15.861  2.5152 -1.5412  2.1476
 9117TIP3    H248767   4.635   1.197  15.976  1.8809  0.2838  1.1030
 9118TIP3   OH248768   4.567   4.872  10.493 -0.3244  0.0469  0.2286
 9118TIP3    H148769   4.479   4.908  10.478  0.4133  1.2281 -1.4328
 9118TIP3    H248770   4.622   4.948  10.510  0.5735 -0.6022  0.2973
 9119TIP3   OH248771   1.615   2.872  14.109  0.1604 -0.1230  0.5906
 9119TIP3    H148772   1.635   2.806  14.043  2.3665 -0.2361  1.2998
 9119TIP3    H248773   1.671   2.947  14.086  2.3249 -0.7724  3.1899
 9120TIP3   OH248774   6.483   4.928   1.011  0.4393 -0.2783 -0.9493
 9120TIP3    H148775   6.497   5.011   0.964  0.4110  0.2191 -0.0987
 9120TIP3    H248776   6.569   4.886   1.012  0.2547 -0.7400 -2.2435
 9121TIP3   OH248777   5.995   4.146  13.859  0.6448  0.1798  0.1482
 9121TIP3    H148778   5.940   4.077  13.896 -0.1690  0.9111  0.3267
 9121TIP3    H248779   5.937   4.195  13.802  1.0037  1.2092  0.6457
 9122TIP3   OH248780   1.841   6.605  15.991  0.6522 -0.1392 -0.1705
 9122TIP3    H148781   1.805   6.676  16.045  1.2347  0.9961 -1.2032
 9122TIP3    H248782   1.902   6.560  16.049  0.5740  0.4626  0.4035
 9123TIP3   OH248783   5.008   6.077  13.480 -0.9137 -0.3588 -0.4032
 9123TIP3    H148784   5.041   6.162  13.510 -0.5090 -0.8191  0.4804
 9123TIP3    H248785   4.961   6.097  13.398 -1.2122  0.7741  0.0306
 9124TIP3   OH248786   5.781   4.196  14.154  0.6750 -0.2043  0.0808
 9124TIP3    H148787   5.722   4.208  14.228  1.0044 -0.6027  0.4147
 9124TIP3    H248788   5.727   4.216  14.077  0.1691 -0.3419  0.3922
 9125TIP3   OH248789   0.456   1.495   2.890  0.2850  0.4748 -0.1307
 9125TIP3    H148790   0.389   1.550   2.850 -0.8764 -0.3854  0.5784
 9125TIP3    H248791   0.505   1.555   2.946 -1.1072  0.7846  0.8100
 9126TIP3   OH248792   0.475   1.658  15.723 -0.4386  0.7278 -0.0965
 9126TIP3    H148793   0.528   1.730  15.687 -0.4720 -0.1684 -2.0642
 9126TIP3    H248794   0.400   1.651  15.663 -0.0595 -1.3945 -0.4185
 9127TIP3   OH248795   0.685   2.453   1.645  0.0928 -0.1315  0.3013
 9127TIP3    H148796   0.713   2.434   1.555 -2.2523  1.1657 -0.7877
 9127TIP3    H248797   0.630   2.379   1.668 -0.5850  0.2833  0.0418
 9128TIP3   OH248798   3.094   0.796  14.030 -0.5548  0.1647  0.0103
 9128TIP3    H148799   3.030   0.806  13.959 -1.5822 -0.8218  0.7473
 9128TIP3    H248800   3.115   0.886  14.056 -0.6245  0.5306 -1.1172
 9129TIP3   OH248801   1.992   6.009   5.963 -0.1001 -0.0485  0.2026
 9129TIP3    H148802   1.912   5.961   5.944  0.3541 -0.4579 -0.7670
 9129TIP3    H248803   1.998   6.075   5.894  1.0996 -0.9313 -0.5777
 9130TIP3   OH248804   5.709   6.375   2.664 -0.4181 -0.6430  0.5046
 9130TIP3    H148805   5.803   6.384   2.679 -0.0417  0.0241 -1.9230
 9130TIP3    H248806   5.674   6.464   2.675 -0.2462 -0.2844 -1.5469
 9131TIP3   OH248807   4.398   3.998   2.846  0.2765 -0.4665  0.1435
 9131TIP3    H148808   4.326   4.022   2.904 -1.1907 -1.4427 -1.1834
 9131TIP3    H248809   4.378   4.041   2.763  0.1073 -2.3329 -0.8526
 9132TIP3   OH248810   3.022   4.147  11.871 -0.7511 -0.2109  0.7751
 9132TIP3    H148811   3.069   4.121  11.951  1.5086 -1.0928 -0.7188
 9132TIP3    H248812   3.023   4.068  11.817 -0.4109  0.9188 -0.9276
 9133TIP3   OH248813   3.400   4.465   4.795  0.6057 -0.2198 -0.2287
 9133TIP3    H148814   3.310   4.489   4.773  0.2718  0.8209  1.9625
 9133TIP3    H248815   3.454   4.518   4.736 -0.2050 -0.5509 -1.2888
 9134TIP3   OH248816   0.967   4.101  11.392 -0.2725  0.0421 -0.2613
 9134TIP3    H148817   0.987   4.174  11.332 -1.6670  0.1697 -0.6152
 9134TIP3    H248818   0.965   4.142  11.479 -0.9765  0.4346 -0.4506
 9135TIP3   OH248819   0.126   6.047   2.705  0.1377 -0.3530 -0.5452
 9135TIP3    H148820   0.086   6.055   2.792  0.3848 -0.4233 -0.4253
 9135TIP3    H248821   0.051   6.046   2.645  0.0440  2.2724 -0.5515
 9136TIP3   OH248822   2.839   1.372   0.416 -0.4620 -0.3026  0.2484
 9136TIP3    H148823   2.810   1.429   0.345 -1.5213 -1.3093 -0.1637
 9136TIP3    H248824   2.889   1.303   0.372 -0.0488 -0.2511  0.6266
 9137TIP3   OH248825   4.359   1.658   4.818 -0.5130 -0.0875 -0.3435
 9137TIP3    H148826   4.391   1.588   4.874  0.5242  1.1049  0.6065
 9137TIP3    H248827   4.283   1.693   4.864 -0.2475  0.2524 -0.1568
 9138TIP3   OH248828   3.065   5.587  14.535  0.8289  0.0119  0.5691
 9138TIP3    H148829   3.137   5.605  14.474  1.0339 -0.1353  0.7649
 9138TIP3    H248830   3.098   5.618  14.620  0.9495 -0.7224  0.7959
 9139TIP3   OH248831   6.203   5.236   5.497 -0.0444  0.3728  0.0651
 9139TIP3    H148832   6.182   5.144   5.512 -3.4223  0.8732 -0.7615
 9139TIP3    H248833   6.254   5.262   5.574  0.2347 -1.9261  0.7299
 9140TIP3   OH248834   5.160   4.449  14.159 -0.0002  0.2461  0.2751
 9140TIP3    H148835   5.218   4.505  14.107  1.7179 -0.7126  1.0618
 9140TIP3    H248836   5.187   4.360  14.135 -0.8908 -0.2175  0.9792
 9141TIP3   OH248837   1.723   1.028  10.742 -0.1085  0.2789 -0.1914
 9141TIP3    H148838   1.677   1.100  10.699 -0.4592 -0.0306 -0.3429
 9141TIP3    H248839   1.664   0.953  10.732  1.8619 -1.0200 -3.4721
 9142TIP3   OH248840   5.268   6.214  14.465 -0.7137  0.1679 -0.2536
 9142TIP3    H148841   5.228   6.217  14.551  2.6193  1.3469  1.4388
 9142TIP3    H248842   5.238   6.295  14.422  0.4231  1.4859  1.3028
 9143TIP3   OH248843   0.193   6.064  12.706  0.2498 -0.3858  0.2066
 9143TIP3    H148844   0.221   6.135  12.764 -1.9572 -0.3763  1.3846
 9143TIP3    H248845   0.122   6.103  12.654 -1.0372 -1.6691  0.9051
 9144TIP3   OH248846   1.600   5.819   5.146  0.0228 -0.3450  0.3190
 9144TIP3    H148847   1.549   5.874   5.086 -1.4588 -0.4739  1.3947
 9144TIP3    H248848   1.592   5.731   5.109  0.1120 -0.2452  0.0615
 9145TIP3   OH248849   5.396   3.227  14.163 -0.3697  0.1256  0.1873
 9145TIP3    H148850   5.444   3.254  14.085 -1.2586  1.0893 -0.0655
 9145TIP3    H248851   5.344   3.152  14.135  0.0070 -0.1020  0.1021
 9146TIP3   OH248852   3.741   4.507   4.527  0.1673  0.1796 -0.7492
 9146TIP3    H148853   3.833   4.526   4.542  0.1623  1.0612 -1.7797
 9146TIP3    H248854   3.700   4.516   4.613  0.6966  1.8076 -0.6520
 9147TIP3   OH248855   3.287   1.128  14.672  0.1867 -0.0418 -0.2248
 9147TIP3    H148856   3.218   1.064  14.652  0.0904  0.1734 -0.6066
 9147TIP3    H248857   3.349   1.081  14.727 -0.7125  0.0189  0.8690
 9148TIP3   OH248858   4.827   0.463  15.257  0.3979  0.0812 -0.9072
 9148TIP3    H148859   4.817   0.381  15.208 -0.8756  0.2296 -0.9168
 9148TIP3    H248860   4.864   0.525  15.194  0.9486 -0.3500 -1.0210
 9149TIP3   OH248861   0.528   0.844  14.936  0.3228  0.6782  0.1927
 9149TIP3    H148862   0.465   0.824  15.005 -1.2056 -1.1538 -1.5946
 9149TIP3    H248863   0.570   0.760  14.916 -0.0901  0.8984 -1.8054
 9150TIP3   OH248864   2.526   3.744   0.884  0.2710  0.5364  0.4235
 9150TIP3    H148865   2.611   3.701   0.868  0.1533  0.4340  0.0462
 9150TIP3    H248866   2.507   3.788   0.801 -1.9558 -2.7318 -1.0258
 9151TIP3   OH248867   6.694   2.592   1.048  0.0956 -0.7399  0.1130
 9151TIP3    H148868   6.726   2.522   1.104 -1.6208 -0.4739  1.4830
 9151TIP3    H248869   6.733   2.672   1.084  0.4644 -0.7566 -0.2348
 9152TIP3   OH248870   4.676   5.558   5.820 -0.3086 -0.1469  0.4273
 9152TIP3    H148871   4.613   5.591   5.884 -0.7590  1.8040 -0.9149
 9152TIP3    H248872   4.752   5.615   5.828 -0.3860  0.1540 -0.7631
 9153TIP3   OH248873   1.817   1.494   4.218 -0.2651 -0.2060 -0.1754
 9153TIP3    H148874   1.839   1.586   4.202 -0.3469  0.0530  1.0849
 9153TIP3    H248875   1.888   1.445   4.176 -0.3083  0.4179 -1.0029
 9154TIP3   OH248876   5.896   2.362  16.820 -0.2306  0.4554 -0.0535
 9154TIP3    H148877   5.813   2.360  16.772 -0.0556  2.3546 -0.5079
 9154TIP3    H248878   5.882   2.425  16.890  0.4838 -0.0814  0.5912
 9155TIP3   OH248879   5.094   6.520  11.022  0.0644  0.3792  0.1585
 9155TIP3    H148880   5.115   6.545  10.932 -0.1561  0.6623  0.1838
 9155TIP3    H248881   5.169   6.468  11.051  1.1379  2.0451  0.5242
 9156TIP3   OH248882   0.557   2.645  11.331  0.2650  0.1142 -0.1778
 9156TIP3    H148883   0.493   2.612  11.393  1.0174  2.2669  1.8887
 9156TIP3    H248884   0.507   2.704  11.275  0.0158 -0.0211 -0.1022
 9157TIP3   OH248885   0.269   0.317  14.553 -0.0160 -0.0104 -0.0494
 9157TIP3    H148886   0.284   0.353  14.465  1.1855 -1.0832 -0.3263
 9157TIP3    H248887   0.356   0.318  14.594 -0.4765  0.0110  0.9335
 9158TIP3   OH248888   5.829   3.110  14.230 -0.0568 -0.2228 -0.0879
 9158TIP3    H148889   5.861   3.186  14.278 -1.1429  0.1734  0.0455
 9158TIP3    H248890   5.790   3.053  14.297 -1.1325  0.1036 -0.4066
 9159TIP3   OH248891   1.409   4.512  12.356  0.3464  0.7037 -0.2213
 9159TIP3    H148892   1.356   4.465  12.291 -0.4635 -0.2405  1.0643
 9159TIP3    H248893   1.483   4.454  12.373  0.1099  0.5438  0.2961
 9160TIP3   OH248894   3.710   4.039   5.283  0.3623 -0.4027  0.1367
 9160TIP3    H148895   3.775   4.104   5.310 -1.9020  0.8106  3.4438
 9160TIP3    H248896   3.636   4.092   5.252 -0.3652 -1.5379 -0.1197
 9161TIP3   OH248897   5.697   1.310   1.153 -0.2154  0.2284 -0.2049
 9161TIP3    H148898   5.666   1.336   1.067 -0.3261  0.7910  0.0058
 9161TIP3    H248899   5.619   1.308   1.208 -0.2064 -0.5095 -0.2067
 9162TIP3   OH248900   0.308   0.298  11.309 -0.1900 -0.2656 -0.0371
 9162TIP3    H148901   0.291   0.386  11.275  0.4634  0.0701  0.4839
 9162TIP3    H248902   0.306   0.242  11.231  2.6188  0.6732 -0.9009
 9163TIP3   OH248903   4.610   1.859   4.108 -0.6104 -0.0289  0.5630
 9163TIP3    H148904   4.570   1.790   4.055 -0.0618  0.6999 -0.8475
 9163TIP3    H248905   4.535   1.911   4.139 -1.0361 -1.2592  1.7212
 9164TIP3   OH248906   5.681   3.461  15.584  0.5695  0.1709 -0.4951
 9164TIP3    H148907   5.630   3.538  15.606  0.0800 -0.4729  0.6795
 9164TIP3    H248908   5.771   3.484  15.609  0.3119  0.1130  0.5140
 9165TIP3   OH248909   4.451   0.420   4.943 -0.5262 -0.2237  0.1811
 9165TIP3    H148910   4.400   0.347   4.978  0.3055 -0.5641  0.7135
 9165TIP3    H248911   4.502   0.381   4.872  0.7960 -0.4628  1.2085
 9166TIP3   OH248912   6.319   5.844  14.778  0.0575  0.0548 -0.2634
 9166TIP3    H148913   6.226   5.858  14.762  0.0220 -0.0871 -0.1910
 9166TIP3    H248914   6.327   5.749  14.788 -0.3261  0.2333  2.9071
 9167TIP3   OH248915   2.742   1.486  15.274 -0.3632 -0.4639  0.7402
 9167TIP3    H148916   2.769   1.569  15.236 -0.9381 -0.9594 -0.8478
 9167TIP3    H248917   2.825   1.441  15.294 -0.0538  0.4454  1.5766
 9168TIP3   OH248918   5.887   1.576   5.530  0.6675 -0.5844 -0.0091
 9168TIP3    H148919   5.960   1.633   5.556  0.3368 -1.2233  2.5300
 9168TIP3    H248920   5.928   1.509   5.475  2.0173 -0.9205  1.3515
 9169TIP3   OH248921   0.467   3.043  11.266 -0.5169 -0.3387  0.0730
 9169TIP3    H148922   0.399   3.004  11.322 -0.2968  0.8036  1.1722
 9169TIP3    H248923   0.433   3.130  11.244  0.4491  0.1330  0.4001
 9170TIP3   OH248924   4.911   3.610   4.439 -0.3803  0.0898  0.2074
 9170TIP3    H148925   4.906   3.582   4.530  1.2913 -0.4519  0.1553
 9170TIP3    H248926   4.881   3.534   4.389  0.4189 -0.2506  0.2366
 9171TIP3   OH248927   0.845   3.569   4.004 -0.3166 -0.4113  0.4025
 9171TIP3    H148928   0.844   3.659   3.973  0.1273  0.0682  1.7044
 9171TIP3    H248929   0.755   3.551   4.031 -0.4892 -0.4982 -0.2226
 9172TIP3   OH248930   5.173   2.432   1.979 -0.1005 -0.5215 -0.3341
 9172TIP3    H148931   5.167   2.429   1.884 -0.2060  1.7863 -0.4583
 9172TIP3    H248932   5.120   2.508   2.004  1.4074  0.0309  1.3984
 9173TIP3   OH248933   1.632   1.192   2.764 -0.3708  0.1692 -0.7443
 9173TIP3    H148934   1.630   1.255   2.836  1.1621  0.2567 -0.7398
 9173TIP3    H248935   1.580   1.118   2.795  0.6775 -0.0046  0.6741
 9174TIP3   OH248936   1.169   4.253   5.913  0.1894  0.5223  0.3078
 9174TIP3    H148937   1.132   4.214   5.992 -1.2641 -2.4808 -1.6762
 9174TIP3    H248938   1.263   4.257   5.931 -0.2301  1.2256  2.6606
 9175TIP3   OH248939   1.731   6.399   4.189 -1.1465  0.4627  0.3701
 9175TIP3    H148940   1.662   6.377   4.126 -0.6042 -1.2626  0.3110
 9175TIP3    H248941   1.696   6.373   4.274 -0.1788 -1.6065  0.2047
 9176TIP3   OH248942   1.169   4.535  12.528 -0.7132 -0.4786 -0.8216
 9176TIP3    H148943   1.234   4.549  12.458 -0.8542  0.5938 -0.7548
 9176TIP3    H248944   1.098   4.488  12.485 -1.1178  0.7931 -1.6052
 9177TIP3   OH248945   1.595   6.020  11.977 -0.4967 -0.2594  0.5175
 9177TIP3    H148946   1.673   5.967  11.994  1.2262  1.1834 -2.2322
 9177TIP3    H248947   1.617   6.107  12.012 -0.6795  0.2549 -0.5985
 9178TIP3   OH248948   6.527   1.255   2.170  0.0820  0.2540  0.0486
 9178TIP3    H148949   6.535   1.303   2.087  2.7247  0.6981  0.4922
 9178TIP3    H248950   6.557   1.166   2.149 -0.0237  0.1415  0.3663
 9179TIP3   OH248951   2.129   5.879  13.114 -0.0820 -0.8335 -0.0646
 9179TIP3    H148952   2.102   5.935  13.041  0.0839 -0.2493  0.3126
 9179TIP3    H248953   2.179   5.809  13.073  0.1899 -0.3947 -0.4992
 9180TIP3   OH248954   2.514   0.170  16.630  0.3241  0.4429  0.2056
 9180TIP3    H148955   2.473   0.237  16.685  0.6967 -1.1750  2.6097
 9180TIP3    H248956   2.464   0.172  16.549 -1.0053  2.1906  1.0023
 9181TIP3   OH248957   3.357   4.346  11.935 -1.0445  0.1310  0.3346
 9181TIP3    H148958   3.333   4.439  11.933 -1.2530  0.0894  0.8749
 9181TIP3    H248959   3.324   4.314  12.019 -1.2952 -0.5220 -0.0066
 9182TIP3   OH248960   4.894   2.835   3.314  0.0335  0.0679 -0.3280
 9182TIP3    H148961   4.807   2.809   3.283  0.6903 -0.7945 -1.5763
 9182TIP3    H248962   4.955   2.782   3.262  1.3315  0.9984  0.1669
 9183TIP3   OH248963   5.505   5.080  11.680  0.3330 -0.5825 -0.5395
 9183TIP3    H148964   5.472   5.005  11.629 -1.7457 -2.5833  3.2763
 9183TIP3    H248965   5.461   5.072  11.765  0.3756  4.8064  0.3283
 9184TIP3   OH248966   5.899   4.677   1.824 -0.1825  0.2617  0.2584
 9184TIP3    H148967   5.882   4.771   1.819 -0.2061  0.1939 -1.6684
 9184TIP3    H248968   5.819   4.636   1.792  0.9127 -0.2855 -1.9532
 9185TIP3   OH248969   2.370   0.704  12.941 -0.5543 -0.7413  0.1739
 9185TIP3    H148970   2.350   0.612  12.960 -0.8328 -0.7563 -0.1668
 9185TIP3    H248971   2.438   0.700  12.873  0.7774 -0.6884  1.4725
 9186TIP3   OH248972   1.159   5.468   1.949  0.1532  0.0584  0.6680
 9186TIP3    H148973   1.236   5.524   1.952  1.6131 -1.8920  1.3235
 9186TIP3    H248974   1.085   5.529   1.953  1.6125  2.0154 -0.6557
 9187TIP3   OH248975   3.505   0.956   0.150  0.3722 -0.2437 -0.8776
 9187TIP3    H148976   3.560   0.975   0.226 -0.9532  1.9662 -0.3867
 9187TIP3    H248977   3.530   0.867   0.124  0.0198 -1.6046  2.8689
 9188TIP3   OH248978   2.404   5.004  15.134  0.4015  0.2997 -0.3584
 9188TIP3    H148979   2.435   5.095  15.135 -1.0224  0.7939  0.6342
 9188TIP3    H248980   2.391   4.981  15.226 -0.6099 -0.4247 -0.6620
 9189TIP3   OH248981   5.647   1.435   3.913 -0.2383 -0.4730 -0.2173
 9189TIP3    H148982   5.567   1.485   3.894 -0.0991 -0.9227 -2.2668
 9189TIP3    H248983   5.703   1.496   3.960 -1.4400  0.1234  0.5107
 9190TIP3   OH248984   1.725   1.860  14.324  0.1926  0.1654  0.1335
 9190TIP3    H148985   1.731   1.778  14.275  0.9974 -0.5488  1.3660
 9190TIP3    H248986   1.794   1.854  14.390 -0.0887  1.6042  0.6036
 9191TIP3   OH248987   1.128   2.593   4.314  0.1773  0.7771 -0.3889
 9191TIP3    H148988   1.160   2.540   4.241 -1.1063 -2.1810  1.0184
 9191TIP3    H248989   1.033   2.599   4.299  0.0764  1.1885  0.3723
 9192TIP3   OH248990   1.934   6.124  14.372 -0.1201 -0.1083 -0.1530
 9192TIP3    H148991   1.961   6.207  14.332  0.4360 -0.5393 -0.6969
 9192TIP3    H248992   1.941   6.060  14.301  2.0149 -1.1019  0.8693
 9193TIP3   OH248993   5.479   0.381   0.277 -0.4579 -0.2228 -0.4289
 9193TIP3    H148994   5.519   0.294   0.280 -1.2675 -0.5903  1.4903
 9193TIP3    H248995   5.417   0.377   0.205  1.1885 -0.4219 -1.8979
 9194TIP3   OH248996   3.299   4.188   5.694  0.2324 -0.7211  0.2232
 9194TIP3    H148997   3.363   4.153   5.756  0.0531 -2.1107 -0.3382
 9194TIP3    H248998   3.335   4.168   5.608 -0.9196 -1.5128 -0.1051
 9195TIP3   OH248999   3.243   5.096  12.933  0.4823  1.2412 -0.2720
 9195TIP3    H149000   3.309   5.154  12.895  0.6496  1.2378  0.0103
 9195TIP3    H249001   3.254   5.106  13.028  0.3384  0.9442 -0.2222
 9196TIP3   OH249002   6.662   6.179   4.229  0.1863 -0.4447  0.2617
 9196TIP3    H149003   6.706   6.260   4.203 -0.3732  0.7221  2.7081
 9196TIP3    H249004   6.576   6.207   4.260 -0.2368 -2.0458  0.6435
 9197TIP3   OH249005   2.720   3.248  15.904  0.5954  0.0400  0.0018
 9197TIP3    H149006   2.685   3.178  15.849  1.6723 -0.6924  0.2365
 9197TIP3    H249007   2.700   3.329  15.855 -1.8975 -0.2657  0.3754
 9198TIP3   OH249008   3.613   2.456   1.310 -0.0510 -0.2414  0.0992
 9198TIP3    H149009   3.688   2.423   1.262  0.7284  1.9875 -0.3193
 9198TIP3    H249010   3.647   2.476   1.397 -0.8316 -1.6932  0.7864
 9199TIP3   OH249011   4.739   0.121   2.899  0.0626  0.1637  0.5022
 9199TIP3    H149012   4.762   0.152   2.987  0.2172 -0.2170  0.5961
 9199TIP3    H249013   4.820   0.084   2.865  0.1996  0.9922 -0.0976
 9200TIP3   OH249014   0.828   5.282  13.519  0.3121 -0.4688 -0.0800
 9200TIP3    H149015   0.824   5.256  13.427  0.2741 -2.4477  0.4246
 9200TIP3    H249016   0.880   5.362  13.520  1.5529 -1.2038 -1.6812
 9201TIP3   OH249017   5.871   6.196  16.266  0.0548 -0.1403  0.6590
 9201TIP3    H149018   5.907   6.160  16.184  0.1555 -1.0021  1.0706
 9201TIP3    H249019   5.832   6.120  16.310  0.9747  0.1103  1.9377
 9202TIP3   OH249020   4.669   3.933   4.105 -0.2111  0.0606 -0.5859
 9202TIP3    H149021   4.735   3.953   4.038 -0.2503  0.2905 -0.5545
 9202TIP3    H249022   4.719   3.908   4.182 -0.1247  1.7755 -0.0605
 9203TIP3   OH249023   3.408   4.430  15.267  0.0276  0.3067  0.1098
 9203TIP3    H149024   3.452   4.366  15.323 -1.7373 -0.0577  1.1540
 9203TIP3    H249025   3.394   4.506  15.324  0.2608  0.8421 -0.5280
 9204TIP3   OH249026   5.398   5.524   6.757 -0.1114  0.1348  0.2489
 9204TIP3    H149027   5.455   5.576   6.813 -1.2735 -0.0551  1.6768
 9204TIP3    H249028   5.445   5.441   6.745  0.8374  0.7474 -0.3603
 9205TIP3   OH249029   2.270   5.879   1.524  0.2218 -0.5373 -0.4033
 9205TIP3    H149030   2.356   5.899   1.561  0.1894  1.2567 -1.1591
 9205TIP3    H249031   2.209   5.887   1.598  0.6599 -1.6615  0.1008
 9206TIP3   OH249032   4.553   1.285  11.368 -0.4543 -0.4812  0.1302
 9206TIP3    H149033   4.520   1.316  11.284 -0.4562  1.0726  0.6722
 9206TIP3    H249034   4.580   1.364  11.415  1.1158 -1.4360  0.9510
 9207TIP3   OH249035   5.462   6.289   5.286  0.0613  0.6509  0.0522
 9207TIP3    H149036   5.368   6.288   5.266  0.3170 -0.2908 -1.1949
 9207TIP3    H249037   5.496   6.366   5.241 -0.1293  1.0955  0.6544
 9208TIP3   OH249038   1.013   2.658  11.298  0.0468  0.6618 -0.0930
 9208TIP3    H149039   1.004   2.691  11.388  0.2748  1.9016 -0.5121
 9208TIP3    H249040   0.968   2.722  11.244 -0.1847 -0.1342 -0.8704
 9209TIP3   OH249041   4.014   0.699  13.270 -0.2424 -0.2331 -0.0752
 9209TIP3    H149042   3.978   0.696  13.358 -0.6757 -0.0786 -0.2429
 9209TIP3    H249043   3.951   0.651  13.216  0.7887 -1.6989 -0.0563
 9210TIP3   OH249044   6.655   2.950   2.030 -0.1589  0.0921 -0.0873
 9210TIP3    H149045   6.626   2.981   1.945 -0.4772 -0.7754 -0.3037
 9210TIP3    H249046   6.726   2.889   2.010 -0.9300 -0.9278  0.1865
 9211TIP3   OH249047   6.564   2.016  13.552  0.6080 -0.0006  0.7888
 9211TIP3    H149048   6.607   2.028  13.637  0.6766 -1.1343  0.9328
 9211TIP3    H249049   6.518   1.932  13.560 -0.7369  0.6575  0.2639
 9212TIP3   OH249050   0.580   1.734  12.647  0.3005 -0.4481 -0.5362
 9212TIP3    H149051   0.605   1.785  12.570 -1.1982  0.4492 -0.4702
 9212TIP3    H249052   0.598   1.793  12.721 -2.4527  0.5341 -0.5209
 9213TIP3   OH249053   3.633   6.056  11.368 -0.3921  0.0608 -0.3480
 9213TIP3    H149054   3.668   5.972  11.340 -0.3951 -0.1167  0.1620
 9213TIP3    H249055   3.709   6.104  11.401 -0.4526  0.1000 -0.2647
 9214TIP3   OH249056   4.823   2.610   5.737 -0.3897 -0.2859 -0.0419
 9214TIP3    H149057   4.871   2.688   5.767  0.7918 -0.8792 -0.3290
 9214TIP3    H249058   4.778   2.638   5.658 -0.4247  0.2496  0.1612
 9215TIP3   OH249059   2.952   0.311   0.212 -0.4711 -0.1059  0.1149
 9215TIP3    H149060   3.034   0.320   0.260 -0.8253  1.7404  0.4550
 9215TIP3    H249061   2.884   0.323   0.278 -0.9962  0.0956 -0.4463
 9216TIP3   OH249062   5.164   6.518   3.135 -0.4665 -0.1631  0.1529
 9216TIP3    H149063   5.144   6.603   3.097 -0.7600 -0.0175  0.6147
 9216TIP3    H249064   5.258   6.508   3.126 -0.2677  0.7142  1.0928
 9217TIP3   OH249065   6.473   4.207  16.849 -0.1391 -0.2391 -0.5809
 9217TIP3    H149066   6.557   4.166  16.869 -0.3128  0.1938  1.2652
 9217TIP3    H249067   6.411   4.161  16.905 -1.8040 -2.6822 -4.0742
 9218TIP3   OH249068   2.245   4.932   3.786 -0.0642 -0.2758 -0.3278
 9218TIP3    H149069   2.339   4.914   3.782  0.4576  2.3235 -1.7236
 9218TIP3    H249070   2.209   4.889   3.708  0.0148 -0.9285 -0.0116
 9219TIP3   OH249071   2.488   4.727  13.256 -0.6819  0.0866  0.1635
 9219TIP3    H149072   2.399   4.722  13.291 -0.6115  0.3918  0.4046
 9219TIP3    H249073   2.536   4.779  13.322 -0.9099  1.9852 -1.1076
 9220TIP3   OH249074   0.981   5.936  12.670 -0.6665  0.3489  0.1432
 9220TIP3    H149075   1.068   5.976  12.658 -1.2237  1.2500 -1.0532
 9220TIP3    H249076   0.920   5.999  12.633 -1.6961 -1.0500 -0.6476
 9221TIP3   OH249077   2.774   1.778   1.209 -0.8113  0.3623 -0.0159
 9221TIP3    H149078   2.771   1.735   1.294  1.5850 -1.6553 -0.8368
 9221TIP3    H249079   2.698   1.742   1.161 -0.3305 -1.0320  0.2132
 9222TIP3   OH249080   1.444   1.821  13.417  0.3389 -0.1493  0.0319
 9222TIP3    H149081   1.424   1.867  13.335  1.9558  0.1433 -0.2364
 9222TIP3    H249082   1.494   1.884  13.468  0.6006 -0.8285  0.6352
 9223TIP3   OH249083   2.857   3.824  16.385 -0.8794  0.0393  0.1945
 9223TIP3    H149084   2.829   3.900  16.335 -3.0649  0.0074  1.2535
 9223TIP3    H249085   2.847   3.750  16.325 -0.2909  0.3646 -0.3216
 9224TIP3   OH249086   4.766   0.408   4.896  0.2321  0.2707  0.3918
 9224TIP3    H149087   4.684   0.453   4.878  0.4515  0.3339 -0.4878
 9224TIP3    H249088   4.764   0.331   4.840  0.9135  0.4401  0.1293
 9225TIP3   OH249089   4.985   2.052  15.620  0.4084  0.9718  0.0057
 9225TIP3    H149090   4.993   2.103  15.539 -3.9060  1.9005 -0.0570
 9225TIP3    H249091   4.968   2.118  15.687 -0.0164 -0.0525  0.9228
 9226TIP3   OH249092   0.601   0.834   1.871 -0.1815 -0.2843 -0.1541
 9226TIP3    H149093   0.609   0.757   1.814  0.3005  0.5488 -1.2509
 9226TIP3    H249094   0.645   0.904   1.823  1.4625  0.1620  1.8530
 9227TIP3   OH249095   4.358   2.749  10.821 -0.0046 -0.2318  0.4305
 9227TIP3    H149096   4.438   2.777  10.777  1.3529 -2.6358  1.1812
 9227TIP3    H249097   4.315   2.691  10.758  0.4111 -1.3084  1.1162
 9228TIP3   OH249098   0.602   0.870  16.431 -0.4554 -0.6444 -0.2225
 9228TIP3    H149099   0.662   0.940  16.458 -0.0015 -1.9864  2.5808
 9228TIP3    H249100   0.638   0.839  16.348  0.0353  1.5644 -0.9145
 9229TIP3   OH249101   2.270   0.855  13.971 -0.4677 -0.6517 -0.6453
 9229TIP3    H149102   2.210   0.787  13.942  0.8380 -1.6064 -1.2339
 9229TIP3    H249103   2.274   0.916  13.899 -3.3170  1.3327  0.7011
 9230TIP3   OH249104   6.531   5.496   0.829 -0.0607 -0.4714 -0.1673
 9230TIP3    H149105   6.480   5.434   0.881 -0.5199  0.7321  0.8454
 9230TIP3    H249106   6.526   5.461   0.740  0.1099 -2.1564  0.4397
 9231TIP3   OH249107   2.031   3.792  14.486  0.0227 -0.0325  0.4686
 9231TIP3    H149108   2.046   3.835  14.570  2.0012  1.3769 -0.5140
 9231TIP3    H249109   1.965   3.846  14.443 -0.0534 -0.0051  0.6216
 9232TIP3   OH249110   3.850   3.765  11.898  0.3343  0.0492 -0.4711
 9232TIP3    H149111   3.837   3.835  11.834  0.6559  0.7931  0.2531
 9232TIP3    H249112   3.768   3.763  11.948  0.4219  0.1025 -0.3221
 9233TIP3   OH249113   5.614   4.894   3.149  0.0219  0.1362  0.5426
 9233TIP3    H149114   5.558   4.854   3.083  0.1423  0.4535  0.2431
 9233TIP3    H249115   5.556   4.911   3.223 -0.1261 -0.1679  0.4984
 9234TIP3   OH249116   0.047   5.493   0.046  0.8816 -0.0533  0.1503
 9234TIP3    H149117  -0.042   5.482   0.081  1.3340  1.0892  1.7388
 9234TIP3    H249118   0.102   5.441   0.104  1.2840 -0.7457 -0.8223
 9235TIP3   OH249119   4.321   4.423  13.566 -0.1093  0.2815  0.4225
 9235TIP3    H149120   4.250   4.395  13.624  1.1316 -1.4876  1.1984
 9235TIP3    H249121   4.366   4.341  13.543  0.3665  1.1152 -1.8215
 9236TIP3   OH249122   0.350   3.481  16.020 -0.2365 -0.3358 -0.0182
 9236TIP3    H149123   0.279   3.481  15.956  0.7299  1.1758 -1.1523
 9236TIP3    H249124   0.337   3.561  16.070  1.4165  0.7378 -1.1887
 9237TIP3   OH249125   6.571   4.804  11.512  0.6590  0.5392  0.8739
 9237TIP3    H149126   6.648   4.853  11.481  0.4540  1.2934  1.5205
 9237TIP3    H249127   6.512   4.802  11.437  1.0544  0.4954  0.5607
 9238TIP3   OH249128   1.398   1.785   1.133 -0.1861  0.9775 -0.3040
 9238TIP3    H149129   1.461   1.810   1.201 -0.0509 -1.2465  0.4884
 9238TIP3    H249130   1.448   1.728   1.075 -1.0889  0.3921 -0.5129
 9239TIP3   OH249131   3.948   1.964  11.436  0.4956  0.3182  0.1247
 9239TIP3    H149132   3.949   1.966  11.341  0.3606  0.1221  0.1204
 9239TIP3    H249133   4.010   2.032  11.462 -2.3270  3.2231 -0.0750
 9240TIP3   OH249134   1.803   0.635   5.808 -0.3215 -0.0879 -0.1709
 9240TIP3    H149135   1.829   0.659   5.719  1.0596 -0.3400  0.1560
 9240TIP3    H249136   1.860   0.687   5.865  0.0968 -1.3245  0.5629
 9241TIP3   OH249137   3.793   0.080  15.471 -0.1112 -0.4046  0.2721
 9241TIP3    H149138   3.775   0.132  15.549  0.1259  0.0237  0.0414
 9241TIP3    H249139   3.856   0.132  15.421 -2.2636  0.6587 -1.5378
 9242TIP3   OH249140   1.772   1.296   2.222  0.3318  0.4383  0.2030
 9242TIP3    H149141   1.734   1.336   2.301 -0.9137 -1.4389  0.6104
 9242TIP3    H249142   1.768   1.365   2.156 -2.5523  0.7735  0.6343
 9243TIP3   OH249143   4.009   0.295   2.172  0.0267 -0.2207  0.4861
 9243TIP3    H149144   3.916   0.304   2.150 -0.0516 -1.2655  0.3509
 9243TIP3    H249145   4.055   0.327   2.094 -0.2338 -0.8152  0.0772
 9244TIP3   OH249146   3.686   6.632  15.642 -0.0149  0.0014  0.4039
 9244TIP3    H149147   3.721   6.551  15.604  2.6562  0.7427  1.0601
 9244TIP3    H249148   3.711   6.700  15.580 -0.4000  0.5585  0.8539
 9245TIP3   OH249149   1.671   3.370   2.696  0.7340  0.0457  0.2283
 9245TIP3    H149150   1.626   3.453   2.710 -1.0857 -1.0343  1.0117
 9245TIP3    H249151   1.606   3.303   2.714  2.9078 -1.6579  2.5479
 9246TIP3   OH249152   2.133   0.561   3.293  1.0164 -0.0573 -0.0194
 9246TIP3    H149153   2.175   0.480   3.322  1.2034  0.4700  1.2335
 9246TIP3    H249154   2.045   0.533   3.266 -0.7066 -0.2144  4.6717
 9247TIP3   OH249155   0.667   3.746   5.944  0.0030 -0.2152  0.3691
 9247TIP3    H149156   0.614   3.769   6.020 -0.2700 -0.4056  0.2374
 9247TIP3    H249157   0.727   3.678   5.976  1.6459  1.4564  1.0878
 9248TIP3   OH249158   0.429   5.820   0.234  0.1441 -0.4262 -0.0571
 9248TIP3    H149159   0.345   5.801   0.191  0.5105  0.5390 -1.2790
 9248TIP3    H249160   0.486   5.748   0.207 -0.1843 -0.8916  0.4765
 9249TIP3   OH249161   1.671   3.138  11.480 -0.4683  0.3785 -0.0637
 9249TIP3    H149162   1.636   3.203  11.420  0.3861 -0.7118 -1.8382
 9249TIP3    H249163   1.719   3.188  11.546 -1.9751  1.6457  0.0988
 9250TIP3   OH249164   1.883   1.530   5.454  0.2284  0.5924 -0.7617
 9250TIP3    H149165   1.840   1.449   5.426  1.7319 -1.1258  1.5551
 9250TIP3    H249166   1.954   1.542   5.391  1.5509 -1.3756  0.2506
 9251TIP3   OH249167   0.637   1.684   4.910 -0.3424 -0.0478 -0.3284
 9251TIP3    H149168   0.727   1.668   4.882 -0.8201 -0.3005 -1.8140
 9251TIP3    H249169   0.602   1.745   4.845 -1.0009  0.7082  0.7069
 9252TIP3   OH249170   6.404   1.740   4.191 -0.1488 -0.1319  0.6104
 9252TIP3    H149171   6.353   1.767   4.268  2.3059 -1.2805  2.7726
 9252TIP3    H249172   6.342   1.690   4.137 -1.4777 -0.9931  2.8213
 9253TIP3   OH249173   5.291   2.017  10.578 -0.5213  0.3562 -0.3206
 9253TIP3    H149174   5.334   2.090  10.533 -2.9855  1.1383 -1.5716
 9253TIP3    H249175   5.207   2.053  10.607 -1.4973 -1.7875 -0.3182
 9254TIP3   OH249176   4.667   1.892  16.273  0.2992 -0.2262 -0.0791
 9254TIP3    H149177   4.605   1.834  16.229  0.2300  0.4320 -0.8630
 9254TIP3    H249178   4.634   1.899  16.363 -0.4287 -0.3526 -0.3336
 9255TIP3   OH249179   2.764   4.635   4.477  0.2198 -0.0699  0.2945
 9255TIP3    H149180   2.854   4.604   4.463  0.0407 -0.0766 -0.9700
 9255TIP3    H249181   2.733   4.586   4.553  0.8412 -1.0631 -0.0703
 9256TIP3   OH249182   3.771   3.677   4.675  0.6220  0.3519 -0.0337
 9256TIP3    H149183   3.767   3.679   4.580  1.0741  0.1889 -0.0562
 9256TIP3    H249184   3.683   3.702   4.703  1.2856  3.6252 -0.4511
 9257TIP3   OH249185   6.458   5.170  12.568 -0.5684  0.1951  0.3204
 9257TIP3    H149186   6.377   5.123  12.550 -0.1110  0.4351 -2.9995
 9257TIP3    H249187   6.524   5.126  12.514  0.9494  1.5919  0.9516
 9258TIP3   OH249188   1.471   6.491  12.878  0.3790 -0.7055 -0.2372
 9258TIP3    H149189   1.538   6.478  12.945  0.1727  0.6217  0.2501
 9258TIP3    H249190   1.520   6.524  12.802  0.2806  0.5383  0.2098
 9259TIP3   OH249191   0.680   6.582  13.213  0.6333  0.0090 -0.1207
 9259TIP3    H149192   0.674   6.553  13.121 -0.1731  1.1269 -0.4342
 9259TIP3    H249193   0.609   6.645  13.223  0.1833 -0.6971  1.5186
 9260TIP3   OH249194   0.764   2.714   2.564 -0.2858 -0.3373  0.3472
 9260TIP3    H149195   0.691   2.692   2.623 -0.2439  0.1974  0.6027
 9260TIP3    H249196   0.748   2.805   2.540  1.1288  0.2905  1.6442
 9261TIP3   OH249197   0.418   0.358  16.653 -0.0778 -0.2798  0.8281
 9261TIP3    H149198   0.449   0.441  16.689  1.0523  0.1334 -1.0203
 9261TIP3    H249199   0.426   0.367  16.558 -1.4373 -1.9296  0.4913
 9262TIP3   OH249200   1.691   0.020  12.260  0.3455  0.3865  0.1451
 9262TIP3    H149201   1.767  -0.022  12.300  0.8637  1.9727  0.9133
 9262TIP3    H249202   1.617  -0.035  12.285  1.2770 -1.7717 -1.4545
 9263TIP3   OH249203   1.125   0.123   4.776  0.2296 -0.3767 -0.1647
 9263TIP3    H149204   1.107   0.214   4.799 -1.4162 -0.6938 -0.1154
 9263TIP3    H249205   1.137   0.078   4.859 -1.7648 -0.7349 -0.0315
 9264TIP3   OH249206   6.358   4.319   0.194  0.0050 -0.1691  0.2765
 9264TIP3    H149207   6.326   4.253   0.256  1.4536 -1.3357 -0.1515
 9264TIP3    H249208   6.444   4.344   0.228  1.3410 -1.6597 -1.7682
 9265TIP3   OH249209   5.915   3.327  13.729  0.1859  0.1316 -0.0528
 9265TIP3    H149210   6.002   3.361  13.749 -0.6341  1.7321  1.0565
 9265TIP3    H249211   5.897   3.264  13.799  0.5455 -0.4125 -0.4427
 9266TIP3   OH249212   2.488   0.429   2.159  0.3079  0.9973 -0.5382
 9266TIP3    H149213   2.478   0.337   2.184  0.2966  0.7962 -1.2397
 9266TIP3    H249214   2.435   0.477   2.222 -0.0977  0.4765 -0.4715
 9267TIP3   OH249215   1.127   3.267   4.828  0.0798  0.4314  0.1118
 9267TIP3    H149216   1.032   3.260   4.818 -0.2434  0.1008  2.6518
 9267TIP3    H249217   1.163   3.209   4.761 -1.4653  0.9915 -1.2569
 9268TIP3   OH249218   0.843   2.393   1.407  0.4667  0.1104 -0.3502
 9268TIP3    H149219   0.898   2.425   1.478  1.3281  0.7689 -1.2819
 9268TIP3    H249220   0.902   2.340   1.353  0.7417  2.3650 -2.4057
 9269TIP3   OH249221   4.246   3.016  13.034  0.0302 -0.1321 -0.3057
 9269TIP3    H149222   4.203   2.942  12.992  2.8293  0.4677 -4.9463
 9269TIP3    H249223   4.190   3.091  13.013  0.4197 -0.1176 -1.3538
 9270TIP3   OH249224   5.170   1.417   3.862  0.3356 -0.2038 -0.2034
 9270TIP3    H149225   5.185   1.453   3.775 -2.0994 -0.5666 -0.8495
 9270TIP3    H249226   5.212   1.331   3.861 -2.7846 -1.8785 -2.4512
 9271TIP3   OH249227   0.211   6.690  12.240 -0.0417 -0.0990  0.0001
 9271TIP3    H149228   0.158   6.677  12.318  1.3670 -1.7658  0.7402
 9271TIP3    H249229   0.148   6.698  12.169 -1.3361  1.0026  1.2123
 9272TIP3   OH249230   5.472   5.974  13.636 -0.3459  0.3445  0.5205
 9272TIP3    H149231   5.423   5.898  13.668  1.2586 -0.5479  0.9230
 9272TIP3    H249232   5.414   6.048  13.653 -1.2880 -0.6015  1.5823
 9273TIP3   OH249233   6.061   4.489  11.554 -0.0516 -0.3976 -0.1071
 9273TIP3    H149234   6.060   4.579  11.587  1.1402  0.3167 -1.8751
 9273TIP3    H249235   5.969   4.469  11.539 -0.2793  1.1603 -1.1684
 9274TIP3   OH249236   3.959   2.741  14.281 -0.2504  0.2401 -0.6627
 9274TIP3    H149237   3.866   2.735  14.302 -0.4052 -0.4087 -1.4580
 9274TIP3    H249238   3.981   2.833  14.292 -1.0961  0.4745 -0.9009
 9275TIP3   OH249239   3.039   2.399   4.124  0.5839  0.5653 -0.0860
 9275TIP3    H149240   3.118   2.348   4.111 -0.2061 -0.9540  0.7837
 9275TIP3    H249241   3.049   2.438   4.211 -0.1934 -0.8100  0.6625
 9276TIP3   OH249242   3.922   6.341   2.258  0.2991 -0.0678  0.4332
 9276TIP3    H149243   3.897   6.433   2.261  1.3153  0.2450 -0.3291
 9276TIP3    H249244   4.017   6.341   2.258  0.3210 -1.0937 -0.0417
 9277TIP3   OH249245   3.655   5.583  14.190 -0.3251 -0.5399 -0.5315
 9277TIP3    H149246   3.581   5.644  14.188  0.5840  0.6681  0.6670
 9277TIP3    H249247   3.683   5.582  14.282  0.1309 -2.2498 -0.6534
 9278TIP3   OH249248   5.612   0.121   1.163 -0.2452 -0.5703 -0.7178
 9278TIP3    H149249   5.631   0.195   1.222 -1.3917 -1.7429  1.2168
 9278TIP3    H249250   5.684   0.122   1.100  1.5997  0.1878  1.2701
 9279TIP3   OH249251   1.975   2.958  15.312 -0.5541  0.1383 -0.5443
 9279TIP3    H149252   1.981   2.970  15.406  0.6908  1.0348 -0.7151
 9279TIP3    H249253   1.900   3.011  15.285  0.1933  1.3666 -0.2707
 9280TIP3   OH249254   1.491   2.163   2.396  0.3825 -0.2091  0.1992
 9280TIP3    H149255   1.422   2.229   2.400  0.3380 -0.1553 -1.0256
 9280TIP3    H249256   1.553   2.198   2.332 -0.4635 -2.1084 -1.7643
 9281TIP3   OH249257   1.779   5.502  12.852  0.4617  0.7123 -0.1147
 9281TIP3    H149258   1.870   5.473  12.843  0.2248  0.0473 -0.4681
 9281TIP3    H249259   1.729   5.420  12.864 -0.1647  1.0196 -0.5671
 9282TIP3   OH249260   5.678   2.683  15.456 -0.6312  0.4209  0.4642
 9282TIP3    H149261   5.669   2.720  15.544 -0.1756 -0.8146  1.0541
 9282TIP3    H249262   5.696   2.590  15.471 -0.9351  0.1153 -0.9492
 9283TIP3   OH249263   1.818   6.178   2.671 -0.4427 -0.3166 -0.0341
 9283TIP3    H149264   1.854   6.266   2.658  0.3749 -0.4407  1.1830
 9283TIP3    H249265   1.795   6.148   2.583 -2.0604  1.6522 -0.3527
 9284TIP3   OH249266   0.826   4.251   3.070  0.2852  0.1340 -0.0985
 9284TIP3    H149267   0.891   4.315   3.097  0.2032  0.2619 -0.2017
 9284TIP3    H249268   0.751   4.267   3.126  0.0998  0.4273 -0.4248
 9285TIP3   OH249269   1.956   6.355   2.075  0.2313  0.8886 -0.1720
 9285TIP3    H149270   2.024   6.335   2.010 -0.5970  1.5227 -1.2522
 9285TIP3    H249271   1.917   6.270   2.095 -0.5101  0.8428 -1.6544
 9286TIP3   OH249272   2.246   1.443   0.340 -0.0001 -0.0994  0.1902
 9286TIP3    H149273   2.203   1.370   0.384 -1.0737 -0.6209 -1.6041
 9286TIP3    H249274   2.288   1.404   0.264 -0.9822  1.1779 -1.0725
 9287TIP3   OH249275   6.448   1.171  16.638 -0.3752 -0.5313  0.1132
 9287TIP3    H149276   6.379   1.208  16.693 -1.3495 -0.2554 -1.2698
 9287TIP3    H249277   6.516   1.239  16.637 -1.1939  0.2908 -0.5921
 9288TIP3   OH249278   6.709   4.968  12.327 -0.4722 -1.1981  0.1529
 9288TIP3    H149279   6.801   4.949  12.308 -0.2225  0.9346 -1.0566
 9288TIP3    H249280   6.662   4.890  12.297  0.9119 -2.3649  0.8764
 9289TIP3   OH249281   0.260   0.672  14.463 -0.1646 -0.5159  0.5254
 9289TIP3    H149282   0.303   0.756  14.479 -1.1105  0.5047 -1.8105
 9289TIP3    H249283   0.238   0.639  14.550 -1.6643  2.6810  1.4975
 9290TIP3   OH249284   0.512   0.444   6.662  0.8159 -0.3194  0.2183
 9290TIP3    H149285   0.570   0.455   6.587  2.1326 -1.6870  0.9872
 9290TIP3    H249286   0.515   0.528   6.708  0.2300  0.4256 -1.0684
 9291TIP3   OH249287   3.712   0.499  16.346 -0.2720 -0.0878 -0.5098
 9291TIP3    H149288   3.715   0.466  16.436  0.7504  0.1982 -0.4275
 9291TIP3    H249289   3.717   0.594  16.355 -2.1249  0.0639 -0.7975
 9292TIP3   OH249290   4.611   4.332   0.144 -0.2578  0.3963 -0.0947
 9292TIP3    H149291   4.672   4.399   0.112 -1.3648  0.5134 -2.1296
 9292TIP3    H249292   4.613   4.264   0.076 -0.2728 -0.9751  1.2094
 9293TIP3   OH249293   5.604   4.317  11.788  0.4069  0.1637 -0.2530
 9293TIP3    H149294   5.589   4.373  11.713 -0.5442 -1.2887 -1.2041
 9293TIP3    H249295   5.516   4.300  11.823  0.4783 -1.9410 -0.9501
 9294TIP3   OH249296   3.366   4.210   4.194 -0.5841 -0.4953 -0.4308
 9294TIP3    H149297   3.458   4.221   4.168 -0.8445  0.0214 -1.1505
 9294TIP3    H249298   3.342   4.124   4.158  0.4308 -2.0389  2.2375
 9295TIP3   OH249299   1.927   5.446   5.615  1.1883 -0.1444 -0.7848
 9295TIP3    H149300   1.926   5.527   5.665 -0.0009 -0.4158 -0.3263
 9295TIP3    H249301   1.998   5.394   5.652  0.3194 -0.3478  0.6515
 9296TIP3   OH249302   0.272   0.144   6.008 -0.2174  0.1006 -0.3522
 9296TIP3    H149303   0.246   0.122   5.918  0.7423 -0.5617 -0.4816
 9296TIP3    H249304   0.313   0.230   6.001  1.0591 -0.5287 -0.7822
 9297TIP3   OH249305   0.736   5.637   1.086 -0.0604 -0.2530  0.2101
 9297TIP3    H149306   0.770   5.556   1.049 -3.2366 -1.9844  0.7343
 9297TIP3    H249307   0.697   5.684   1.012  0.4081  0.0691  0.1614
 9298TIP3   OH249308   3.822   0.021   2.949  0.3824 -0.1493  0.3480
 9298TIP3    H149309   3.764   0.096   2.934 -0.1401 -0.7310 -0.5616
 9298TIP3    H249310   3.896   0.058   2.997  1.0165  1.3412 -1.6389
 9299TIP3   OH249311   1.540   5.644  11.046  0.0828  0.0325  0.2179
 9299TIP3    H149312   1.618   5.643  11.101  1.3096 -1.1660 -1.4444
 9299TIP3    H249313   1.571   5.616  10.960 -2.3508 -1.4039 -0.2751
 9300TIP3   OH249314   1.813   2.067   5.141  0.0816 -0.3573  0.1017
 9300TIP3    H149315   1.827   2.045   5.049 -0.0751  2.2889 -0.6602
 9300TIP3    H249316   1.888   2.123   5.164  0.0223 -0.8167  1.5532
 9301TIP3   OH249317   1.404   1.595   6.351 -0.3789 -0.7164  0.1292
 9301TIP3    H149318   1.402   1.519   6.293 -3.5692  0.0809 -0.9978
 9301TIP3    H249319   1.314   1.629   6.350  0.8219  2.9431  0.7478
 9302TIP3   OH249320   2.265   0.606   4.697 -0.1242  0.9544 -0.2067
 9302TIP3    H149321   2.171   0.625   4.704 -0.1806  0.1722  1.4921
 9302TIP3    H249322   2.301   0.630   4.782  1.0753  0.4904 -0.5682
 9303TIP3   OH249323   4.613   1.246  13.881 -0.1015  0.1547  0.1133
 9303TIP3    H149324   4.647   1.205  13.802  0.2787  0.8142 -0.0753
 9303TIP3    H249325   4.538   1.298  13.851 -0.2770 -0.0070  0.2705
 9304TIP3   OH249326   4.605   2.473  15.782 -0.1668 -0.0325  0.2006
 9304TIP3    H149327   4.572   2.510  15.864  0.2205 -1.4643  1.0528
 9304TIP3    H249328   4.681   2.528  15.760  0.1636 -0.0615  1.2083
 9305TIP3   OH249329   3.377   0.101  13.529 -0.6843  0.0576 -0.0148
 9305TIP3    H149330   3.369   0.009  13.555  1.3722 -0.0665  0.3587
 9305TIP3    H249331   3.348   0.103  13.438  2.1884 -1.6620 -1.1208
 9306TIP3   OH249332   5.291   5.524   4.836  0.1128  0.6105  0.2754
 9306TIP3    H149333   5.322   5.607   4.800 -3.6972  1.3277 -1.9441
 9306TIP3    H249334   5.252   5.547   4.920 -0.0497  0.8988  0.1226
 9307TIP3   OH249335   2.187   3.436  13.846 -0.0935  0.7934 -0.3898
 9307TIP3    H149336   2.155   3.521  13.818  1.4451  1.6932  0.4814
 9307TIP3    H249337   2.188   3.440  13.941 -0.8990 -0.5641 -0.2957
 9308TIP3   OH249338   3.334   4.448   3.458 -0.5119  0.2146 -0.0530
 9308TIP3    H149339   3.273   4.405   3.398  1.1766 -0.4747 -1.3833
 9308TIP3    H249340   3.389   4.502   3.401  3.0041 -2.6119  0.2626
 9309TIP3   OH249341   3.714   5.973   4.735 -0.0467 -0.3220  0.4108
 9309TIP3    H149342   3.720   6.063   4.767  1.7214  0.8476 -2.7457
 9309TIP3    H249343   3.802   5.937   4.749 -0.2008 -0.8875 -0.0486
 9310TIP3   OH249344   5.735   6.431   5.109 -0.4131  0.2241  0.0674
 9310TIP3    H149345   5.694   6.516   5.098 -1.5300 -0.5265 -2.0846
 9310TIP3    H249346   5.810   6.432   5.049  0.6220  0.2600  1.2986
 9311TIP3   OH249347   1.250   2.769  14.950 -0.6978 -0.2973  0.3171
 9311TIP3    H149348   1.245   2.804  15.039  2.2971  0.9311  0.1562
 9311TIP3    H249349   1.332   2.805  14.916  0.7363 -4.4704 -1.2975
 9312TIP3   OH249350   2.254   4.266   5.825 -0.0848  0.2044 -0.1991
 9312TIP3    H149351   2.161   4.252   5.808 -0.1064 -0.1077  0.1710
 9312TIP3    H249352   2.285   4.185   5.865  0.8714 -0.5914 -2.4097
 9313TIP3   OH249353   6.018   2.932  14.761 -0.0411  0.2214 -0.0222
 9313TIP3    H149354   5.929   2.936  14.795 -0.0402  0.9886 -0.0831
 9313TIP3    H249355   6.043   3.024  14.748 -0.0734 -0.0275 -2.1865
 9314TIP3   OH249356   2.419   1.019  13.777 -0.0631 -0.6851 -0.1701
 9314TIP3    H149357   2.504   1.052  13.804  0.8453 -3.7078  1.1418
 9314TIP3    H249358   2.430   0.997  13.684  0.3069 -0.2712 -0.2265
 9315TIP3   OH249359   2.794   6.389   5.442  0.1564  0.1241  0.2764
 9315TIP3    H149360   2.862   6.420   5.503 -0.6091  0.2602  1.0785
 9315TIP3    H249361   2.822   6.301   5.418  0.1085 -0.2074  1.3926
 9316TIP3   OH249362   5.242   3.757  14.017  0.2964 -0.2982 -0.4190
 9316TIP3    H149363   5.223   3.761  14.110 -0.0119 -2.4414 -0.3428
 9316TIP3    H249364   5.239   3.663  13.995  1.5096  0.0434 -2.3413
 9317TIP3   OH249365   4.591   3.931  14.399 -0.3704 -0.5532 -0.5492
 9317TIP3    H149366   4.600   4.018  14.359 -0.0766  0.1012  0.9005
 9317TIP3    H249367   4.636   3.872  14.338  1.1034  0.5817 -0.6193
 9318TIP3   OH249368   1.156   4.608  12.211  0.1529  0.2487 -0.4652
 9318TIP3    H149369   1.194   4.679  12.262  1.4393 -0.3452 -0.5574
 9318TIP3    H249370   1.228   4.575  12.157  0.1027 -2.2519  0.8220
 9319TIP3   OH249371   2.379   5.546  12.449  0.0686  0.3742  0.1714
 9319TIP3    H149372   2.413   5.598  12.521 -1.3701  3.1886 -1.0257
 9319TIP3    H249373   2.452   5.540  12.387  0.3830  0.5892  0.5165
 9320TIP3   OH249374   5.713   5.802  15.157  0.2415 -0.3497  0.1871
 9320TIP3    H149375   5.660   5.723  15.169  0.0337 -0.4243 -1.0910
 9320TIP3    H249376   5.790   5.772  15.108  0.1639  0.2425 -0.3010
 9321TIP3   OH249377   6.409   2.255   5.510 -0.1409 -0.0860 -0.9589
 9321TIP3    H149378   6.399   2.245   5.415 -0.1148  0.5048 -1.0292
 9321TIP3    H249379   6.398   2.349   5.525  1.0052  0.0001 -0.5224
 9322TIP3   OH249380   4.201   4.612   5.229 -0.3597 -0.2019 -0.2050
 9322TIP3    H149381   4.109   4.624   5.252 -0.4549  0.4446 -0.8762
 9322TIP3    H249382   4.230   4.539   5.284 -1.1439 -0.1108  0.3520
 9323TIP3   OH249383   2.842   0.458  13.593 -0.5380  0.2130  0.1978
 9323TIP3    H149384   2.781   0.498  13.531 -0.3974  1.8330  1.0336
 9323TIP3    H249385   2.790   0.392  13.639 -1.2703  0.5878 -0.0788
 9324TIP3   OH249386   6.519   3.305   4.504  0.4425 -0.1841 -0.2134
 9324TIP3    H149387   6.468   3.226   4.524  0.0136  0.2807  0.5813
 9324TIP3    H249388   6.522   3.307   4.409 -1.0136 -0.2471 -0.2867
 9325TIP3   OH249389   3.587   0.206  13.635 -0.7257 -0.6115  0.1574
 9325TIP3    H149390   3.658   0.201  13.572 -1.6623  0.5364 -1.0526
 9325TIP3    H249391   3.510   0.172  13.589 -1.3214 -0.2424  0.8463
 9326TIP3   OH249392   3.009   0.230  14.586  0.3884  0.2107 -0.7375
 9326TIP3    H149393   2.936   0.290  14.604  1.6083  1.9001 -1.1904
 9326TIP3    H249394   2.992   0.199  14.497 -0.2450 -0.1436 -0.5058
 9327TIP3   OH249395   6.066   3.839   2.398 -0.6424 -0.2401 -0.1442
 9327TIP3    H149396   6.104   3.909   2.450 -0.1763 -1.5400  1.3374
 9327TIP3    H249397   6.076   3.869   2.307  0.5556  1.1006  0.3916
 9328TIP3   OH249398   0.521   5.062  14.414  0.1890  0.1408  0.4587
 9328TIP3    H149399   0.539   4.976  14.452  0.3171 -0.5237 -1.0273
 9328TIP3    H249400   0.570   5.123  14.468  0.1835 -0.7318  1.4816
 9329TIP3   OH249401   3.779   5.534  16.944 -0.0095 -0.6575 -0.5780
 9329TIP3    H149402   3.735   5.570  16.867  1.5816  1.0112 -0.7536
 9329TIP3    H249403   3.856   5.588  16.956 -0.0765 -1.0010  2.0826
 9330TIP3   OH249404   4.581   4.666  13.650 -0.7370 -0.2782  0.0892
 9330TIP3    H149405   4.551   4.651  13.560  0.1748  2.1854 -0.6958
 9330TIP3    H249406   4.500   4.675  13.701 -1.3013  0.4633 -0.8947
 9331TIP3   OH249407   2.290   4.385   1.298 -0.3610  0.3283 -0.4577
 9331TIP3    H149408   2.340   4.430   1.231 -0.6591 -0.9999 -1.6100
 9331TIP3    H249409   2.210   4.357   1.253 -0.7118 -0.3070  0.5382
 9332TIP3   OH249410   5.826   0.848   2.590  0.2731 -0.2794  0.1319
 9332TIP3    H149411   5.785   0.931   2.616  0.9573  0.7708 -1.9029
 9332TIP3    H249412   5.753   0.787   2.583 -0.4189  0.4787  0.4654
 9333TIP3   OH249413   4.796   1.623  11.803 -0.0269 -0.7168  0.3422
 9333TIP3    H149414   4.773   1.705  11.847 -0.0661  0.2751 -1.4490
 9333TIP3    H249415   4.889   1.633  11.782  0.7420 -2.3536  2.5657
 9334TIP3   OH249416   4.084   1.945   3.915  0.3777 -0.6046  0.2158
 9334TIP3    H149417   4.055   2.035   3.897 -0.4524 -1.2883 -2.4369
 9334TIP3    H249418   4.014   1.907   3.968 -0.3152 -0.2599 -0.4298
 9335TIP3   OH249419   5.813   4.357  10.600  0.0107  0.2159 -0.4181
 9335TIP3    H149420   5.815   4.420  10.672 -2.5495 -1.6108  1.4547
 9335TIP3    H249421   5.744   4.389  10.542  1.4192  1.1715 -1.6304
 9336TIP3   OH249422   6.628   5.116  16.318 -0.4010 -0.3547  0.6296
 9336TIP3    H149423   6.667   5.180  16.378 -1.5343  1.1003 -0.1050
 9336TIP3    H249424   6.536   5.141  16.314 -0.5293 -0.9642 -1.0020
 9337TIP3   OH249425   3.428   2.918  12.217  0.5641  0.2531  0.2869
 9337TIP3    H149426   3.397   2.934  12.306  0.6982  1.7683  0.0891
 9337TIP3    H249427   3.523   2.909  12.225  0.3639 -2.6957  0.6603
 9338TIP3   OH249428   3.221   2.667   2.424  0.1383 -0.7097  0.2200
 9338TIP3    H149429   3.151   2.607   2.395 -0.6302  0.6057 -0.7916
 9338TIP3    H249430   3.200   2.686   2.515 -0.5339 -0.7536  0.0845
 9339TIP3   OH249431   3.851   0.184   0.359  0.4264  0.6588  0.3657
 9339TIP3    H149432   3.887   0.226   0.437  0.7355 -0.4259  0.8169
 9339TIP3    H249433   3.813   0.103   0.391  1.2040 -0.1545 -0.7138
 9340TIP3   OH249434   3.435   1.301   0.234 -0.2627  0.6389  0.1567
 9340TIP3    H149435   3.366   1.322   0.297  0.2966  1.7438  0.4265
 9340TIP3    H249436   3.388   1.269   0.157 -1.0734  1.2360  0.3906
 9341TIP3   OH249437   1.246   5.994   4.519  0.1406  0.0275  0.0028
 9341TIP3    H149438   1.244   6.053   4.444  1.1327  0.5338  0.3623
 9341TIP3    H249439   1.279   6.048   4.591  1.2072 -1.0003  0.3120
 9342TIP3   OH249440   2.331   0.562   3.069 -0.1305 -0.1039 -0.8499
 9342TIP3    H149441   2.303   0.642   3.114  2.0895  0.0495  0.3964
 9342TIP3    H249442   2.301   0.491   3.126  1.2196  0.0291  0.0683
 9343TIP3   OH249443   5.699   3.577  13.753 -0.5343 -0.4330  0.0277
 9343TIP3    H149444   5.696   3.642  13.822 -0.6985 -1.3292  0.8816
 9343TIP3    H249445   5.783   3.533  13.765 -0.5235 -0.5327 -0.3986
 9344TIP3   OH249446   6.241   1.564   3.067 -0.5750  0.3432 -0.0727
 9344TIP3    H149447   6.331   1.595   3.074 -0.6345  0.4882  0.0482
 9344TIP3    H249448   6.243   1.499   2.997 -0.0041 -0.9782  1.1111
 9345TIP3   OH249449   0.239   4.628  15.041  0.0511  0.2192 -0.2848
 9345TIP3    H149450   0.307   4.617  15.108 -1.0314 -0.1034  0.7942
 9345TIP3    H249451   0.216   4.720  15.046  0.3129  0.3029 -0.5703
 9346TIP3   OH249452   0.193   2.109  14.936 -0.0219 -0.3107  0.4624
 9346TIP3    H149453   0.154   2.041  14.991 -2.2082 -0.2571 -0.8574
 9346TIP3    H249454   0.233   2.061  14.863 -1.0383 -0.2581 -0.1559
 9347TIP3   OH249455   5.879   3.328  12.882  0.1904 -0.2803  0.1834
 9347TIP3    H149456   5.820   3.310  12.809  0.2014 -1.5376  0.4669
 9347TIP3    H249457   5.951   3.377  12.842 -0.1703 -0.2996 -0.5098
 9348TIP3   OH249458   2.975   4.050  11.188 -0.5128  0.5140 -0.6236
 9348TIP3    H149459   2.999   4.127  11.136 -0.8076 -0.1664 -1.8093
 9348TIP3    H249460   3.059   4.017  11.221 -0.4363  1.6651  0.4105
 9349TIP3   OH249461   3.202   1.468   1.883 -0.0524  0.0421  0.4560
 9349TIP3    H149462   3.230   1.379   1.864 -1.7363 -0.5847  0.7489
 9349TIP3    H249463   3.119   1.478   1.836 -0.5429  1.0027  1.4685
 9350TIP3   OH249464   0.236   6.656   2.283 -0.2064  0.0712  0.1100
 9350TIP3    H149465   0.157   6.615   2.319 -1.2968  0.5758 -1.5976
 9350TIP3    H249466   0.285   6.583   2.245 -0.3285 -0.1176  0.3080
 9351TIP3   OH249467   0.032   3.866   1.709 -0.9298 -0.2685  0.0305
 9351TIP3    H149468   0.085   3.789   1.693 -0.7495  0.1558 -1.6427
 9351TIP3    H249469   0.094   3.939   1.710 -1.1479 -0.0801  1.1223
 9352TIP3   OH249470   0.207   6.130  13.072 -0.1213  0.1970 -0.1455
 9352TIP3    H149471   0.148   6.182  13.126  0.4756  0.2289  0.4973
 9352TIP3    H249472   0.295   6.157  13.101  0.2019 -1.0090  0.0551
 9353TIP3   OH249473   0.266   4.283  16.640 -0.0477  0.1203 -0.4865
 9353TIP3    H149474   0.252   4.374  16.666 -0.2038  0.0089 -0.1789
 9353TIP3    H249475   0.361   4.277  16.627 -0.0644  0.3899 -0.7530
 9354TIP3   OH249476   1.661   6.701  16.504 -0.5009  0.0711 -0.1889
 9354TIP3    H149477   1.750   6.665  16.509 -0.2577  0.7633  0.6731
 9354TIP3    H249478   1.624   6.686  16.591  0.0072  2.8527  0.6108
 9355TIP3   OH249479   1.704   2.140  10.877  0.0362 -0.8324 -0.2465
 9355TIP3    H149480   1.623   2.162  10.830 -0.1353 -2.0465 -0.5569
 9355TIP3    H249481   1.676   2.121  10.966  0.5102  2.7403  0.8413
 9356TIP3   OH249482   0.875   3.732   4.382 -1.0131 -0.1823  0.6024
 9356TIP3    H149483   0.785   3.735   4.350 -0.5864  0.6368 -0.5779
 9356TIP3    H249484   0.906   3.645   4.357 -1.1812 -0.1224  0.1816
 9357TIP3   OH249485   3.180   3.711  12.542  0.3844  0.6766 -0.0714
 9357TIP3    H149486   3.152   3.712  12.633 -0.2506  0.1879 -0.2604
 9357TIP3    H249487   3.139   3.634  12.504  0.7288  0.8144 -0.7481
 9358TIP3   OH249488   4.678   2.534  16.671  0.0440 -0.1525 -0.0909
 9358TIP3    H149489   4.591   2.570  16.652 -0.7858 -1.7023  0.6234
 9358TIP3    H249490   4.734   2.612  16.678 -1.3034  0.8956 -0.3694
 9359TIP3   OH249491   4.504   5.932   1.313  0.0380  0.2924 -0.2119
 9359TIP3    H149492   4.567   5.868   1.346  0.5329  1.0020  0.2705
 9359TIP3    H249493   4.481   5.985   1.389 -1.2143 -0.0012 -0.3680
 9360TIP3   OH249494   1.730   3.968   5.097  0.8690  0.5296 -0.3718
 9360TIP3    H149495   1.685   3.893   5.060  2.2049 -0.1614 -0.6627
 9360TIP3    H249496   1.663   4.036   5.103  0.0065 -0.1844 -1.5747
 9361TIP3   OH249497   5.139   4.609   2.913 -0.1014 -0.5406  0.0616
 9361TIP3    H149498   5.083   4.663   2.969 -0.4588 -2.0535  1.2051
 9361TIP3    H249499   5.085   4.588   2.837  0.5481  1.9500 -1.2306
 9362TIP3   OH249500   5.453   0.879  17.233 -0.1124  0.3378 -0.0186
 9362TIP3    H149501   5.468   0.793  17.196 -0.8980 -0.2932  1.0733
 9362TIP3    H249502   5.358   0.883  17.248 -0.0149  1.1610  0.4587
 9363TIP3   OH249503   3.156   1.778   2.365 -0.1163  0.6671  0.0938
 9363TIP3    H149504   3.115   1.700   2.402 -2.3748  2.5129  1.7772
 9363TIP3    H249505   3.111   1.792   2.282 -1.3975  1.4176  0.8824
 9364TIP3   OH249506   3.760   4.172  13.008 -0.1228  0.2440 -0.1929
 9364TIP3    H149507   3.850   4.139  13.002 -0.5648 -1.1130  0.1737
 9364TIP3    H249508   3.768   4.267  13.001  1.3416  0.1484 -0.0792
 9365TIP3   OH249509   0.835   2.474   2.900  0.0549  0.0187 -0.2962
 9365TIP3    H149510   0.789   2.390   2.893 -0.0669 -0.0715  1.3461
 9365TIP3    H249511   0.767   2.540   2.885 -0.1033 -0.1456 -0.3052
 9366TIP3   OH249512   1.839   3.531   3.906  0.1089  0.1054 -0.3292
 9366TIP3    H149513   1.753   3.516   3.945  0.2012  0.3845 -0.0112
 9366TIP3    H249514   1.820   3.565   3.818 -0.1521 -4.0015 -2.0887
 9367TIP3   OH249515   6.373   5.273  11.797 -0.8230 -0.1840  0.2093
 9367TIP3    H149516   6.441   5.216  11.763 -0.6296  0.9373 -1.3476
 9367TIP3    H249517   6.410   5.311  11.877 -0.5147 -1.2931  0.6102
 9368TIP3   OH249518   1.091   6.217   3.811 -0.1553 -0.0267 -0.8758
 9368TIP3    H149519   1.111   6.300   3.854  1.3305 -0.2485 -1.1010
 9368TIP3    H249520   0.996   6.220   3.798 -0.4114  0.7753  0.8792
 9369TIP3   OH249521   3.513   0.130   0.526 -0.3366  0.0385  0.3354
 9369TIP3    H149522   3.534   0.037   0.535  0.1137  0.1297  0.2767
 9369TIP3    H249523   3.565   0.173   0.594  0.7157  0.4039 -0.6543
 9370TIP3   OH249524   0.197   3.104  17.163  0.1196 -0.0386 -0.1724
 9370TIP3    H149525   0.281   3.059  17.160 -0.7547 -1.8987  1.1962
 9370TIP3    H249526   0.211   3.178  17.222  1.4257  1.2575 -1.9967
 9371TIP3   OH249527   4.177   4.633  11.051 -0.2253  0.4755 -0.1473
 9371TIP3    H149528   4.098   4.664  11.008 -0.8869 -0.8654  0.0677
 9371TIP3    H249529   4.151   4.617  11.142  0.6903  1.4959  0.3252
 9372TIP3   OH249530   2.349   0.213   1.503  0.0886 -0.6121  0.0431
 9372TIP3    H149531   2.391   0.263   1.572 -0.1523 -0.3814  0.0251
 9372TIP3    H249532   2.299   0.278   1.453  2.3260 -0.3244 -1.9540
 9373TIP3   OH249533   1.874   5.215  12.545  0.6058 -0.0950  0.1761
 9373TIP3    H149534   1.939   5.163  12.592  3.1025 -1.4525 -4.1890
 9373TIP3    H249535   1.862   5.169  12.462 -1.2998  3.4326 -1.7380
 9374TIP3   OH249536   2.474   6.113  14.457 -0.0771 -0.1702 -0.0739
 9374TIP3    H149537   2.560   6.099  14.417  0.4632 -0.3682  1.1034
 9374TIP3    H249538   2.441   6.024  14.472 -0.2470 -0.1000 -0.0370
 9375TIP3   OH249539   4.747   6.387   1.808  0.1401 -0.4173 -0.0833
 9375TIP3    H149540   4.764   6.336   1.888  1.1401 -1.0158 -0.6557
 9375TIP3    H249541   4.725   6.474   1.840  1.6986 -0.3196  0.8507
 9376TIP3   OH249542   4.767   0.587  11.213 -0.2015 -0.7168  0.0163
 9376TIP3    H149543   4.822   0.655  11.251  1.6716 -0.6810 -2.5134
 9376TIP3    H249544   4.790   0.507  11.260  0.7646 -0.3758  0.1353
 9377TIP3   OH249545   4.711   0.737  12.936 -0.3161  0.3088 -0.2388
 9377TIP3    H149546   4.663   0.734  13.019 -0.2486 -1.6862 -0.2182
 9377TIP3    H249547   4.798   0.767  12.959 -0.0158 -1.1085  0.6112
 9378TIP3   OH249548   4.622   2.407   3.169 -0.0225 -0.7078  0.0271
 9378TIP3    H149549   4.643   2.389   3.077  1.4232 -3.6416  0.7927
 9378TIP3    H249550   4.536   2.368   3.182 -1.3431  1.8081 -0.5456
 9379TIP3   OH249551   1.479   1.821   4.323  0.0338 -0.5556 -0.0272
 9379TIP3    H149552   1.420   1.761   4.278 -0.9351 -0.0826  0.5764
 9379TIP3    H249553   1.465   1.803   4.416 -1.0597  1.2809  0.2197
 9380TIP3   OH249554   0.515   3.976  15.795  0.7501 -0.9450  0.0312
 9380TIP3    H149555   0.459   3.924  15.738 -0.8915 -0.4607  1.1456
 9380TIP3    H249556   0.567   3.911  15.843  0.3788 -1.4481 -0.2360
 9381TIP3   OH249557   2.489   6.528  16.894 -0.5527 -0.2814  0.1870
 9381TIP3    H149558   2.404   6.572  16.892 -0.4109 -0.0452 -0.8363
 9381TIP3    H249559   2.527   6.554  16.978 -1.6140 -0.6536  0.8117
 9382TIP3   OH249560   5.591   1.424   1.930  0.3597  0.0873  0.2228
 9382TIP3    H149561   5.630   1.362   1.993  2.0807  0.1572 -0.6980
 9382TIP3    H249562   5.630   1.399   1.846 -1.8549  0.0215 -0.8379
 9383TIP3   OH249563   0.303   0.065  11.152 -0.3188 -0.0683 -0.2682
 9383TIP3    H149564   0.352   0.093  11.075  0.3330  0.1463  0.2210
 9383TIP3    H249565   0.226   0.021  11.116  0.7724 -1.4262 -1.0753
 9384TIP3   OH249566   1.700   1.015   4.528 -0.2941 -0.7653  0.8010
 9384TIP3    H149567   1.772   0.999   4.467 -1.0513  1.2723 -0.7440
 9384TIP3    H249568   1.736   1.078   4.591 -0.7449  0.4188 -0.0976
 9385TIP3   OH249569   5.807   1.530   0.825  0.2008 -0.2185  0.0877
 9385TIP3    H149570   5.865   1.501   0.894  1.4240 -1.0738 -1.2457
 9385TIP3    H249571   5.723   1.544   0.868  1.4180  1.3230  2.1334
 9386TIP3   OH249572   0.865   5.770   2.612  0.5195  0.1252 -0.0075
 9386TIP3    H149573   0.827   5.800   2.530 -0.9267  2.6791  1.4996
 9386TIP3    H249574   0.950   5.814   2.617 -0.0632  1.1977  0.5630
 9387TIP3   OH249575   3.546   6.153  14.014  0.0164 -0.1554  0.2090
 9387TIP3    H149576   3.570   6.181  13.926  0.3705  0.9430  0.6421
 9387TIP3    H249577   3.594   6.071  14.027 -0.2120 -0.4421 -0.6940
 9388TIP3   OH249578   3.737   1.167  16.465  0.3672 -0.1458  0.2388
 9388TIP3    H149579   3.730   1.262  16.463 -1.1944 -0.2317  0.6968
 9388TIP3    H249580   3.811   1.150  16.525 -0.6054  0.7564  1.7755
 9389TIP3   OH249581   2.735   3.617  13.433  0.3473 -0.3338  0.6686
 9389TIP3    H149582   2.650   3.574  13.446  0.0813  0.2973  1.0754
 9389TIP3    H249583   2.716   3.691  13.376  0.8738 -0.9567 -0.3511
 9390TIP3   OH249584   4.280   0.207   5.004 -0.1760 -0.8331  0.4198
 9390TIP3    H149585   4.261   0.143   4.935  2.4077 -0.8608 -0.3475
 9390TIP3    H249586   4.267   0.159   5.086 -4.4501 -0.4929  0.1859
 9391TIP3   OH249587   5.237   5.562   5.336  1.0652 -0.8899 -0.4123
 9391TIP3    H149588   5.205   5.508   5.409 -1.0696  1.3807  0.4942
 9391TIP3    H249589   5.307   5.615   5.374  0.1837  0.0470 -0.0304
 9392TIP3   OH249590   0.990   5.484   5.026  0.1814  0.2046  0.0071
 9392TIP3    H149591   1.050   5.417   4.995  0.8404  1.1703 -0.8749
 9392TIP3    H249592   0.985   5.471   5.120 -0.8644 -2.0020 -0.2778
 9393TIP3   OH249593   5.972   1.430  14.805  0.1057 -0.3483  0.0274
 9393TIP3    H149594   5.932   1.484  14.737  1.1062  0.3720 -0.0221
 9393TIP3    H249595   5.959   1.340  14.775  1.4757 -0.0336 -1.7180
 9394TIP3   OH249596   6.410   2.834  14.048  0.6463 -0.1026 -0.0620
 9394TIP3    H149597   6.342   2.893  14.017  0.0880 -0.3580  0.6398
 9394TIP3    H249598   6.404   2.839  14.144  2.1413  0.4692  0.0272
 9395TIP3   OH249599   3.226   6.103  15.679  0.3986 -0.0944 -0.3444
 9395TIP3    H149600   3.282   6.080  15.605 -0.4049  0.1218 -1.0288
 9395TIP3    H249601   3.142   6.062  15.660 -0.1279  0.8295 -0.0713
 9396TIP3   OH249602   4.547   3.501   3.298  0.2044  0.2400  0.2355
 9396TIP3    H149603   4.609   3.476   3.366 -1.1935 -0.6116  1.2498
 9396TIP3    H249604   4.501   3.419   3.276 -1.3538  1.0421  0.3575
 9397TIP3   OH249605   1.546   4.666   0.933 -0.6302  0.1589 -0.9295
 9397TIP3    H149606   1.522   4.608   1.005  0.8861  0.0744 -0.4673
 9397TIP3    H249607   1.640   4.683   0.945 -0.4443  0.5208 -2.6180
 9398TIP3   OH249608   1.193   2.520   0.854  0.3854  0.7792 -0.4431
 9398TIP3    H149609   1.137   2.464   0.800  1.0505 -0.1160 -0.2407
 9398TIP3    H249610   1.137   2.593   0.880 -0.5220  0.1910 -0.6921
 9399TIP3   OH249611   5.235   3.475  13.994 -0.5113 -0.1286  0.1433
 9399TIP3    H149612   5.306   3.465  13.931  1.6168 -1.0193  2.5381
 9399TIP3    H249613   5.184   3.395  13.986  1.9943 -2.0945  2.0430
 9400TIP3   OH249614   2.318   4.628   3.066 -0.0461 -0.0040  0.6799
 9400TIP3    H149615   2.328   4.553   3.124 -0.7106  0.1153  0.9561
 9400TIP3    H249616   2.250   4.681   3.106 -0.8486 -0.1468 -0.4400
 9401TIP3   OH249617   6.322   5.889   3.617  0.0550 -0.3830 -0.1453
 9401TIP3    H149618   6.391   5.857   3.560  2.1888 -1.4403  2.7928
 9401TIP3    H249619   6.258   5.817   3.621  1.4759 -1.6274  1.1906
 9402TIP3   OH249620   6.436   3.579  14.831 -0.6999  0.1414 -0.4373
 9402TIP3    H149621   6.344   3.595  14.852 -0.2631  0.7533  1.1446
 9402TIP3    H249622   6.458   3.500  14.880  0.3003  1.5013  1.4448
 9403TIP3   OH249623   2.063   2.683  15.336  0.5584 -0.3357  0.1101
 9403TIP3    H149624   2.049   2.774  15.312  2.6390  0.1125  0.4048
 9403TIP3    H249625   1.988   2.660  15.390  1.1398  1.9816  2.0750
 9404TIP3   OH249626   2.283   6.033   0.561  0.1008  0.3790 -0.0156
 9404TIP3    H149627   2.220   5.973   0.523  0.7844  0.2919 -1.0405
 9404TIP3    H249628   2.295   6.101   0.495  0.6322  0.7128  0.4119
 9405TIP3   OH249629   3.257   4.792   6.155  0.2956  0.1530 -0.3055
 9405TIP3    H149630   3.197   4.801   6.229  0.0929  0.9148 -0.5575
 9405TIP3    H249631   3.277   4.699   6.152 -1.4516 -0.2415 -0.6701
 9406TIP3   OH249632   6.723   2.808  14.119  0.0048  0.5125  0.1247
 9406TIP3    H149633   6.710   2.775  14.030 -0.0544  1.6958 -0.3140
 9406TIP3    H249634   6.651   2.771  14.169 -0.7777  0.9834 -0.6400
 9407TIP3   OH249635   6.208   5.182  14.318 -0.0601  0.4745  0.4432
 9407TIP3    H149636   6.240   5.268  14.347  1.4723  1.6348 -3.8764
 9407TIP3    H249637   6.286   5.126  14.319 -0.2831  0.1510 -0.0586
 9408TIP3   OH249638   4.936   0.422   0.884  0.1961 -0.6456  0.5632
 9408TIP3    H149639   4.927   0.515   0.904  0.0712  0.1359 -2.5690
 9408TIP3    H249640   5.031   0.406   0.888  0.2204 -0.3992  1.0901
 9409TIP3   OH249641   5.349   2.076  15.382  0.5238 -0.3096 -0.3796
 9409TIP3    H149642   5.414   2.135  15.343  0.3886  0.0386 -0.0877
 9409TIP3    H249643   5.320   2.122  15.461 -1.0070  0.1310 -1.1562
 9410TIP3   OH249644   2.120   2.218  15.170  0.3422  0.2140  0.0422
 9410TIP3    H149645   2.070   2.137  15.173 -0.7615  0.8752 -0.0511
 9410TIP3    H249646   2.157   2.225  15.258  1.5025 -1.0075 -0.3101
 9411TIP3   OH249647   6.451   4.463  16.264  0.2414  0.1784 -0.7711
 9411TIP3    H149648   6.520   4.410  16.303  0.9870  1.3099 -0.4984
 9411TIP3    H249649   6.406   4.404  16.203 -1.2927 -1.8041  2.0661
 9412TIP3   OH249650   2.555   0.627  16.382  0.1810  0.1181  0.5655
 9412TIP3    H149651   2.586   0.667  16.464  0.5011  1.8654 -0.3580
 9412TIP3    H249652   2.471   0.670  16.365  0.8715  0.9708 -0.8307
 9413TIP3   OH249653   2.640   5.710   0.456 -0.3877  0.5118  0.4159
 9413TIP3    H149654   2.618   5.769   0.527  0.0468 -0.9106  1.7931
 9413TIP3    H249655   2.705   5.650   0.493  0.2794  0.0686 -1.3477
 9414TIP3   OH249656   1.561   5.562   5.720  0.0863 -0.5796 -0.3184
 9414TIP3    H149657   1.601   5.519   5.795  0.7748  0.2075 -0.2201
 9414TIP3    H249658   1.610   5.644   5.710 -0.3484 -0.4193 -1.2892
 9415TIP3   OH249659   6.125   2.515   4.069 -0.0316  0.0197 -0.2828
 9415TIP3    H149660   6.111   2.421   4.082  2.5626 -0.3311  0.4620
 9415TIP3    H249661   6.051   2.543   4.015 -1.1588 -2.3191 -0.0600
 9416TIP3   OH249662   0.270   3.389  12.660 -0.4975 -0.4767  0.8677
 9416TIP3    H149663   0.321   3.458  12.619 -0.6840 -0.4545  0.6696
 9416TIP3    H249664   0.205   3.436  12.714 -0.5287 -0.4980  0.8494
 9417TIP3   OH249665   3.473   3.794  11.211  0.0679  0.4393  0.1215
 9417TIP3    H149666   3.497   3.803  11.303  1.8584  1.4201 -0.3925
 9417TIP3    H249667   3.555   3.806  11.163 -0.7196 -0.5682 -1.5978
 9418TIP3   OH249668   3.920   5.120   2.476 -0.7370  0.4281 -0.3888
 9418TIP3    H149669   3.975   5.169   2.415 -0.6683 -0.4672 -1.0723
 9418TIP3    H249670   3.961   5.133   2.562  1.6877 -1.6840 -1.0972
 9419TIP3   OH249671   0.747   6.756   5.924  0.4204 -0.4388 -0.5232
 9419TIP3    H149672   0.815   6.696   5.954  2.3713  1.9280  0.1130
 9419TIP3    H249673   0.794   6.820   5.870 -1.1868  1.5955  0.3665
 9420TIP3   OH249674   5.602   0.890  16.929  0.0739 -0.1889 -0.3741
 9420TIP3    H149675   5.571   0.813  16.976 -0.3797  0.2690  0.0842
 9420TIP3    H249676   5.538   0.903  16.860 -2.4584  2.3882  2.2089
 9421TIP3   OH249677   2.141   1.526  11.441 -0.5206  0.3521  0.4043
 9421TIP3    H149678   2.133   1.572  11.357 -2.7127 -0.4549  0.0997
 9421TIP3    H249679   2.231   1.542  11.469 -0.1875  1.9005 -1.3638
 9422TIP3   OH249680   4.092   0.994  13.445 -0.8946 -0.4551  0.0901
 9422TIP3    H149681   4.103   1.024  13.355 -1.5391  1.0733  0.4826
 9422TIP3    H249682   4.031   0.920  13.438  0.1575 -1.2633 -0.8432
 9423TIP3   OH249683   5.693   1.293   2.811 -0.3790 -0.0137  0.6239
 9423TIP3    H149684   5.783   1.294   2.778  1.0900  1.9142  4.1066
 9423TIP3    H249685   5.655   1.375   2.781 -0.0028  0.4204  1.2925
 9424TIP3   OH249686   4.443   4.436  13.884 -0.9878 -0.3390 -0.2813
 9424TIP3    H149687   4.365   4.429  13.829 -0.7981  0.0773 -0.6112
 9424TIP3    H249688   4.452   4.350  13.925 -2.6353  0.1324  1.1407
 9425TIP3   OH249689   0.037   2.274  15.192 -0.4255  0.2796 -0.0934
 9425TIP3    H149690   0.010   2.360  15.159 -0.0013  0.2407 -0.5547
 9425TIP3    H249691   0.123   2.290  15.233  0.9678 -0.3880 -2.5577
 9426TIP3   OH249692   3.641   5.971  15.902  0.2357  0.2021 -0.3263
 9426TIP3    H149693   3.663   6.025  15.978  0.5994 -1.2879  0.6634
 9426TIP3    H249694   3.575   6.022  15.855 -0.7626  0.7262  1.5444
 9427TIP3   OH249695   3.427   2.941   6.077  0.5368 -0.0110 -0.3114
 9427TIP3    H149696   3.346   2.961   6.030  0.1825  1.3376  0.7794
 9427TIP3    H249697   3.495   2.948   6.011 -0.1250 -0.0123 -1.0122
 9428TIP3   OH249698   6.720   0.512  17.322  0.1037 -0.3897 -0.2794
 9428TIP3    H149699   6.690   0.426  17.292  0.2746  0.1998 -2.3150
 9428TIP3    H249700   6.804   0.495  17.365 -1.6037 -1.6857  2.8899
 9429TIP3   OH249701   0.169   5.065  11.926  0.0533  0.0175 -0.5192
 9429TIP3    H149702   0.220   5.139  11.959 -1.6737  0.0427  2.3804
 9429TIP3    H249703   0.208   4.988  11.967 -1.1468 -0.1423  0.3386
 9430TIP3   OH249704   1.140   0.706   3.586  0.3704 -0.0524  0.0751
 9430TIP3    H149705   1.217   0.651   3.577  0.9216  0.2167  2.5302
 9430TIP3    H249706   1.172   0.795   3.571  0.2886 -0.0329  0.0127
 9431TIP3   OH249707   0.514   2.212  12.250 -0.0484  0.0392  0.1423
 9431TIP3    H149708   0.500   2.211  12.155  2.0227 -1.3769 -0.2023
 9431TIP3    H249709   0.427   2.199  12.287 -0.8503  0.3198 -1.5474
 9432TIP3   OH249710   0.033   3.709  11.799 -0.2443  0.3205  0.0946
 9432TIP3    H149711  -0.004   3.698  11.886 -0.3363  1.7161  0.2513
 9432TIP3    H249712   0.100   3.641  11.793  0.3081  0.7026  1.5583
 9433TIP3   OH249713   2.810   5.258  17.195 -0.2236 -0.1491 -0.1896
 9433TIP3    H149714   2.764   5.188  17.148 -0.7130 -0.5013  0.8009
 9433TIP3    H249715   2.841   5.217  17.275  1.0677  0.3134 -0.4199
 9434TIP3   OH249716   2.081   3.052   1.387 -0.5509  0.9677 -0.0820
 9434TIP3    H149717   2.111   3.003   1.311  1.8994  3.2222 -0.6728
 9434TIP3    H249718   2.040   3.131   1.351 -1.8512  0.8040  0.9263
 9435TIP3   OH249719   5.702   2.000  15.253 -0.8374 -0.1040  0.0807
 9435TIP3    H149720   5.729   1.909  15.269 -0.1955 -0.1538 -1.1653
 9435TIP3    H249721   5.783   2.045  15.229 -1.6072  0.0379 -2.4911
 9436TIP3   OH249722   1.334   6.308  16.692 -0.1730  0.5731  0.5814
 9436TIP3    H149723   1.319   6.216  16.672 -0.3623  0.4836  1.1460
 9436TIP3    H249724   1.378   6.308  16.777  0.6317  0.9617  0.1776
 9437TIP3   OH249725   0.597   4.933   3.704 -0.4518 -0.0139  0.2005
 9437TIP3    H149726   0.682   4.975   3.708 -0.8673  0.7951  1.2897
 9437TIP3    H249727   0.605   4.866   3.637  1.1301 -0.1590  0.5089
 9438TIP3   OH249728   1.238   0.705  13.783 -0.3023 -0.0002 -0.5735
 9438TIP3    H149729   1.191   0.724  13.864  0.1043 -0.5728 -0.1979
 9438TIP3    H249730   1.282   0.787  13.762  0.4094 -0.1263  0.3424
 9439TIP3   OH249731   0.434   6.578   3.342 -0.1519  0.3149 -0.7886
 9439TIP3    H149732   0.511   6.631   3.364 -0.3499  1.0849 -1.8915
 9439TIP3    H249733   0.460   6.489   3.363  0.4725  0.7429  0.3561
 9440TIP3   OH249734   1.096   3.764  16.547 -0.4211 -0.5892  0.0852
 9440TIP3    H149735   1.116   3.858  16.554 -0.5379 -0.5374 -0.2456
 9440TIP3    H249736   1.066   3.753  16.457 -2.9922 -0.4595  0.8634
 9441TIP3   OH249737   0.049   1.432   4.406  0.2399  0.3840  0.0414
 9441TIP3    H149738   0.003   1.483   4.473 -1.7375  1.7109 -2.1272
 9441TIP3    H249739   0.130   1.404   4.447 -0.9995  0.8598  3.0295
 9442TIP3   OH249740   5.480   6.634   1.131  0.0735  0.2062  0.3175
 9442TIP3    H149741   5.566   6.593   1.144  0.3398  0.4780 -0.5397
 9442TIP3    H249742   5.499   6.728   1.121 -0.2025  0.1329 -1.0154
 9443TIP3   OH249743   2.632   4.040   0.429  0.6385  0.1232  0.6169
 9443TIP3    H149744   2.666   4.051   0.518 -0.0210  1.1811  0.7625
 9443TIP3    H249745   2.702   3.998   0.381  0.8449 -0.8703  1.7475
 9444TIP3   OH249746   6.628   4.077   4.017  0.3362  0.1077  0.0403
 9444TIP3    H149747   6.550   4.066   3.964 -0.1996 -0.2342  0.8792
 9444TIP3    H249748   6.696   4.104   3.955 -0.6481  1.2862 -0.5662
 9445TIP3   OH249749   5.287   3.651   0.846  0.2470  0.1301  0.1870
 9445TIP3    H149750   5.247   3.688   0.925 -0.0329 -0.9866  0.5788
 9445TIP3    H249751   5.217   3.599   0.806  0.9191 -0.7976  0.1833
 9446TIP3   OH249752   2.060   0.928   5.472  0.4947  0.0730 -0.4399
 9446TIP3    H149753   1.985   0.918   5.531 -0.6961  2.6143 -1.3911
 9446TIP3    H249754   2.130   0.960   5.528 -1.2107  4.6267 -0.4542
 9447TIP3   OH249755   4.836   1.196   2.049  0.0532 -0.0600 -0.6542
 9447TIP3    H149756   4.889   1.118   2.062  0.7909 -0.1391 -3.5975
 9447TIP3    H249757   4.746   1.165   2.057  0.3389 -0.6074  0.8856
 9448TIP3   OH249758   3.879   2.491   4.779 -0.4238 -0.3791  0.1240
 9448TIP3    H149759   3.834   2.490   4.694 -0.9744 -2.7539  0.3768
 9448TIP3    H249760   3.857   2.576   4.817 -0.0291  0.8251 -2.1422
 9449TIP3   OH249761   1.787   6.415  11.650 -0.7857  0.2201  0.3896
 9449TIP3    H149762   1.856   6.449  11.593 -1.6804  0.8195 -0.3655
 9449TIP3    H249763   1.802   6.457  11.734  2.2464 -2.7421  1.5525
 9450TIP3   OH249764   4.552   1.123  17.017  0.5769  0.2899 -0.0997
 9450TIP3    H149765   4.581   1.048  17.068 -0.8641  0.1390  0.5297
 9450TIP3    H249766   4.630   1.149  16.967  1.6162 -0.4284  1.0921
 9451TIP3   OH249767   2.957   5.341  13.128 -0.6340 -0.6199  0.2145
 9451TIP3    H149768   2.960   5.419  13.073  2.4832 -0.1892  0.7875
 9451TIP3    H249769   2.938   5.269  13.068 -0.9112  0.2670 -0.7752
 9452TIP3   OH249770   2.692   2.087  15.079 -0.2887  0.9527  0.1976
 9452TIP3    H149771   2.644   2.113  15.001  0.3204 -0.1434 -0.5798
 9452TIP3    H249772   2.675   2.156  15.142 -2.1326  1.0433 -0.3469
 9453TIP3   OH249773   0.024   4.416   0.052 -0.2707 -0.1010 -0.1743
 9453TIP3    H149774   0.080   4.493   0.042  0.7694 -0.8069  0.0509
 9453TIP3    H249775  -0.012   4.401  -0.035  2.3971 -1.4666 -1.1630
 9454TIP3   OH249776   1.990   0.134   3.581  0.1878  0.5465 -0.1152
 9454TIP3    H149777   1.904   0.092   3.576  0.1183  0.7538 -0.8152
 9454TIP3    H249778   1.972   0.227   3.565  0.6077  0.5029 -0.8996
 9455TIP3   OH249779   4.905   5.300  12.348 -0.3650  0.0958 -0.1262
 9455TIP3    H149780   4.902   5.378  12.403  0.8806  0.5707 -0.7117
 9455TIP3    H249781   4.854   5.235  12.397  1.6179  0.1380  2.1505
 9456TIP3   OH249782   5.125   4.470  12.295 -0.0851 -0.2900  0.3669
 9456TIP3    H149783   5.047   4.420  12.272  0.3681 -0.6714 -0.3980
 9456TIP3    H249784   5.117   4.552  12.247  0.2850 -0.5937 -0.2258
 9457TIP3   OH249785   6.027   2.374   4.836  0.2723 -0.2944 -0.0693
 9457TIP3    H149786   5.952   2.319   4.857  1.7799 -1.7645  1.9051
 9457TIP3    H249787   6.038   2.430   4.913 -0.4399  1.9811 -1.5110
 9458TIP3   OH249788   6.667   4.714  16.126 -0.4970 -0.1303  0.3515
 9458TIP3    H149789   6.578   4.680  16.119 -0.8854  0.9337 -0.0594
 9458TIP3    H249790   6.666   4.795  16.074  1.0074 -0.6745 -0.5724
 9459TIP3   OH249791   0.003   3.631   0.370 -0.4511  0.3363  0.6187
 9459TIP3    H149792  -0.015   3.700   0.434  1.6243  0.9686  0.5782
 9459TIP3    H249793   0.022   3.554   0.423  0.0469  0.5379  0.7329
 9460TIP3   OH249794   4.649   1.962  15.848  0.2135  0.0271  0.0886
 9460TIP3    H149795   4.616   2.001  15.929 -0.7151  1.5559 -0.9825
 9460TIP3    H249796   4.656   1.869  15.868  0.2106  0.3926  1.9894
 9461TIP3   OH249797   3.538   3.867  15.464  0.1375 -0.2234  0.3720
 9461TIP3    H149798   3.471   3.903  15.406  1.4692  0.1239 -1.0117
 9461TIP3    H249799   3.604   3.936  15.471  1.3296 -1.2880  0.0419
 9462TIP3   OH249800   3.715   1.057   4.989 -0.0257 -0.0741 -0.4084
 9462TIP3    H149801   3.787   1.003   4.959  0.0648  0.3821 -1.0204
 9462TIP3    H249802   3.721   1.137   4.937 -1.8181 -0.5923 -1.5041
 9463TIP3   OH249803   1.069   1.602   1.788 -0.2521 -0.3028  0.4193
 9463TIP3    H149804   0.995   1.598   1.727 -0.2150 -0.9482  0.4115
 9463TIP3    H249805   1.130   1.536   1.756  1.2109  1.5354 -0.7070
 9464TIP3   OH249806   4.469   3.397  11.606  0.3625  0.7742 -0.0962
 9464TIP3    H149807   4.553   3.439  11.626 -0.1853  0.7035  2.8599
 9464TIP3    H249808   4.409   3.429  11.674 -1.6149 -0.3727 -1.1858
 9465TIP3   OH249809   6.526   3.643  12.199  0.6703 -0.3623  0.0726
 9465TIP3    H149810   6.518   3.648  12.294 -0.3406 -1.6510  0.0756
 9465TIP3    H249811   6.524   3.550  12.179  3.7083 -0.3138 -1.0293
 9466TIP3   OH249812   2.137   6.505   0.261  0.1609 -0.4979  0.0336
 9466TIP3    H149813   2.136   6.582   0.203 -0.5970 -1.1651 -0.8869
 9466TIP3    H249814   2.062   6.453   0.232  0.2614 -1.2587  1.0924
 9467TIP3   OH249815   6.491   3.420  12.455  0.7459 -0.2832  0.5455
 9467TIP3    H149816   6.425   3.440  12.522 -0.5232  3.4727 -1.5254
 9467TIP3    H249817   6.440   3.401  12.376  2.1632 -0.0353 -0.4634
 9468TIP3   OH249818   4.488   3.131   2.022 -0.1511 -0.0303  0.4826
 9468TIP3    H149819   4.410   3.150   2.074 -0.5217 -1.7161  0.6067
 9468TIP3    H249820   4.459   3.137   1.931 -0.6349 -1.3144  0.5307
 9469TIP3   OH249821   2.141   3.487   1.539 -0.5019  0.0919 -0.1531
 9469TIP3    H149822   2.084   3.490   1.463 -0.6512  0.5579 -0.0297
 9469TIP3    H249823   2.087   3.520   1.611 -0.0822  0.5626 -0.0418
 9470TIP3   OH249824   1.420   3.259  12.098 -0.4016 -0.1821  0.2642
 9470TIP3    H149825   1.354   3.321  12.068 -0.1049  0.0246  0.0330
 9470TIP3    H249826   1.433   3.200  12.024 -0.7636 -0.5907  0.5207
 9471TIP3   OH249827   5.040   4.029  16.369 -0.0230  0.0219 -0.2215
 9471TIP3    H149828   5.129   4.010  16.340  1.4641  2.4401  2.2765
 9471TIP3    H249829   5.008   4.095  16.307  0.1867 -0.3175 -0.6970
 9472TIP3   OH249830   4.484   4.997  11.033 -0.0038 -0.1057  0.3557
 9472TIP3    H149831   4.553   5.053  10.996 -1.2855  0.8053 -0.7285
 9472TIP3    H249832   4.461   4.936  10.963  0.0917 -0.8034  0.9156
 9473TIP3   OH249833   3.030   1.066  14.855 -0.1007  0.2733 -0.1259
 9473TIP3    H149834   3.118   1.030  14.866 -0.2023  0.2859  0.8018
 9473TIP3    H249835   3.042   1.160  14.848 -0.1749  0.4671  1.9586
 9474TIP3   OH249836   5.140   5.368  14.823 -0.2691  0.8586  0.1724
 9474TIP3    H149837   5.056   5.349  14.865 -0.2518 -0.5838 -0.3857
 9474TIP3    H249838   5.176   5.282  14.803 -0.2142  1.4484 -2.6460
 9475TIP3   OH249839   0.755   2.634  13.341  0.0841  0.6211 -0.7870
 9475TIP3    H149840   0.768   2.557  13.397  0.7624  0.1173 -1.6270
 9475TIP3    H249841   0.839   2.680  13.344  0.5689 -0.1071 -2.4213
 9476TIP3   OH249842   5.566   2.708   3.156  0.3090  0.2254 -0.0806
 9476TIP3    H149843   5.473   2.685   3.158  0.4112 -0.2612 -0.6758
 9476TIP3    H249844   5.596   2.679   3.070  0.6177  1.9232 -0.5702
 9477TIP3   OH249845   0.817   1.184   6.212  0.0265  0.2304  0.5954
 9477TIP3    H149846   0.757   1.113   6.191  0.1129  0.8007 -1.8318
 9477TIP3    H249847   0.760   1.261   6.219  0.2507  0.4161  0.3615
 9478TIP3   OH249848   4.678   0.080  11.817 -0.3800 -0.1960 -0.1341
 9478TIP3    H149849   4.714   0.142  11.880  0.3682  1.3602 -1.9942
 9478TIP3    H249850   4.699  -0.006  11.854  0.6112  0.6464  1.3959
 9479TIP3   OH249851   5.479   3.368   2.299 -0.5590  0.0178 -0.4032
 9479TIP3    H149852   5.455   3.407   2.383 -1.8236 -1.5047 -0.0006
 9479TIP3    H249853   5.573   3.354   2.305 -0.4803  0.7809  0.3761
 9480TIP3   OH249854   1.842   6.196  13.894 -0.1208 -0.1119  0.0919
 9480TIP3    H149855   1.765   6.185  13.838 -0.1282  2.1161 -0.3924
 9480TIP3    H249856   1.917   6.186  13.836 -0.0961  0.2649  0.0557
 9481TIP3   OH249857   3.448   5.067   4.522 -0.3142  0.0404  0.5545
 9481TIP3    H149858   3.444   5.116   4.440  2.9607 -1.6183 -0.8016
 9481TIP3    H249859   3.426   4.977   4.498 -1.8389 -0.0457  2.0818
 9482TIP3   OH249860   4.002   6.597   3.534 -0.0005  0.0739 -0.6398
 9482TIP3    H149861   4.093   6.607   3.562 -0.5512 -0.9935  1.8601
 9482TIP3    H249862   3.991   6.502   3.525 -1.3446  0.0123  1.1323
 9483TIP3   OH249863   6.204   2.473  15.257  0.9379  0.0794  0.1017
 9483TIP3    H149864   6.145   2.413  15.302  0.1561  1.0589  0.4260
 9483TIP3    H249865   6.185   2.559  15.295  1.2156  0.7228 -1.1344
 9484TIP3   OH249866   4.738   6.258   5.711  0.3563  0.6472  0.1346
 9484TIP3    H149867   4.649   6.278   5.739 -0.2403  0.1239 -1.3086
 9484TIP3    H249868   4.775   6.344   5.688 -0.3461  0.7062 -0.8380
 9485TIP3   OH249869   3.607   5.687   4.495  0.4662  0.0690 -0.3472
 9485TIP3    H149870   3.594   5.778   4.523  0.4609  0.1622 -0.6513
 9485TIP3    H249871   3.537   5.672   4.431 -0.2277 -0.5013  0.5103
 9486TIP3   OH249872   4.834   6.185  15.521  0.4244  0.0033  0.2012
 9486TIP3    H149873   4.747   6.204  15.555 -0.1933  0.6203 -1.6131
 9486TIP3    H249874   4.821   6.112  15.461  1.1254  0.2097 -0.2136
 9487TIP3   OH249875   1.508   0.686  15.405  0.1086 -0.1087  0.1222
 9487TIP3    H149876   1.549   0.638  15.477 -0.5334 -0.1853  0.4449
 9487TIP3    H249877   1.580   0.732  15.363  0.4719  0.0936  0.9433
 9488TIP3   OH249878   0.369   6.336   5.796 -0.1470 -0.4544  0.1954
 9488TIP3    H149879   0.362   6.281   5.874 -0.6690  0.5743  0.9001
 9488TIP3    H249880   0.415   6.414   5.825  1.1174 -0.7405 -0.9350
 9489TIP3   OH249881   0.643   4.941   5.350 -0.3459 -0.0887 -0.8602
 9489TIP3    H149882   0.709   4.873   5.360 -1.3990 -0.7901  3.0972
 9489TIP3    H249883   0.685   5.021   5.382 -0.7475 -0.0422 -0.4507
 9490TIP3   OH249884   5.910   4.610  14.700  0.3669 -0.5764  0.2051
 9490TIP3    H149885   5.892   4.692  14.747 -1.2543 -1.4208  1.1474
 9490TIP3    H249886   5.931   4.547  14.769  0.9759 -1.1193 -0.4607
 9491TIP3   OH249887   6.724   5.287  16.500 -0.2390  0.7107 -0.2025
 9491TIP3    H149888   6.779   5.219  16.536  2.1200  3.8505  2.7851
 9491TIP3    H249889   6.663   5.310  16.570 -0.5896  2.0375 -0.8871
 9492TIP3   OH249890   2.037   4.576   6.748 -0.5432 -0.2479  0.3973
 9492TIP3    H149891   1.976   4.517   6.792  0.7650 -1.6054  0.4729
 9492TIP3    H249892   1.987   4.613   6.674 -1.7284 -0.5435  1.0371
 9493TIP3   OH249893   4.337   5.175  12.800  0.2782 -0.1240 -0.0546
 9493TIP3    H149894   4.319   5.246  12.862  0.4050  0.5717 -0.7867
 9493TIP3    H249895   4.400   5.214  12.738 -1.0894 -0.2361 -1.5827
 9494TIP3   OH249896   4.334   2.010  12.787  0.2463 -1.1201 -0.7319
 9494TIP3    H149897   4.402   1.943  12.793 -0.6487 -1.9863  0.0008
 9494TIP3    H249898   4.292   1.995  12.703  0.5061 -1.0245 -0.8791
 9495TIP3   OH249899   2.890   1.605  14.875 -0.1248  0.2150  0.7305
 9495TIP3    H149900   2.864   1.678  14.931 -1.4285  1.8077 -1.7699
 9495TIP3    H249901   2.942   1.645  14.805 -0.2992 -1.3348 -0.3352
 9496TIP3   OH249902   3.953   4.566   4.163  0.0843  0.7981 -0.3880
 9496TIP3    H149903   3.897   4.640   4.138  0.6105  1.5200  0.4942
 9496TIP3    H249904   3.916   4.491   4.117 -1.6464  1.2462  0.1935
 9497TIP3   OH249905   1.514   4.485   0.690 -0.2641 -0.6238 -0.3046
 9497TIP3    H149906   1.440   4.526   0.645 -1.2609 -1.5386  0.4826
 9497TIP3    H249907   1.526   4.538   0.769 -1.3921 -1.6290  0.5846
 9498TIP3   OH249908   3.841   5.556  15.973  0.0807 -0.3192  0.1146
 9498TIP3    H149909   3.869   5.522  15.888  0.0437  1.4342 -0.6591
 9498TIP3    H249910   3.801   5.482  16.017  1.7146 -1.7486 -0.6508
 9499TIP3   OH249911   2.664   1.670   6.188  0.1688  0.6723 -0.3723
 9499TIP3    H149912   2.581   1.623   6.179  0.2413  0.5097 -0.1878
 9499TIP3    H249913   2.731   1.603   6.175  0.2889  1.0568 -1.9743
 9500TIP3   OH249914   4.208   2.241   5.214 -0.0257 -0.6062  0.0033
 9500TIP3    H149915   4.231   2.168   5.272  0.0603 -0.4746  0.1347
 9500TIP3    H249916   4.255   2.316   5.251 -2.4571  0.2080  1.6524
 9501TIP3   OH249917   3.468   1.939  15.209 -0.1061 -0.4230 -0.3883
 9501TIP3    H149918   3.532   1.951  15.279  1.0675 -0.4016 -1.4277
 9501TIP3    H249919   3.385   1.968  15.247  1.0792  3.1008 -0.0940
 9502TIP3   OH249920   0.704   3.947  17.202 -0.1279 -0.1810 -0.0166
 9502TIP3    H149921   0.618   3.943  17.244 -0.3305  0.2708 -0.3774
 9502TIP3    H249922   0.753   4.009  17.255 -0.1976 -0.0410 -0.1153
 9503TIP3   OH249923   0.052   2.205  13.864  0.6677  0.2863  0.4170
 9503TIP3    H149924  -0.000   2.263  13.920  0.3343 -0.9307  1.4093
 9503TIP3    H249925   0.024   2.227  13.775 -1.6354 -0.3419  0.8970
 9504TIP3   OH249926   1.525   6.124   5.672  0.1106 -0.3565 -0.0964
 9504TIP3    H149927   1.430   6.116   5.677 -0.0131  1.0875  0.1082
 9504TIP3    H249928   1.546   6.196   5.731  1.3289 -0.5522 -0.2676
 9505TIP3   OH249929   6.267   1.515   6.091  0.2536  0.3489 -0.6981
 9505TIP3    H149930   6.227   1.602   6.082 -1.7998 -0.4021  0.3519
 9505TIP3    H249931   6.329   1.525   6.163  1.3213  1.3319 -1.7201
 9506TIP3   OH249932   3.546   6.121  15.135 -0.4036  0.2223 -0.7594
 9506TIP3    H149933   3.451   6.112  15.129 -0.3123 -0.1459 -1.7979
 9506TIP3    H249934   3.564   6.209  15.104 -0.3337 -0.0347 -1.4652
 9507TIP3   OH249935   5.871   1.263   4.083  0.0582 -0.1484  0.5775
 9507TIP3    H149936   5.949   1.231   4.036 -0.7172 -1.0791 -0.1334
 9507TIP3    H249937   5.847   1.343   4.038  0.3765 -0.0676  0.5493
 9508TIP3   OH249938   2.893   2.472   4.993 -0.2013 -0.0456 -0.5582
 9508TIP3    H149939   2.820   2.470   5.055  0.3047  0.7893  0.0999
 9508TIP3    H249940   2.954   2.406   5.027 -0.8104 -1.0368 -1.3417
 9509TIP3   OH249941   3.546   0.313   1.384 -0.0537 -0.5035  0.3102
 9509TIP3    H149942   3.473   0.259   1.354  0.3204 -1.0228  0.3204
 9509TIP3    H249943   3.624   0.261   1.366  0.4800  0.8415 -1.4808
 9510TIP3   OH249944   6.338   3.278  16.668  0.5556 -0.0221 -0.0344
 9510TIP3    H149945   6.326   3.217  16.741  0.4470 -1.3893 -1.1451
 9510TIP3    H249946   6.249   3.295  16.636  0.6718 -0.2337 -0.4722
 9511TIP3   OH249947   3.167   6.021   2.669  0.2895 -0.2304  0.6133
 9511TIP3    H149948   3.105   5.974   2.724 -0.6600  1.9947  1.6054
 9511TIP3    H249949   3.151   5.988   2.580 -1.1284 -0.9187  1.1044
 9512TIP3   OH249950   4.775   4.862   0.434  0.2728 -0.7591  0.4292
 9512TIP3    H149951   4.865   4.864   0.466  0.0078  0.8897  1.1958
 9512TIP3    H249952   4.736   4.785   0.474  0.6952 -0.1784  2.0353
 9513TIP3   OH249953   5.474   2.912  14.380  0.1756 -0.4345  0.1107
 9513TIP3    H149954   5.568   2.903  14.395 -0.0469 -2.3873  0.6002
 9513TIP3    H249955   5.459   2.874  14.294 -0.3100 -1.3962  0.5936
 9514TIP3   OH249956   2.666   3.076  16.517 -0.5927  0.0859  0.1689
 9514TIP3    H149957   2.741   3.092  16.460  0.5720 -0.9052  1.3619
 9514TIP3    H249958   2.644   3.162  16.553  1.0734  0.1553  1.1003
 9515TIP3   OH249959   5.665   6.670   4.745  0.6624 -0.0073 -0.5260
 9515TIP3    H149960   5.755   6.684   4.774  0.6297 -1.2331  0.2142
 9515TIP3    H249961   5.673   6.637   4.656  1.1352 -2.8148  0.4626
 9516TIP3   OH249962   4.687   2.875   0.257  0.9177 -0.4384  0.7662
 9516TIP3    H149963   4.609   2.929   0.272  0.7012  0.7034 -3.2719
 9516TIP3    H249964   4.658   2.786   0.275 -1.7319 -0.1535 -1.5005
 9517TIP3   OH249965   2.104   5.574  15.483  0.8555  0.3287  0.3578
 9517TIP3    H149966   2.132   5.484  15.497  1.7223  0.6365  0.6919
 9517TIP3    H249967   2.132   5.594  15.394 -2.3588 -0.7922 -1.0591
 9518TIP3   OH249968   1.602   4.394  12.633 -0.3855 -0.1433 -0.3766
 9518TIP3    H149969   1.622   4.487  12.645 -0.3149 -0.2991  0.8199
 9518TIP3    H249970   1.541   4.373  12.703 -1.7857 -0.6157 -1.6700
 9519TIP3   OH249971   3.891   5.314   3.876  0.4768 -0.1481  0.3915
 9519TIP3    H149972   3.890   5.310   3.780 -3.0122 -1.3873  0.3433
 9519TIP3    H249973   3.891   5.407   3.897 -0.8130  0.1743 -0.9026
 9520TIP3   OH249974   4.029   0.538   0.221  0.1557  0.3186 -0.3016
 9520TIP3    H149975   3.968   0.577   0.158 -1.2505  0.4443  1.0764
 9520TIP3    H249976   4.015   0.587   0.302  0.3572 -1.2225  0.7123
 9521TIP3   OH249977   1.440   3.186   3.133  0.2549  0.4627  0.3312
 9521TIP3    H149978   1.474   3.130   3.202  0.5560  0.6048  0.2995
 9521TIP3    H249979   1.378   3.244   3.177  0.4632  0.5670  0.4854
 9522TIP3   OH249980   0.187   2.601  11.658  0.0966 -0.3542 -0.0727
 9522TIP3    H149981   0.191   2.541  11.732 -0.3430  0.2997  0.4999
 9522TIP3    H249982   0.229   2.554  11.586 -0.4697 -1.4496  0.2835
 9523TIP3   OH249983   1.181   0.396   0.183 -0.4343 -0.3815  0.1754
 9523TIP3    H149984   1.183   0.404   0.088 -0.5130  0.2893  0.2264
 9523TIP3    H249985   1.093   0.365   0.204 -1.4987  2.4299  0.2246
 9524TIP3   OH249986   3.037   0.046   0.874 -0.0533 -0.3084  0.1233
 9524TIP3    H149987   3.113   0.057   0.930  0.2918  0.8997 -0.5445
 9524TIP3    H249988   3.048  -0.041   0.834  0.6865 -0.3664  0.4495
 9525TIP3   OH249989   3.954   5.323   6.489 -0.3174 -0.2598 -0.3045
 9525TIP3    H149990   3.993   5.399   6.532 -1.2225  0.0559 -0.0275
 9525TIP3    H249991   4.011   5.250   6.514  1.0160  0.4342 -1.2167
 9526TIP3   OH249992   1.974   5.887  16.931 -0.2026 -0.1568  0.7469
 9526TIP3    H149993   1.938   5.963  16.886 -0.9894  1.4102  3.7849
 9526TIP3    H249994   1.899   5.847  16.974  0.5683 -1.3649  1.0351
 9527TIP3   OH249995   5.035   1.649  12.497 -0.0704 -0.9718  0.8313
 9527TIP3    H149996   4.958   1.599  12.469 -0.3373  0.5892 -1.5583
 9527TIP3    H249997   5.108   1.608  12.452 -0.1473  0.0405 -0.2837
 9528TIP3   OH249998   4.392   3.238  15.599 -0.0685  0.1508  0.1896
 9528TIP3    H149999   4.422   3.205  15.684  0.9208  1.5798  0.4412
 9528TIP3    H250000   4.352   3.322  15.619  3.0193  2.0933 -0.9932
 9529TIP3   OH250001   2.286   1.314   4.930  0.0208  0.4916 -0.6651
 9529TIP3    H150002   2.328   1.241   4.976  2.6175  2.0276 -0.4322
 9529TIP3    H250003   2.317   1.305   4.839  0.8783  1.6260 -0.4989
 9530TIP3   OH250004   0.664   4.303   0.359  0.2412 -0.0661  0.3253
 9530TIP3    H150005   0.708   4.374   0.312  3.0321 -1.1665  1.0529
 9530TIP3    H250006   0.712   4.225   0.335 -2.9395 -1.8846 -0.6956
 9531TIP3   OH250007   1.306   2.851   0.789  0.3244 -0.4667 -0.1781
 9531TIP3    H150008   1.376   2.804   0.834 -0.8929 -1.6514  0.5549
 9531TIP3    H250009   1.294   2.931   0.840 -0.5260 -1.4439  1.2320
 9532TIP3   OH250010   5.820   2.476  15.757 -0.2676  0.2237 -0.1461
 9532TIP3    H150011   5.844   2.439  15.841 -0.7153  0.7375  0.2137
 9532TIP3    H250012   5.826   2.571  15.769 -1.9850  0.3801 -0.1588
 9533TIP3   OH250013   5.641   5.537   4.259 -0.1130  1.5149  0.1186
 9533TIP3    H150014   5.717   5.480   4.257 -0.0011  1.5989  1.3363
 9533TIP3    H250015   5.590   5.507   4.334 -1.8769  0.7245 -1.3246
 9534TIP3   OH250016   5.816   5.491  11.715  0.3197  0.2511  0.0806
 9534TIP3    H150017   5.750   5.423  11.701  0.0301  0.8874 -2.0513
 9534TIP3    H250018   5.887   5.447  11.761  0.1196 -1.5070 -1.1811
 9535TIP3   OH250019   0.508   2.137   5.533 -0.3030  0.0138  0.0653
 9535TIP3    H150020   0.542   2.109   5.448 -0.1155 -0.7935  0.3905
 9535TIP3    H250021   0.573   2.198   5.566  0.4579 -0.9033  0.3259
 9536TIP3   OH250022   2.400   6.461  12.816  0.3634  0.5105  0.3582
 9536TIP3    H150023   2.352   6.379  12.813  1.1762 -0.0548  1.7896
 9536TIP3    H250024   2.332   6.529  12.818 -0.3113 -0.0474 -1.4489
 9537TIP3   OH250025   2.720   0.476  13.291 -0.5943 -0.2143  0.0986
 9537TIP3    H150026   2.729   0.570  13.305 -0.8264 -0.3638  1.4163
 9537TIP3    H250027   2.629   0.463  13.266 -0.7477 -0.1601  0.6255
 9538TIP3   OH250028   0.310   0.693   6.202  0.1161  0.1381  0.1648
 9538TIP3    H150029   0.347   0.737   6.278 -0.2861 -0.6658  0.8375
 9538TIP3    H250030   0.297   0.764   6.138  2.7713  0.4524 -0.1365
 9539TIP3   OH250031   4.142   6.509  10.704 -0.7710  0.2217  0.1223
 9539TIP3    H150032   4.092   6.508  10.623  1.9856 -2.2433 -1.7820
 9539TIP3    H250033   4.100   6.443  10.759 -2.2140  1.3883  0.4886
 9540TIP3   OH250034   5.046   6.722   5.720  0.5396  0.2484  0.2209
 9540TIP3    H150035   5.142   6.721   5.712  0.4748  1.2077 -0.9413
 9540TIP3    H250036   5.015   6.750   5.634 -0.7133  1.4737  1.0187
 9541TIP3   OH250037   6.732   3.555  15.186 -0.0390 -0.2604  0.5522
 9541TIP3    H150038   6.706   3.464  15.197 -1.8947  0.3021  1.3069
 9541TIP3    H250039   6.755   3.562  15.094 -1.3264 -1.1808  0.1265
 9542TIP3   OH250040   1.889   3.888   6.010  0.5106  0.6265 -0.4208
 9542TIP3    H150041   1.848   3.849   6.088  2.1501 -0.0525  0.1494
 9542TIP3    H250042   1.887   3.819   5.945  1.1728  0.4199 -0.2282
 9543TIP3   OH250043   3.061   0.754   0.238 -0.1734  0.3808  0.0454
 9543TIP3    H150044   3.022   0.738   0.324 -0.6287  0.8313 -0.0726
 9543TIP3    H250045   2.991   0.732   0.176  0.6650 -1.5484 -0.2970
 9544TIP3   OH250046   5.611   0.967  12.762 -0.9132 -0.3596  0.0524
 9544TIP3    H150047   5.692   0.951  12.809 -0.6059 -1.6872 -0.8611
 9544TIP3    H250048   5.543   0.965  12.830 -0.1420  1.6699  0.9532
 9545TIP3   OH250049   6.668   0.203   3.451  0.8486 -0.4555  0.1473
 9545TIP3    H150050   6.595   0.207   3.390 -0.9558  0.2613  2.2323
 9545TIP3    H250051   6.675   0.110   3.474  0.8627 -0.5792 -0.3458
 9546TIP3   OH250052   3.749   5.105  14.912 -0.0132  0.2210  0.2347
 9546TIP3    H150053   3.687   5.089  14.841  1.3641 -1.4314 -0.6796
 9546TIP3    H250054   3.829   5.133  14.868  0.1349  1.5993  1.3369
 9547TIP3   OH250055   6.565   2.345  15.504  0.1508  0.6947  0.1990
 9547TIP3    H150056   6.558   2.333  15.409 -0.1333 -1.5189  0.4587
 9547TIP3    H250057   6.481   2.382  15.530 -0.1783  0.2753 -0.2609
 9548TIP3   OH250058   2.211   1.168   2.427  0.0276  0.2799 -0.0448
 9548TIP3    H150059   2.157   1.236   2.387  1.0591  1.0087 -0.2414
 9548TIP3    H250060   2.173   1.155   2.514 -0.8636  0.2876 -0.4234
 9549TIP3   OH250061   5.505   3.414  14.328 -0.4181 -0.0729 -0.1976
 9549TIP3    H150062   5.574   3.433  14.265 -0.5045  0.5814 -0.0974
 9549TIP3    H250063   5.472   3.328  14.302 -1.2085  0.6494 -1.7213
 9550TIP3   OH250064   0.516   1.895  15.532 -0.1480  0.3088  0.1151
 9550TIP3    H150065   0.422   1.914  15.534 -0.1445  0.2785  1.4082
 9550TIP3    H250066   0.542   1.911  15.441 -1.3250  0.7097 -0.1650
 9551TIP3   OH250067   5.199   1.291   4.292 -0.0176  0.1541  0.2242
 9551TIP3    H150068   5.212   1.369   4.238  0.3452 -0.7472 -1.0253
 9551TIP3    H250069   5.113   1.258   4.267  0.0429 -0.1320  0.3913
 9552TIP3   OH250070   2.624   3.143   1.448  0.8471  0.1949  0.2024
 9552TIP3    H150071   2.532   3.123   1.462  0.2510  1.3690 -1.7286
 9552TIP3    H250072   2.671   3.084   1.508 -1.0561 -1.5981  0.0204
 9553TIP3   OH250073   2.720   2.605  12.181  0.0434 -0.3978 -0.3404
 9553TIP3    H150074   2.733   2.684  12.234  0.5819 -0.8599  0.2451
 9553TIP3    H250075   2.797   2.602  12.124 -0.0499 -0.4195 -0.4645
 9554TIP3   OH250076   2.623   1.393  14.125 -0.6141 -0.2661  0.1856
 9554TIP3    H150077   2.555   1.419  14.187  0.7584 -1.9084  2.5286
 9554TIP3    H250078   2.627   1.298  14.132 -0.1474 -0.4832 -2.2134
 9555TIP3   OH250079   6.368   5.092   3.517 -0.1354 -0.1141  0.5562
 9555TIP3    H150080   6.428   5.062   3.586  0.7331 -0.1176 -0.1856
 9555TIP3    H250081   6.388   5.037   3.442 -0.9495  0.0151  0.2352
 9556TIP3   OH250082   2.645   2.715  11.290 -0.1627  0.3891  0.2486
 9556TIP3    H150083   2.676   2.630  11.321 -0.1218  1.0643  2.1704
 9556TIP3    H250084   2.551   2.712  11.302 -0.1295  0.7197  0.6057
 9557TIP3   OH250085   0.843   1.303   5.456 -0.0084 -0.7025  0.3560
 9557TIP3    H150086   0.822   1.233   5.394  2.3957 -0.9719 -0.2574
 9557TIP3    H250087   0.934   1.286   5.480  1.1370  2.9217 -0.8278
 9558TIP3   OH250088   0.839   2.252   5.779  0.0747  0.2860  0.0481
 9558TIP3    H150089   0.766   2.277   5.835  0.6726  0.7494  0.6334
 9558TIP3    H250090   0.825   2.159   5.760 -1.5426  0.7388 -1.1892
 9559TIP3   OH250091   0.050   5.567   1.793  0.0537  0.3813  0.6528
 9559TIP3    H150092   0.005   5.567   1.877  1.7279 -0.3972  1.6158
 9559TIP3    H250093   0.128   5.621   1.807  1.7103 -1.7708  0.4802
 9560TIP3   OH250094   4.130   1.732   4.455  0.3742 -0.0647 -1.0859
 9560TIP3    H150095   4.130   1.820   4.493  3.0531 -0.4820  0.1140
 9560TIP3    H250096   4.194   1.683   4.507  0.3965 -2.1792 -2.9332
 9561TIP3   OH250097   0.450   4.329  12.296 -0.1688  0.2521 -0.6866
 9561TIP3    H150098   0.406   4.411  12.273 -1.7908 -0.4268 -0.1221
 9561TIP3    H250099   0.445   4.277  12.216 -0.0397  0.3103 -0.7334
 9562TIP3   OH250100   2.848   4.090   5.965 -0.0654 -0.2353  0.1574
 9562TIP3    H150101   2.855   4.174   6.011 -0.6043 -0.4538  0.6542
 9562TIP3    H250102   2.905   4.099   5.889 -0.6847  0.8485 -0.2011
 9563TIP3   OH250103   4.530   4.964  15.003  0.2069 -0.0636 -0.5821
 9563TIP3    H150104   4.496   4.877  14.985  1.5701 -0.7469 -0.0419
 9563TIP3    H250105   4.466   5.024  14.965 -1.4774 -1.2563  0.2415
 9564TIP3   OH250106   5.858   4.389   5.655 -0.0338  0.0246 -0.4851
 9564TIP3    H150107   5.910   4.412   5.579  1.2749 -0.3538  0.2573
 9564TIP3    H250108   5.781   4.345   5.619 -0.0054  0.8734 -1.6250
 9565TIP3   OH250109   3.462   5.286   1.305 -0.1970 -0.2809 -0.1011
 9565TIP3    H150110   3.411   5.268   1.226  1.3224  0.9059 -1.4357
 9565TIP3    H250111   3.401   5.331   1.363 -1.7743 -2.5054  0.0966
 9566TIP3   OH250112   2.866   1.890  13.189 -0.3475 -0.0906 -0.2506
 9566TIP3    H150113   2.948   1.912  13.145  0.1072 -1.6669 -0.2382
 9566TIP3    H250114   2.855   1.959  13.254  0.7059  0.4315 -0.6014
 9567TIP3   OH250115   2.649   2.391  12.325 -0.1055  0.2791 -0.1448
 9567TIP3    H150116   2.720   2.332  12.301  0.1300  0.5062 -0.0104
 9567TIP3    H250117   2.673   2.475  12.286 -0.8259  0.1025 -1.0038
 9568TIP3   OH250118   1.102   3.021  11.294  0.3556  0.0123  0.4430
 9568TIP3    H150119   1.061   2.992  11.212 -1.3386  2.3063  0.3691
 9568TIP3    H250120   1.110   2.941  11.347 -1.4909 -1.0270 -0.7429
 9569TIP3   OH250121   1.749   0.152  15.217 -0.1339 -0.0343  0.2677
 9569TIP3    H150122   1.821   0.206  15.186 -0.7844  0.0871 -1.1040
 9569TIP3    H250123   1.722   0.102  15.140 -0.0857 -1.7207  1.2882
 9570TIP3   OH250124   2.065   2.480   0.171  0.3604  0.3833  0.0612
 9570TIP3    H150125   2.022   2.549   0.221  0.5586  0.5951 -0.0577
 9570TIP3    H250126   1.994   2.421   0.145  0.4458 -0.6047  1.9422
 9571TIP3   OH250127   5.596   3.301  13.022  0.4902  0.5120 -0.5625
 9571TIP3    H150128   5.666   3.301  13.088 -0.5843  0.3287  0.5981
 9571TIP3    H250129   5.615   3.225  12.967  0.9072  0.1595  0.0590
 9572TIP3   OH250130   6.264   5.163  15.450  0.1227  0.1442 -0.2116
 9572TIP3    H150131   6.319   5.176  15.527 -1.0636 -2.0324  1.1318
 9572TIP3    H250132   6.286   5.075  15.419 -0.1668  0.5811 -1.7649
 9573TIP3   OH250133   1.713   0.422  15.348 -0.5469 -0.9945  0.0182
 9573TIP3    H150134   1.716   0.328  15.334  0.8781 -0.7266 -1.7232
 9573TIP3    H250135   1.730   0.460  15.262 -1.1777  0.8711  0.6643
 9574TIP3   OH250136   6.143   6.702  16.590  0.7084 -0.1893 -0.3640
 9574TIP3    H150137   6.214   6.665  16.538  1.5503  0.4163  0.3308
 9574TIP3    H250138   6.096   6.626  16.624  0.2664 -0.5945 -1.8117
 9575TIP3   OH250139   2.713   1.195  12.758  0.2152  0.0293  0.0008
 9575TIP3    H150140   2.665   1.129  12.807  1.0374 -1.3765 -1.0081
 9575TIP3    H250141   2.705   1.167  12.666  1.9229  0.4176 -0.2979
 9576TIP3   OH250142   4.686   5.433   2.359  0.0959  0.0181  0.6086
 9576TIP3    H150143   4.749   5.361   2.351 -1.3955 -1.1254 -3.4961
 9576TIP3    H250144   4.721   5.502   2.302 -0.5527  0.8805  1.2314
 9577TIP3   OH250145   5.330   1.340  14.690  0.5172  0.4693 -0.3447
 9577TIP3    H150146   5.292   1.256  14.715 -0.0927  0.2719 -1.8096
 9577TIP3    H250147   5.323   1.342  14.594  0.8545  2.0254 -0.3671
 9578TIP3   OH250148   5.724   3.702  11.607 -0.1530  0.3420 -0.4662
 9578TIP3    H150149   5.656   3.768  11.596 -0.3965  0.3950  1.1870
 9578TIP3    H250150   5.804   3.752  11.624 -0.1089  0.2271 -0.3367
 9579TIP3   OH250151   2.479   2.376   2.969 -0.2368  0.4583 -0.3866
 9579TIP3    H150152   2.484   2.338   3.057  2.3577  1.2030 -0.1053
 9579TIP3    H250153   2.513   2.465   2.980  0.4793  0.4545 -2.1885
 9580TIP3   OH250154   6.194   5.030   6.001 -0.1809 -0.1620  0.5030
 9580TIP3    H150155   6.186   4.935   5.997  0.5982 -0.1924 -1.6963
 9580TIP3    H250156   6.104   5.061   6.012 -0.8058 -1.1089 -1.4566
 9581TIP3   OH250157   5.166   1.787   4.031  0.0006 -0.3611 -0.1883
 9581TIP3    H150158   5.152   1.878   4.007  0.9106 -0.5424 -1.4822
 9581TIP3    H250159   5.259   1.783   4.057 -0.2313 -0.7722  0.6365
 9582TIP3   OH250160   0.842   6.365   0.314  0.2163 -0.3029  0.4246
 9582TIP3    H150161   0.857   6.409   0.231 -1.8582  0.6970  0.5335
 9582TIP3    H250162   0.771   6.303   0.297  1.4438 -1.8984  0.8806
 9583TIP3   OH250163   1.865   4.649   5.985 -0.1880  0.3627  0.0428
 9583TIP3    H150164   1.847   4.600   6.064  0.5257  2.5657  1.6840
 9583TIP3    H250165   1.876   4.583   5.917 -2.5547 -1.5179  1.3654
 9584TIP3   OH250166   0.691   2.056  15.038 -0.2467  0.4249  0.2310
 9584TIP3    H150167   0.720   2.112  14.966  0.4434 -0.1667  0.0335
 9584TIP3    H250168   0.715   1.967  15.011  0.0554  0.1929  1.1935
 9585TIP3   OH250169   4.062   1.699  12.032  0.2843  0.2448 -0.0434
 9585TIP3    H150170   3.985   1.644  12.016 -0.8058  1.8926 -0.8166
 9585TIP3    H250171   4.135   1.638  12.039 -0.8736 -1.2846 -0.7922
 9586TIP3   OH250172   3.310   6.078   0.717  0.4314  0.4847  0.2994
 9586TIP3    H150173   3.282   5.999   0.764  1.5858  0.2659  0.6529
 9586TIP3    H250174   3.230   6.130   0.709 -0.0618 -0.0682  1.3540
 9587TIP3   OH250175   1.479   1.957  12.045 -0.0930 -0.2600  0.1659
 9587TIP3    H150176   1.427   1.999  11.977  0.9363 -0.6240 -0.8825
 9587TIP3    H250177   1.568   1.989  12.030 -0.2141  1.8426  3.0731
 9588TIP3   OH250178   1.515   3.755  12.502  0.1551 -0.0011  0.2976
 9588TIP3    H150179   1.491   3.811  12.576  0.0184 -1.4914  1.4150
 9588TIP3    H250180   1.473   3.671  12.521  0.7322 -0.6275 -1.1099
 9589TIP3   OH250181   6.078   0.445   2.383  0.0869  0.0532 -0.0819
 9589TIP3    H150182   5.995   0.406   2.410  0.7354 -0.5046  1.2133
 9589TIP3    H250183   6.083   0.528   2.431  0.7273 -0.3994  0.6623
 9590TIP3   OH250184   2.538   2.065  12.339 -0.0055 -0.7071 -0.2343
 9590TIP3    H150185   2.550   2.160  12.347  1.1812 -0.8065 -0.6625
 9590TIP3    H250186   2.614   2.027  12.383 -1.0173 -1.5069  0.8974
 9591TIP3   OH250187   1.075   3.414   2.090  0.3313 -0.4608  0.3855
 9591TIP3    H150188   1.097   3.321   2.083 -1.1416 -0.8118 -0.0346
 9591TIP3    H250189   0.999   3.424   2.033 -0.6469  0.6092  1.8071
 9592TIP3   OH250190   4.638   0.606   4.711 -0.4144  0.2581 -0.3810
 9592TIP3    H150191   4.560   0.641   4.754 -0.3378  0.8583 -0.7094
 9592TIP3    H250192   4.604   0.551   4.640 -0.5408 -0.8525  0.5135
 9593TIP3   OH250193   1.799   2.086  10.501  0.0285 -0.6333 -0.1966
 9593TIP3    H150194   1.868   2.034  10.462  0.5650 -0.1656  0.1199
 9593TIP3    H250195   1.776   2.040  10.582 -1.1097 -1.6237 -1.0387
 9594TIP3   OH250196   3.045   3.146   1.224 -0.1607 -0.2887 -0.4428
 9594TIP3    H150197   3.063   3.104   1.308 -1.1939  1.0378  0.4962
 9594TIP3    H250198   3.063   3.239   1.240 -2.5698  0.3415 -0.9706
 9595TIP3   OH250199   4.246   4.202   2.401 -0.9155  0.0349 -0.0377
 9595TIP3    H150200   4.197   4.163   2.329 -2.6734  0.7163  0.7172
 9595TIP3    H250201   4.178   4.240   2.458  0.5590  2.1834  0.4007
 9596TIP3   OH250202   0.908   2.087  16.838 -0.1265  0.1442  0.6173
 9596TIP3    H150203   0.895   2.005  16.790 -1.3124 -0.2487  1.5595
 9596TIP3    H250204   0.820   2.122  16.850  0.3724  1.6294  0.1577
 9597TIP3   OH250205   5.412   4.816  16.124 -0.0841 -0.7258 -0.1521
 9597TIP3    H150206   5.344   4.855  16.069 -0.1990  0.7174  0.9344
 9597TIP3    H250207   5.368   4.796  16.206  0.7618  0.1529  0.5370
 9598TIP3   OH250208   1.761   5.584   3.535 -0.1506  0.2415  0.1963
 9598TIP3    H150209   1.686   5.626   3.576 -0.4040 -0.3615  0.3687
 9598TIP3    H250210   1.741   5.490   3.540  0.1859  0.1222 -0.5826
 9599TIP3   OH250211   1.997   6.351  14.680 -0.1047  0.2254  0.2191
 9599TIP3    H150212   1.966   6.425  14.732  1.1549  0.4829  0.6275
 9599TIP3    H250213   2.090   6.344  14.701 -0.1776 -1.4442  0.1619
 9600TIP3   OH250214   3.357   1.031  12.817 -0.4332  0.3274 -0.2219
 9600TIP3    H150215   3.352   0.936  12.814  1.3998  0.2001 -0.6791
 9600TIP3    H250216   3.427   1.049  12.880 -0.0264  1.3254 -0.9338
 9601TIP3   OH250217   4.180   1.411  13.738  0.3122 -0.4525  0.8602
 9601TIP3    H150218   4.267   1.372  13.748  0.0572 -1.2198  0.2000
 9601TIP3    H250219   4.142   1.366  13.663  0.5910  2.1512 -0.9688
 9602TIP3   OH250220   1.741   4.326   5.533  0.0157  1.0207  0.1754
 9602TIP3    H150221   1.752   4.237   5.501 -0.4105  1.2884 -0.7408
 9602TIP3    H250222   1.675   4.319   5.602 -0.7527  0.7659 -0.5752
 9603TIP3   OH250223   2.097   2.581  10.405  0.1501 -0.6242 -0.1665
 9603TIP3    H150224   2.011   2.553  10.437 -0.5687  0.4980 -1.0164
 9603TIP3    H250225   2.124   2.650  10.465  0.3650 -0.8326 -0.0230
 9604TIP3   OH250226   3.178   2.396   3.525 -0.2874 -0.1002 -0.0351
 9604TIP3    H150227   3.264   2.437   3.518 -0.1104 -0.4605  0.0135
 9604TIP3    H250228   3.195   2.302   3.524 -0.5579 -0.1868  1.3321
 9605TIP3   OH250229   5.675   2.401   3.720 -0.8388 -0.0845 -0.0744
 9605TIP3    H150230   5.736   2.333   3.691 -1.3188 -1.0711  1.1505
 9605TIP3    H250231   5.616   2.415   3.645  0.3572  0.2927 -0.9665
 9606TIP3   OH250232   0.246   1.460   3.281  0.0794  0.4769 -0.2377
 9606TIP3    H150233   0.247   1.503   3.367 -0.6144 -0.5739  0.3222
 9606TIP3    H250234   0.207   1.525   3.222 -0.1798  0.9213  0.4123
 9607TIP3   OH250235   4.900   0.524   1.691 -0.0405 -0.0550  0.4696
 9607TIP3    H150236   4.952   0.603   1.706 -1.5158  1.0903 -0.2926
 9607TIP3    H250237   4.963   0.460   1.660  0.9357  1.2835 -0.4043
 9608TIP3   OH250238   2.231   1.622  16.984 -0.0950  0.0174 -0.0471
 9608TIP3    H150239   2.285   1.544  16.993 -1.0743 -0.8107 -1.1147
 9608TIP3    H250240   2.285   1.682  16.931  0.1556 -0.4161 -0.2825
 9609TIP3   OH250241   2.902   6.714   0.040  0.0355 -0.2827 -0.2339
 9609TIP3    H150242   2.864   6.781  -0.017  3.2338  1.2920 -0.7104
 9609TIP3    H250243   2.932   6.761   0.117 -1.0238 -1.8511  1.2253
 9610TIP3   OH250244   2.697   4.547   4.728 -0.2104 -0.0673  0.5578
 9610TIP3    H150245   2.721   4.461   4.763 -0.8866  0.1988  1.7106
 9610TIP3    H250246   2.748   4.609   4.781 -1.1646  0.3356  1.0241
 9611TIP3   OH250247   3.664   5.153   0.984  0.1849 -0.0766 -0.4300
 9611TIP3    H150248   3.684   5.121   1.072  1.2983 -0.7729 -0.9079
 9611TIP3    H250249   3.743   5.132   0.932 -0.0204  1.2671 -1.3446
 9612TIP3   OH250250   5.066   0.719   1.611 -0.3632 -0.1222 -0.1964
 9612TIP3    H150251   4.982   0.757   1.584 -0.6736 -0.2718  0.5342
 9612TIP3    H250252   5.074   0.742   1.704 -0.2967 -1.3675  0.1228
 9613TIP3   OH250253   6.254   0.711   6.774 -0.6113 -0.1729  0.1631
 9613TIP3    H150254   6.207   0.678   6.697 -0.8427  0.4336  0.0372
 9613TIP3    H250255   6.239   0.806   6.772  0.4371  0.0053  0.2464
 9614TIP3   OH250256   2.792   0.477  10.771 -0.0894 -0.0274  0.7020
 9614TIP3    H150257   2.828   0.550  10.821  0.9530 -0.2731  0.3424
 9614TIP3    H250258   2.741   0.518  10.701  0.5466  0.3649  0.4603
 9615TIP3   OH250259   1.455   0.285  15.169  0.0365 -0.0271  0.0961
 9615TIP3    H150260   1.430   0.360  15.223 -0.9247  0.6367 -1.2202
 9615TIP3    H250261   1.538   0.255  15.207 -2.3074 -2.0316  4.3678
 9616TIP3   OH250262   1.105   0.534  14.806 -0.0680 -0.0082  0.3584
 9616TIP3    H150263   1.040   0.480  14.852 -1.3681  1.7807  0.7400
 9616TIP3    H250264   1.155   0.576  14.875 -0.1139  0.4857  0.0966
 9617TIP3   OH250265   1.374   6.236  15.636  0.4987  0.3542  0.2739
 9617TIP3    H150266   1.440   6.289  15.592  0.2004  1.6383  1.3074
 9617TIP3    H250267   1.424   6.179  15.694  0.7557  0.5360  0.2323
 9618TIP3   OH250268   0.784   6.744  13.421  0.2177 -0.2574  0.5998
 9618TIP3    H150269   0.826   6.715  13.502  1.8035 -0.4314 -0.2351
 9618TIP3    H250270   0.744   6.664  13.385 -0.3663 -0.2080  1.1158
 9619TIP3   OH250271   3.362   5.355   2.395  0.2873 -0.1352  0.3256
 9619TIP3    H150272   3.455   5.343   2.415  0.3379 -1.6580 -0.6908
 9619TIP3    H250273   3.332   5.267   2.371 -1.7920  0.0090  2.1069
 9620TIP3   OH250274   6.256   5.233  14.607 -0.0520 -0.1929  0.5096
 9620TIP3    H150275   6.291   5.156  14.561  0.7142 -0.2691  1.1907
 9620TIP3    H250276   6.333   5.286  14.625 -0.5926  0.8035 -0.0568
 9621TIP3   OH250277   3.275   6.601  13.408 -0.1352 -0.0978  0.1819
 9621TIP3    H150278   3.201   6.625  13.463 -1.3571 -0.1398 -1.3967
 9621TIP3    H250279   3.269   6.658  13.331  1.0005 -0.6497 -0.3459
 9622TIP3   OH250280   5.105   4.072   2.272  0.2679 -0.3461  0.0065
 9622TIP3    H150281   5.117   4.167   2.281  0.6634 -0.2767 -1.1957
 9622TIP3    H250282   5.175   4.034   2.325  0.5009  0.0381 -0.0247
 9623TIP3   OH250283   0.781   1.882  11.053 -0.5293 -0.0385 -0.1902
 9623TIP3    H150284   0.721   1.929  10.995 -2.0028 -1.1818  0.3345
 9623TIP3    H250285   0.839   1.834  10.994 -1.5417 -0.6140 -0.7517
 9624TIP3   OH250286   1.893   1.990   4.864 -0.1833  0.0185  0.5789
 9624TIP3    H150287   1.809   1.993   4.819  0.4593 -0.4621 -0.7068
 9624TIP3    H250288   1.955   2.030   4.803  1.0557 -2.3292  0.1729
 9625TIP3   OH250289   3.313   3.903   4.067 -0.0459 -0.1314 -0.0746
 9625TIP3    H150290   3.391   3.851   4.089  0.1483 -0.0809 -0.6287
 9625TIP3    H250291   3.341   3.959   3.995  0.2270  1.9317  1.5504
 9626TIP3   OH250292   2.048   0.590   2.567  0.1744  0.1544 -0.0692
 9626TIP3    H150293   2.035   0.683   2.549  0.8892  0.2774  0.0468
 9626TIP3    H250294   2.107   0.588   2.642  2.1233 -0.3985 -1.5314
 9627TIP3   OH250295   0.309   4.558  16.140  0.5738 -0.5239  0.3801
 9627TIP3    H150296   0.319   4.468  16.172  0.1600 -0.6515  0.1548
 9627TIP3    H250297   0.373   4.608  16.190  0.9122 -0.9694  0.4053
 9628TIP3   OH250298   5.858   3.466  11.567  0.0087  0.0019 -0.0135
 9628TIP3    H150299   5.797   3.541  11.568  0.5508  0.5842 -2.9429
 9628TIP3    H250300   5.925   3.490  11.503  0.9220 -2.4796 -0.1008
 9629TIP3   OH250301   0.094   2.624   0.184  0.3580 -0.2360  0.0025
 9629TIP3    H150302   0.077   2.536   0.150  0.4215  0.5391 -2.2265
 9629TIP3    H250303   0.122   2.610   0.274  0.0174 -2.4661 -0.1807
 9630TIP3   OH250304   2.395   4.768   4.935 -0.8263  0.2591 -0.0280
 9630TIP3    H150305   2.379   4.839   4.996  1.7698  0.5581  0.4184
 9630TIP3    H250306   2.408   4.691   4.990 -0.7343  0.0562 -0.3271
 9631TIP3   OH250307   5.494   2.379   2.911  0.1006  0.3108 -0.0814
 9631TIP3    H150308   5.476   2.321   2.838 -0.5058 -2.0233  1.8082
 9631TIP3    H250309   5.415   2.433   2.920 -0.2780 -0.1901 -0.4187
 9632TIP3   OH250310   3.895   5.303  13.396  0.1451 -0.1434 -0.1667
 9632TIP3    H150311   3.876   5.236  13.331 -0.7330  1.0555 -1.1890
 9632TIP3    H250312   3.810   5.321  13.436  0.7227 -1.1478  1.6629
 9633TIP3   OH250313   5.690   3.712  16.006  0.3451 -0.0420 -0.0015
 9633TIP3    H150314   5.606   3.676  15.975  0.4063 -1.1322  1.0238
 9633TIP3    H250315   5.669   3.750  16.091  1.2197 -2.0175  1.1601
 9634TIP3   OH250316   3.238   1.798   1.051 -0.3682 -0.1289 -0.0305
 9634TIP3    H150317   3.322   1.843   1.051 -1.7542  2.6555  0.8745
 9634TIP3    H250318   3.227   1.766   1.140 -0.7892  0.5723  0.1715
 9635TIP3   OH250319   3.286   4.935   0.646 -0.1943 -0.1740  0.0724
 9635TIP3    H150320   3.264   4.853   0.691  0.2882  0.8519  2.3009
 9635TIP3    H250321   3.377   4.952   0.670 -0.9815  2.2151  1.7507
 9636TIP3   OH250322   6.646   0.366   4.070 -0.1741  0.5308 -1.1572
 9636TIP3    H150323   6.573   0.377   4.009 -0.9508 -0.2041 -0.3926
 9636TIP3    H250324   6.710   0.432   4.043 -0.0619 -0.3937 -3.3504
 9637TIP3   OH250325   4.551   5.228  13.244 -0.4953  0.1198 -0.2937
 9637TIP3    H150326   4.482   5.271  13.293 -0.5344 -0.3693  0.0832
 9637TIP3    H250327   4.522   5.232  13.153 -2.1828 -2.1352  0.0591
 9638TIP3   OH250328   4.700   1.995  11.782  0.2877  0.1058 -0.2947
 9638TIP3    H150329   4.779   2.049  11.787  2.1462 -2.3797 -0.3445
 9638TIP3    H250330   4.701   1.960  11.693 -1.7308  1.1436 -0.7717
 9639TIP3   OH250331   4.551   2.626   1.296  0.5336 -0.0044  0.0095
 9639TIP3    H150332   4.578   2.687   1.365  0.1487  0.3155 -0.1246
 9639TIP3    H250333   4.563   2.675   1.214  0.0495 -0.0398 -0.0869
 9640TIP3   OH250334   3.303   4.661  15.432  0.5393  0.4397 -0.6908
 9640TIP3    H150335   3.211   4.662  15.456  0.5826  3.9493 -0.1611
 9640TIP3    H250336   3.303   4.667  15.336  0.3117 -1.2224 -0.8340
 9641TIP3   OH250337   6.207   3.024  11.371  0.2381  0.2255 -0.1161
 9641TIP3    H150338   6.158   3.020  11.289  0.7966  0.2547 -0.4519
 9641TIP3    H250339   6.142   3.052  11.436  0.4847  3.4762 -1.1297
 9642TIP3   OH250340   2.424   1.236   3.745 -0.0086  0.3295  0.7175
 9642TIP3    H150341   2.419   1.156   3.798 -0.2236 -0.7910 -0.9201
 9642TIP3    H250342   2.332   1.259   3.729  0.0397 -0.2465 -0.4513
 9643TIP3   OH250343   4.396   4.741  14.981  0.1688 -0.1127  0.1736
 9643TIP3    H150344   4.445   4.664  15.011 -1.8739 -2.6071 -2.4543
 9643TIP3    H250345   4.309   4.731  15.019 -0.8520 -0.4865 -2.1479
 9644TIP3   OH250346   4.524   5.325  11.080  0.5146  0.8790  0.1483
 9644TIP3    H150347   4.538   5.273  11.001  0.2495  0.3212  0.4618
 9644TIP3    H250348   4.445   5.376  11.062 -0.2689 -0.1787  0.5172
 9645TIP3   OH250349   4.100   1.513   0.300 -0.6045 -0.3699 -0.7161
 9645TIP3    H150350   4.104   1.601   0.261  0.6379  0.2504  0.7244
 9645TIP3    H250351   4.007   1.495   0.310 -0.8714  1.2164 -0.1384
 9646TIP3   OH250352   2.284   3.869   4.867 -0.2115 -0.8814 -0.1886
 9646TIP3    H150353   2.364   3.918   4.888  0.1754 -1.2219 -0.8185
 9646TIP3    H250354   2.309   3.815   4.792 -1.5919  0.4371 -1.6506
 9647TIP3   OH250355   5.728   2.440  14.103 -0.3662  0.3811 -0.1053
 9647TIP3    H150356   5.721   2.516  14.044 -0.3532  0.3375 -0.1635
 9647TIP3    H250357   5.821   2.434  14.123 -0.4922  1.0273  0.7537
 9648TIP3   OH250358   0.278   2.591   0.653 -0.7749  0.4081  0.3593
 9648TIP3    H150359   0.243   2.597   0.742  3.0798 -2.0158  2.2745
 9648TIP3    H250360   0.373   2.599   0.663 -0.1736  0.4893 -3.6448
 9649TIP3   OH250361   6.540   0.502  17.039 -0.4489 -0.2264  0.8374
 9649TIP3    H150362   6.613   0.510  17.100  0.2440 -0.9415  0.1168
 9649TIP3    H250363   6.578   0.464  16.960 -1.1315  1.5711 -0.4130
 9650TIP3   OH250364   5.923   5.748  12.840 -0.3629  0.1494  0.1064
 9650TIP3    H150365   5.933   5.838  12.810 -2.1757  0.1697 -0.5313
 9650TIP3    H250366   5.894   5.700  12.762 -0.3487 -0.7860  0.6688
 9651TIP3   OH250367   2.317   1.170  11.959 -0.4157 -0.0833  0.8547
 9651TIP3    H150368   2.396   1.210  11.922 -0.2562 -0.6627  0.5731
 9651TIP3    H250369   2.291   1.104  11.895 -0.4893 -0.6655  1.4744
 9652TIP3   OH250370   3.309   4.568  14.977  0.0538 -0.5436 -0.0351
 9652TIP3    H150371   3.278   4.534  14.893 -0.1010 -0.1922 -0.1216
 9652TIP3    H250372   3.401   4.590  14.961 -0.1970  0.3128 -0.3582
 9653TIP3   OH250373   6.272   1.891  11.843 -0.0978  0.0968  0.1621
 9653TIP3    H150374   6.357   1.850  11.858 -0.2365 -0.1647  0.2345
 9653TIP3    H250375   6.277   1.924  11.753 -0.7182 -1.8715 -0.6316
 9654TIP3   OH250376   5.950   2.794  11.767  0.5971 -0.1203 -0.4591
 9654TIP3    H150377   5.994   2.782  11.683 -0.7333 -1.5387 -1.0099
 9654TIP3    H250378   5.859   2.810  11.744  0.2536 -0.3071  0.7076
 9655TIP3   OH250379   2.238   0.289  16.756  0.2499 -0.1153  0.3620
 9655TIP3    H150380   2.177   0.347  16.803 -0.1302 -1.5660  1.7621
 9655TIP3    H250381   2.239   0.209  16.808  1.5710 -0.9907 -0.9394
 9656TIP3   OH250382   2.622   1.696   2.137 -0.2520 -0.2255  0.1391
 9656TIP3    H150383   2.558   1.764   2.160 -0.1603 -0.0069 -0.2426
 9656TIP3    H250384   2.636   1.707   2.043 -0.0632 -0.6281  0.1181
 9657TIP3   OH250385   3.026   0.656  16.646 -0.3025  0.1100  0.7071
 9657TIP3    H150386   3.070   0.586  16.695  0.3860 -0.7142 -0.9818
 9657TIP3    H250387   3.025   0.624  16.556 -0.2127  2.1856 -0.0745
 9658TIP3   OH250388   4.261   0.623  10.509 -0.4494  0.0251  0.3163
 9658TIP3    H150389   4.236   0.533  10.534 -1.0226  0.3737  1.0501
 9658TIP3    H250390   4.337   0.612  10.452 -3.8510 -1.2860 -4.5067
 9659TIP3   OH250391   3.500   0.150  13.057 -0.3113 -0.0961 -0.0243
 9659TIP3    H150392   3.517   0.172  12.965 -1.4455  0.0870 -0.2102
 9659TIP3    H250393   3.511   0.233  13.103 -2.1165  0.3747 -0.3658
 9660TIP3   OH250394   0.903   6.139   6.323  0.0675 -0.3075 -0.1964
 9660TIP3    H150395   0.926   6.232   6.317  0.0601 -0.3537 -1.0093
 9660TIP3    H250396   0.974   6.100   6.373  0.8414 -0.1243 -1.1351
 9661TIP3   OH250397   3.489   0.844   3.195 -0.0420 -0.2940  0.0163
 9661TIP3    H150398   3.445   0.911   3.143 -0.6190 -1.2150 -0.7199
 9661TIP3    H250399   3.481   0.764   3.143  3.0712 -0.4112 -0.4604
 9662TIP3   OH250400   0.248   0.092  15.436 -0.2756  0.3181 -0.1327
 9662TIP3    H150401   0.213   0.166  15.387  1.3787  1.5259  0.4235
 9662TIP3    H250402   0.322   0.061  15.382  0.6833  0.7679  0.9007
 9663TIP3   OH250403   5.348   4.136   5.174 -0.0433  0.7251 -0.1655
 9663TIP3    H150404   5.265   4.090   5.185 -0.0936  0.7567 -0.4186
 9663TIP3    H250405   5.329   4.206   5.111  0.2132  0.6324 -0.3468
 9664TIP3   OH250406   4.004   5.860  16.028 -0.0445  0.3072 -0.0313
 9664TIP3    H150407   4.038   5.874  15.940 -0.1797 -1.0122 -0.3093
 9664TIP3    H250408   4.080   5.867  16.085  0.4481 -0.9667 -0.4866
 9665TIP3   OH250409   1.852   2.948   5.080 -0.3053  0.1834  0.6783
 9665TIP3    H150410   1.793   3.009   5.125 -0.4201 -0.2171  1.0784
 9665TIP3    H250411   1.934   2.954   5.129 -0.1785  0.3392  0.4497
 9666TIP3   OH250412   4.421   1.649  12.385  0.1609 -0.3835  0.0107
 9666TIP3    H150413   4.453   1.641  12.474 -0.0240  2.3163  0.4058
 9666TIP3    H250414   4.326   1.645  12.393  0.0444  1.7015  0.2635
 9667TIP3   OH250415   3.896   2.873   5.388 -0.0159  0.3108 -0.0121
 9667TIP3    H150416   3.905   2.921   5.470  0.4937  1.7799 -0.8849
 9667TIP3    H250417   3.804   2.849   5.383  0.3171 -1.7080  1.9722
 9668TIP3   OH250418   4.535   1.873  12.889 -0.2544 -0.3124  0.1926
 9668TIP3    H150419   4.545   1.847  12.981 -1.1728  1.0023  0.6857
 9668TIP3    H250420   4.624   1.868  12.853  0.1078 -0.8822  1.1261
 9669TIP3   OH250421   5.756   0.359  16.477  0.4702  0.2762 -0.0074
 9669TIP3    H150422   5.818   0.432  16.476  1.7167 -0.7457 -0.1893
 9669TIP3    H250423   5.757   0.324  16.388 -1.8533  1.4065 -0.5336
 9670TIP3   OH250424   2.068   2.452   1.921  0.0551 -0.0246 -0.8449
 9670TIP3    H150425   2.048   2.460   1.828  1.9606  2.9737 -1.1398
 9670TIP3    H250426   2.161   2.428   1.924  0.2642  0.8343  0.2507
 9671TIP3   OH250427   0.122   6.442  16.899 -0.0421  0.7252  0.1480
 9671TIP3    H150428   0.112   6.361  16.949 -0.9737  0.5815 -0.2680
 9671TIP3    H250429   0.178   6.497  16.955 -0.1059  0.1276  0.8137
 9672TIP3   OH250430   0.071   1.392   6.586 -0.4703 -0.2052  0.3411
 9672TIP3    H150431   0.142   1.331   6.567 -0.1537 -0.2114  1.4720
 9672TIP3    H250432   0.090   1.470   6.533  0.4974 -0.1299  0.7912
 9673TIP3   OH250433   5.035   3.328   4.829 -0.5406  0.5017 -0.5353
 9673TIP3    H150434   5.098   3.349   4.898 -1.4809 -0.4130  0.6613
 9673TIP3    H250435   5.085   3.281   4.763 -0.0325 -0.5376  0.5663
 9674TIP3   OH250436   5.321   5.587   2.826 -0.1802 -0.5715 -0.2353
 9674TIP3    H150437   5.351   5.598   2.736  0.7207 -1.3768 -0.0625
 9674TIP3    H250438   5.235   5.546   2.819 -1.6919  2.4482 -0.7709
 9675TIP3   OH250439   0.400   5.223   5.850  0.4207 -0.5811  0.0719
 9675TIP3    H150440   0.414   5.314   5.878 -0.8158 -0.1987 -0.4850
 9675TIP3    H250441   0.426   5.223   5.758 -2.6440  0.0854 -0.9184
 9676TIP3   OH250442   6.232   2.808   4.667  0.1668  0.1052 -0.2406
 9676TIP3    H150443   6.156   2.786   4.721 -0.1314 -0.2194 -0.7813
 9676TIP3    H250444   6.219   2.899   4.643 -1.4554 -0.6436 -2.5143
 9677TIP3   OH250445   4.366   3.443  15.882 -0.5778 -0.1216  0.5824
 9677TIP3    H150446   4.408   3.381  15.941 -1.7152 -0.3100  1.2380
 9677TIP3    H250447   4.437   3.480  15.831  0.5565  0.5808  2.5597
 9678TIP3   OH250448   2.440   0.453   1.898 -0.8270  0.0848 -0.1127
 9678TIP3    H150449   2.410   0.363   1.882  0.2952 -0.1469 -1.0317
 9678TIP3    H250450   2.466   0.454   1.990  0.2059 -0.8703 -0.3682
 9679TIP3   OH250451   6.408   0.975   5.463  0.3334 -0.2526 -0.6090
 9679TIP3    H150452   6.401   0.882   5.444 -0.1717 -0.2996 -0.1940
 9679TIP3    H250453   6.500   0.988   5.485  0.3332 -0.7149 -0.3238
 9680TIP3   OH250454   0.907   1.631  17.120  0.4664 -0.5235  0.0762
 9680TIP3    H150455   0.886   1.721  17.095 -1.4886 -0.6418  1.1437
 9680TIP3    H250456   0.916   1.634  17.216  0.5249 -1.4479  0.1072
 9681TIP3   OH250457   1.971   0.698  14.449 -0.5916 -0.7281  0.9344
 9681TIP3    H150458   2.025   0.646  14.389  0.8384 -0.4170  1.8976
 9681TIP3    H250459   2.014   0.689  14.534 -0.6651  1.4598  1.2736
 9682TIP3   OH250460   3.309   5.747   3.289 -0.5091 -0.0085  0.2697
 9682TIP3    H150461   3.387   5.735   3.344 -0.0704  1.9082  0.1330
 9682TIP3    H250462   3.269   5.828   3.322 -2.1088 -0.6106 -0.0848
 9683TIP3   OH250463   1.465   0.068  15.571 -0.1833  0.1267 -0.2011
 9683TIP3    H150464   1.447   0.159  15.594  1.2195  0.3232  0.2571
 9683TIP3    H250465   1.408   0.017  15.628  0.5325  0.7011  1.0724
 9684TIP3   OH250466   1.110   1.501  13.899 -0.0761  0.3758 -0.6768
 9684TIP3    H150467   1.083   1.474  13.986  0.9055  0.4811 -0.3282
 9684TIP3    H250468   1.205   1.510  13.904  0.2904 -1.6835 -2.3063
 9685TIP3   OH250469   4.221   2.535  12.968 -0.6175  0.1596  0.3232
 9685TIP3    H150470   4.312   2.565  12.972 -0.0662 -1.5736  2.2428
 9685TIP3    H250471   4.228   2.441  12.953 -2.1568  0.1026 -0.1963
 9686TIP3   OH250472   5.697   4.486  17.055  0.0925 -0.1725  0.1084
 9686TIP3    H150473   5.728   4.396  17.049  0.2704 -0.1047  0.0025
 9686TIP3    H250474   5.673   4.497  17.147  3.0206  0.6302  0.8895
 9687TIP3   OH250475   2.452   1.918  13.963 -0.0550 -0.4107  0.7609
 9687TIP3    H150476   2.389   1.916  13.891  2.5629  2.3808 -1.8726
 9687TIP3    H250477   2.521   1.857  13.937  1.7580  1.8738 -0.1705
 9688TIP3   OH250478   3.264   5.816  16.866  0.4821 -0.1216  0.4144
 9688TIP3    H150479   3.358   5.800  16.858  0.7703  1.2360  0.8118
 9688TIP3    H250480   3.236   5.758  16.936  0.8167 -1.2607 -0.3626
 9689TIP3   OH250481   1.494   2.242  11.348 -0.0838 -0.2574 -0.2564
 9689TIP3    H150482   1.449   2.241  11.263 -1.9020  0.7754  0.6326
 9689TIP3    H250483   1.458   2.319  11.393 -0.7451 -1.9102  2.2454
 9690TIP3   OH250484   2.853   2.362   4.697 -0.3532  0.3464 -0.2625
 9690TIP3    H150485   2.763   2.394   4.684 -0.8590 -0.8885  0.0393
 9690TIP3    H250486   2.883   2.406   4.776 -0.5443  1.0749 -0.5867
 9691TIP3   OH250487   5.891   2.167  15.130 -0.0548 -0.2493 -0.4160
 9691TIP3    H150488   5.985   2.154  15.124 -0.0237  0.6995 -3.5546
 9691TIP3    H250489   5.881   2.237  15.195  1.4971  0.3816 -0.8077
 9692TIP3   OH250490   1.791   1.763  12.022 -0.2834 -0.1344 -0.1723
 9692TIP3    H150491   1.746   1.694  12.071  0.2969 -0.2474  0.2120
 9692TIP3    H250492   1.720   1.817  11.986 -0.7976 -1.6582 -1.5758
 9693TIP3   OH250493   2.034   0.743   3.782 -0.1632  0.1277  0.5445
 9693TIP3    H150494   2.017   0.704   3.868 -0.8638  0.6320  0.6473
 9693TIP3    H250495   2.084   0.822   3.802  1.6800 -0.9280  0.3027
 9694TIP3   OH250496   6.365   6.499   1.283 -0.0914 -0.0540 -0.3908
 9694TIP3    H150497   6.362   6.498   1.378 -1.0246 -1.3316 -0.4082
 9694TIP3    H250498   6.376   6.591   1.260  1.6719  0.1355  0.9684
 9695TIP3   OH250499   3.879   2.977  15.464  0.3482  0.1478 -0.1453
 9695TIP3    H150500   3.876   3.067  15.497  0.9505  0.0849  0.0914
 9695TIP3    H250501   3.898   2.987  15.370  2.3559  0.2417  0.2145
 9696TIP3   OH250502   5.673   5.473   5.529 -0.1884 -0.1776 -0.1527
 9696TIP3    H150503   5.657   5.453   5.436  0.2572 -1.0602 -0.0519
 9696TIP3    H250504   5.696   5.566   5.529  1.7555 -0.5964 -1.2148
 9697TIP3   OH250505   0.567   3.975  14.789  0.4827 -0.0468  0.2661
 9697TIP3    H150506   0.541   4.061  14.756 -1.0639 -0.6662 -0.2252
 9697TIP3    H250507   0.486   3.937  14.822  1.1544 -1.3018  0.5312
 9698TIP3   OH250508   1.714   2.311   1.699 -0.0683  0.3886 -0.0496
 9698TIP3    H150509   1.629   2.326   1.739 -0.0775  0.6896 -0.1793
 9698TIP3    H250510   1.751   2.398   1.687  1.1946  0.1768  1.9761
 9699TIP3   OH250511   1.225   4.351  13.406  0.0375 -0.0449 -0.0924
 9699TIP3    H150512   1.266   4.355  13.320 -0.1074  0.0689 -0.1570
 9699TIP3    H250513   1.188   4.439  13.419 -1.7637 -0.6368 -0.8155
 9700TIP3   OH250514   1.759   5.185  14.153  0.4061  0.2300 -0.4140
 9700TIP3    H150515   1.677   5.204  14.199  0.9292  0.7943  0.3037
 9700TIP3    H250516   1.739   5.204  14.061 -0.1552  0.7440 -0.1951
 9701TIP3   OH250517   5.270   5.304   2.801 -0.1885 -0.0687  0.2927
 9701TIP3    H150518   5.228   5.369   2.744  1.5510  0.5839 -0.2994
 9701TIP3    H250519   5.221   5.310   2.883  0.0944  2.2153  0.3633
 9702TIP3   OH250520   5.786   1.244  15.560 -0.1177 -0.1456 -0.1725
 9702TIP3    H150521   5.766   1.334  15.588 -1.9547  0.1473 -2.1265
 9702TIP3    H250522   5.855   1.215  15.620  0.3276  2.4464  0.7185
 9703TIP3   OH250523   5.226   3.016   2.377  0.9154 -0.1551 -0.0995
 9703TIP3    H150524   5.203   3.037   2.286 -0.5752  1.0760  0.5168
 9703TIP3    H250525   5.208   3.097   2.425 -5.1754 -2.4472  2.4992
 9704TIP3   OH250526   0.503   5.492  15.975 -0.0529 -0.4234 -0.1653
 9704TIP3    H150527   0.507   5.460  16.065 -1.9351  1.5733  0.7219
 9704TIP3    H250528   0.578   5.552  15.968  1.3867 -2.2041 -0.6997
 9705TIP3   OH250529   2.702   2.770  14.571  0.3289 -0.1240  0.3554
 9705TIP3    H150530   2.632   2.716  14.607  0.1151 -1.0286 -1.3628
 9705TIP3    H250531   2.658   2.852  14.547 -0.1747 -0.7036 -0.7588
 9706TIP3   OH250532   2.830   1.461  11.922 -0.2673  0.8633 -0.0156
 9706TIP3    H150533   2.791   1.468  11.834 -0.8981 -2.2583 -0.1087
 9706TIP3    H250534   2.755   1.443  11.979  0.5364 -1.6358  0.3731
 9707TIP3   OH250535   0.218   1.517   1.060  0.2768 -0.2135  0.6662
 9707TIP3    H150536   0.168   1.454   1.008 -1.1894  0.1489  1.5663
 9707TIP3    H250537   0.204   1.601   1.017 -0.0018 -0.0960  0.9736
 9708TIP3   OH250538   3.364   4.539   6.201  0.1995  0.1894 -1.0989
 9708TIP3    H150539   3.336   4.485   6.275 -0.7729 -1.9050 -2.8823
 9708TIP3    H250540   3.457   4.553   6.215 -0.0695  0.4066  0.8160
 9709TIP3   OH250541   5.984   3.755   2.958 -0.5522  0.0341 -0.0233
 9709TIP3    H150542   5.894   3.787   2.966 -0.7479 -0.5237  0.0347
 9709TIP3    H250543   6.004   3.719   3.044 -0.6700 -0.8474 -0.3538
 9710TIP3   OH250544   3.965   3.977   5.485  0.1725 -0.0490  0.2830
 9710TIP3    H150545   4.048   3.948   5.448  0.5991  0.2715  0.9654
 9710TIP3    H250546   3.986   4.000   5.576 -0.2105  2.0187 -0.1013
 9711TIP3   OH250547   4.697   0.721   1.423  0.0095 -0.2264  0.3773
 9711TIP3    H150548   4.755   0.771   1.480  0.6222  0.2573 -0.6478
 9711TIP3    H250549   4.652   0.787   1.371 -0.9035 -0.6389  0.6187
 9712TIP3   OH250550   1.233   3.870  11.115 -0.3693  0.1712  0.0282
 9712TIP3    H150551   1.167   3.819  11.068 -2.3936  2.4378  0.2595
 9712TIP3    H250552   1.311   3.813  11.115 -2.3246 -2.7149 -0.0422
 9713TIP3   OH250553   0.699   3.289   3.018 -0.0893 -0.3289  0.4202
 9713TIP3    H150554   0.627   3.299   2.956  0.2218 -0.7344 -0.0129
 9713TIP3    H250555   0.698   3.196   3.041  2.2409 -1.0430 -2.0083
 9714TIP3   OH250556   6.675   4.602  11.201 -0.0567 -0.4890  0.0914
 9714TIP3    H150557   6.653   4.615  11.108  0.2136 -0.8974 -0.0328
 9714TIP3    H250558   6.590   4.605  11.246 -0.1391  0.2308 -0.1018
 9715TIP3   OH250559   6.453   3.855   1.173  0.2956  0.1174  0.0735
 9715TIP3    H150560   6.481   3.862   1.081  0.1793  0.1096  0.0376
 9715TIP3    H250561   6.373   3.801   1.170 -1.1467  2.1635 -0.1062
 9716TIP3   OH250562   2.096   2.332  13.363 -0.0691 -0.5311  0.5405
 9716TIP3    H150563   2.079   2.240  13.342  2.1307 -1.0456  0.6746
 9716TIP3    H250564   2.091   2.337  13.458 -2.3155  0.0207  0.4355
 9717TIP3   OH250565   5.376   4.610  15.490 -0.1796  0.3090  0.0540
 9717TIP3    H150566   5.394   4.629  15.582 -1.4142  2.8510 -0.1425
 9717TIP3    H250567   5.301   4.666  15.468 -0.6494 -1.0798 -2.1997
 9718TIP3   OH250568   3.706   5.105   5.621  0.7034  0.3336  0.0067
 9718TIP3    H150569   3.771   5.043   5.588  0.6215 -0.6291  1.5510
 9718TIP3    H250570   3.729   5.117   5.713 -1.3038 -0.0926  0.6253
 9719TIP3   OH250571   1.941   5.196   4.904 -1.1098  0.2326 -0.0075
 9719TIP3    H150572   1.919   5.104   4.888  0.3496  0.1708 -1.9774
 9719TIP3    H250573   2.006   5.217   4.838  2.4166  1.3124  3.4401
 9720TIP3   OH250574   1.383   0.737  15.170 -0.5735  0.5638  0.0270
 9720TIP3    H150575   1.421   0.719  15.256  2.0869  2.3342 -0.6621
 9720TIP3    H250576   1.357   0.829  15.174 -0.4931  0.6410 -1.0114
 9721TIP3   OH250577   3.940   0.444  14.989  0.2283 -0.3665  0.2377
 9721TIP3    H150578   3.919   0.496  14.911  0.2147 -0.8039 -0.0562
 9721TIP3    H250579   3.872   0.468  15.052  0.1978 -0.0606  0.0919
 9722TIP3   OH250580   1.511   0.882   4.033 -0.3208 -0.5918  1.0937
 9722TIP3    H150581   1.443   0.947   4.014 -1.6543 -2.4624 -1.0700
 9722TIP3    H250582   1.576   0.893   3.964 -0.5521 -1.5018  0.7087
 9723TIP3   OH250583   0.929   6.682  13.971  1.0987 -0.3836  0.2045
 9723TIP3    H150584   0.836   6.695  13.990  1.3155  0.5395  0.6655
 9723TIP3    H250585   0.935   6.589  13.947  0.2736 -0.7999  1.4755
 9724TIP3   OH250586   4.973   3.095   6.004  0.4191  0.6319  0.3508
 9724TIP3    H150587   5.062   3.093   6.038  0.7263 -0.6439 -0.4853
 9724TIP3    H250588   4.920   3.126   6.077  1.6008  1.9316  0.6996
 9725TIP3   OH250589   5.366   5.937  12.587  0.0785  0.4116  0.2577
 9725TIP3    H150590   5.326   5.904  12.506  2.8571  1.0760 -1.5485
 9725TIP3    H250591   5.331   6.025  12.596 -0.4853  0.2262 -0.0499
 9726TIP3   OH250592   4.990   2.991  13.857 -0.1745  0.3881  0.1051
 9726TIP3    H150593   4.986   3.033  13.771 -0.6273 -0.2112 -0.1733
 9726TIP3    H250594   4.901   2.959  13.872  0.0693 -0.1284  0.4833
 9727TIP3   OH250595   6.116   5.682   0.801  0.2267 -0.1326  0.1682
 9727TIP3    H150596   6.148   5.628   0.873 -1.0108  0.1576  0.9710
 9727TIP3    H250597   6.026   5.705   0.826  0.6470  2.1537 -0.2235
 9728TIP3   OH250598   2.388   6.147  15.095  0.4094  1.1117  0.7005
 9728TIP3    H150599   2.326   6.074  15.096 -0.7174  2.0263  1.7007
 9728TIP3    H250600   2.442   6.133  15.173  1.7342  0.1335 -0.3508
 9729TIP3   OH250601   1.329   4.814  14.629  0.2359 -0.5675  1.0156
 9729TIP3    H150602   1.252   4.805  14.573 -0.8463 -0.2519  2.3891
 9729TIP3    H250603   1.299   4.786  14.715  0.3090  3.5837  2.6469
 9730TIP3   OH250604   5.931   0.864   2.026  0.1538 -0.8339 -0.5275
 9730TIP3    H150605   5.859   0.866   1.964 -1.4423 -0.1873  1.2401
 9730TIP3    H250606   5.929   0.776   2.063 -1.0845 -0.2158  0.9658
 9731TIP3   OH250607   2.336   6.609   1.388  0.1533  0.4699 -0.0669
 9731TIP3    H150608   2.366   6.681   1.333  0.4363  0.0464 -0.4701
 9731TIP3    H250609   2.400   6.539   1.375 -1.5480 -0.8922 -1.8615
 9732TIP3   OH250610   2.477   2.083  16.949 -0.4677 -0.0664  0.1266
 9732TIP3    H150611   2.426   2.050  17.023  0.3060 -0.0813  0.6645
 9732TIP3    H250612   2.414   2.130  16.895 -0.8087  1.1010  1.4939
 9733TIP3   OH250613   1.849   6.633  12.434  0.2167  0.4989  0.1855
 9733TIP3    H150614   1.861   6.555  12.380 -1.0590  0.4173  0.0035
 9733TIP3    H250615   1.878   6.606  12.521 -1.3754 -0.5903  0.4130
 9734TIP3   OH250616   2.941   1.918   5.438 -0.3533  0.3611 -0.0459
 9734TIP3    H150617   2.848   1.910   5.414 -0.0787  1.6660 -1.7668
 9734TIP3    H250618   2.940   1.966   5.522 -1.2448  3.2169 -1.5453
 9735TIP3   OH250619   4.946   2.243  12.754 -0.2523 -0.6047  0.0829
 9735TIP3    H150620   4.943   2.332  12.789 -0.6317 -0.2491 -0.8300
 9735TIP3    H250621   4.876   2.240  12.689  0.5924 -1.1638 -0.8379
 9736TIP3   OH250622   0.498   0.612   4.948 -0.2587  0.2612 -0.2174
 9736TIP3    H150623   0.477   0.703   4.929  2.0889  0.7861 -0.6960
 9736TIP3    H250624   0.578   0.595   4.897 -1.1224 -2.3553 -0.8474
 9737TIP3   OH250625   5.962   1.355   4.620 -0.6334 -0.7480 -0.0733
 9737TIP3    H150626   5.923   1.347   4.532  0.1963  0.0550 -0.5305
 9737TIP3    H250627   6.055   1.339   4.606 -0.6521 -1.8122  0.8741
 9738TIP3   OH250628   4.652   2.522   1.852  0.1632 -0.1184 -0.3000
 9738TIP3    H150629   4.658   2.464   1.775  1.2235 -0.4915  0.0438
 9738TIP3    H250630   4.627   2.464   1.924  1.2447 -0.1795  0.0494
 9739TIP3   OH250631   5.490   4.732  13.077  0.3407 -0.0248  0.4771
 9739TIP3    H150632   5.419   4.795  13.086  0.5398  0.0925  1.3301
 9739TIP3    H250633   5.533   4.756  12.995  1.3091  1.8919  1.4750
 9740TIP3   OH250634   0.309   2.761   5.009  0.3673 -0.4793 -0.2739
 9740TIP3    H150635   0.307   2.680   4.958 -1.2795 -0.6200 -0.0517
 9740TIP3    H250636   0.390   2.804   4.984  1.3968 -2.3082 -0.2314
 9741TIP3   OH250637   1.854   2.579  17.039  0.0522 -0.2288 -0.0588
 9741TIP3    H150638   1.761   2.595  17.025 -0.1046  0.9254  1.9604
 9741TIP3    H250639   1.899   2.644  16.985 -0.3123 -0.2171 -0.3520
 9742TIP3   OH250640   4.592   5.613  11.306  0.3244 -0.3891  0.4553
 9742TIP3    H150641   4.529   5.675  11.342 -1.6625 -2.7475  1.3224
 9742TIP3    H250642   4.581   5.619  11.212 -0.1789  0.2183  0.5499
 9743TIP3   OH250643   1.864   2.660   3.771  0.2261  0.1690 -0.3183
 9743TIP3    H150644   1.882   2.732   3.710  1.2117  0.3366  0.1417
 9743TIP3    H250645   1.912   2.586   3.735  0.6834  0.2268  0.1633
 9744TIP3   OH250646   2.642   4.608   1.498  0.0980  0.2127  0.2860
 9744TIP3    H150647   2.653   4.616   1.404 -2.2557 -0.8001 -0.1735
 9744TIP3    H250648   2.607   4.692   1.526  0.6367  0.4573  0.2205
 9745TIP3   OH250649   5.563   1.022   1.967  0.2023 -0.2584 -0.1759
 9745TIP3    H150650   5.651   1.010   1.931  0.6272  0.9925  0.3861
 9745TIP3    H250651   5.557   0.958   2.039  1.5726  1.2401  1.3451
 9746TIP3   OH250652   6.738   5.709  12.117  0.4844 -0.1583 -0.4652
 9746TIP3    H150653   6.689   5.689  12.037  1.6409  0.3375 -1.3224
 9746TIP3    H250654   6.777   5.795  12.100 -0.1278  0.4615  1.0758
 9747TIP3   OH250655   2.189   2.838  16.487  0.5650 -0.3112 -0.0877
 9747TIP3    H150656   2.205   2.753  16.527  0.3906 -0.7415 -0.9145
 9747TIP3    H250657   2.099   2.860  16.512  0.9677  0.1540  1.0333
 9748TIP3   OH250658   4.921   3.114  16.986  0.0871 -0.2289  0.0650
 9748TIP3    H150659   4.873   3.034  17.006  1.9062 -1.2412  0.5929
 9748TIP3    H250660   4.941   3.152  17.071 -0.3068  0.5382 -0.1722
 9749TIP3   OH250661   3.674   2.700   2.499  0.2224 -0.2996 -0.7067
 9749TIP3    H150662   3.753   2.669   2.544 -0.7975  0.1617  1.5552
 9749TIP3    H250663   3.635   2.621   2.463  0.4189 -0.9025  0.3619
 9750TIP3   OH250664   6.047   1.875   4.697  0.1418  0.1216  0.4117
 9750TIP3    H150665   6.053   1.870   4.792  0.8617 -1.6755  0.3065
 9750TIP3    H250666   5.953   1.873   4.679 -0.0291  1.3043  1.0999
 9751TIP3   OH250667   1.873   4.372   2.455 -0.3639 -0.1449 -0.2054
 9751TIP3    H150668   1.950   4.428   2.451 -0.6385  0.2970  0.6409
 9751TIP3    H250669   1.899   4.294   2.405  0.5878  0.0446 -0.0372
 9752TIP3   OH250670   4.550   1.428   5.806  0.2999 -0.0018 -0.1885
 9752TIP3    H150671   4.500   1.455   5.883  0.0654 -0.2431 -0.2555
 9752TIP3    H250672   4.559   1.333   5.815 -1.5891 -0.3635 -1.5554
 9753TIP3   OH250673   5.424   4.929   1.244 -0.0894  0.9961  0.1549
 9753TIP3    H150674   5.440   4.835   1.254 -1.7248  0.6851  0.1066
 9753TIP3    H250675   5.480   4.955   1.171  0.2146  0.0142  0.0214
 9754TIP3   OH250676   2.280   4.910   0.327  0.6277 -0.1829  0.2498
 9754TIP3    H150677   2.286   4.953   0.242 -1.0345 -0.3806 -0.0110
 9754TIP3    H250678   2.197   4.941   0.363  1.1636 -0.3423  1.6703
 9755TIP3   OH250679   4.704   1.204  10.842  0.1869  0.1235  0.2963
 9755TIP3    H150680   4.737   1.284  10.800 -0.9437 -0.1808 -1.2803
 9755TIP3    H250681   4.696   1.142  10.770 -3.0288 -0.0514  0.6680
 9756TIP3   OH250682   4.587   1.213   2.476 -0.2293  0.2192  0.4909
 9756TIP3    H150683   4.510   1.176   2.432 -0.5710  0.1100  1.1677
 9756TIP3    H250684   4.640   1.137   2.500  0.6212  0.3397 -0.8932
 9757TIP3   OH250685   2.311   4.646  13.943  0.2906  0.2692 -0.0400
 9757TIP3    H150686   2.320   4.594  13.864  1.5394 -0.3742  0.5024
 9757TIP3    H250687   2.285   4.733  13.911  1.9973  0.3831 -1.2821
 9758TIP3   OH250688   2.264   4.436   5.579  0.3982  0.0580 -0.5891
 9758TIP3    H150689   2.221   4.365   5.531 -1.0173  0.7483 -0.4214
 9758TIP3    H250690   2.293   4.396   5.661 -2.0030 -0.0206  0.3227
 9759TIP3   OH250691   4.700   4.015   1.453  0.0218  0.0453 -0.3100
 9759TIP3    H150692   4.789   4.050   1.455  0.6758 -1.5179 -0.5906
 9759TIP3    H250693   4.651   4.075   1.397  0.9356  0.8388 -0.2723
 9760TIP3   OH250694   1.009   3.547   2.803  0.2285 -0.0542 -0.7521
 9760TIP3    H150695   0.941   3.566   2.867  2.3293  1.6382  1.1427
 9760TIP3    H250696   1.058   3.475   2.841  1.9622  1.4666  0.0399
 9761TIP3   OH250697   0.098   1.835  11.718 -0.4985 -0.3408 -0.5083
 9761TIP3    H150698   0.164   1.777  11.757  0.0674  1.1406  0.8719
 9761TIP3    H250699   0.146   1.915  11.698 -1.3671 -0.1508 -1.9239
 9762TIP3   OH250700   3.941   6.736  16.048  0.7615 -0.5651 -0.0649
 9762TIP3    H150701   4.015   6.749  16.108  1.6568 -0.9331 -1.0565
 9762TIP3    H250702   3.889   6.668  16.089  0.7972 -0.0871  0.7987
 9763TIP3   OH250703   5.137   2.422  13.800  0.1568 -0.0640 -0.1697
 9763TIP3    H150704   5.124   2.514  13.775  0.3747 -0.0651 -0.2951
 9763TIP3    H250705   5.226   2.402  13.770 -0.2873 -0.6413 -1.1459
 9764TIP3   OH250706   5.261   0.063   1.318 -0.5150 -0.2195  0.4369
 9764TIP3    H150707   5.349   0.042   1.352 -0.5728 -2.7776 -0.7568
 9764TIP3    H250708   5.208  -0.012   1.343 -1.1570 -1.0794 -3.0464
 9765TIP3   OH250709   5.757   3.996   0.790 -0.3791  0.1860  0.4958
 9765TIP3    H150710   5.776   4.069   0.849  0.4168  0.0954  0.3599
 9765TIP3    H250711   5.661   3.987   0.793 -0.7070  2.4939 -1.0004
 9766TIP3   OH250712   5.939   0.148  14.918 -0.3563 -0.2718  0.3158
 9766TIP3    H150713   5.919   0.061  14.883 -1.4193 -1.0824  2.7018
 9766TIP3    H250714   6.034   0.149  14.930 -0.2751 -0.8885 -0.2400
 9767TIP3   OH250715   1.121   5.453   5.512  0.0118  0.1143 -0.4635
 9767TIP3    H150716   1.150   5.402   5.588 -0.3719 -0.0826 -0.4450
 9767TIP3    H250717   1.184   5.524   5.505 -0.3110  0.5053  0.4361
 9768TIP3   OH250718   3.906   3.445   0.576  0.7321 -0.2479  0.7114
 9768TIP3    H150719   3.912   3.517   0.640  0.3376  1.2475 -0.8419
 9768TIP3    H250720   3.878   3.488   0.495  1.9682 -1.9578 -0.6881
 9769TIP3   OH250721   3.774   3.965   4.782 -0.2425  0.1698  0.0886
 9769TIP3    H150722   3.825   3.926   4.711  0.2187 -0.3859  0.6983
 9769TIP3    H250723   3.790   4.059   4.775  0.5312  0.0385  0.0054
 9770TIP3   OH250724   4.855   6.027  13.265  0.1978  0.6253  0.6070
 9770TIP3    H150725   4.822   5.947  13.308  0.6199  0.6103  0.9105
 9770TIP3    H250726   4.790   6.047  13.198  0.6210 -0.5889 -0.1977
 9771TIP3   OH250727   2.895   0.793   4.955  0.1750 -0.0240 -0.1383
 9771TIP3    H150728   2.894   0.889   4.956  0.0782 -0.0131 -0.8566
 9771TIP3    H250729   2.905   0.770   4.862 -0.3038 -0.7083 -0.0250
 9772TIP3   OH250730   2.173   4.151   1.019  0.0515  0.0786  0.2741
 9772TIP3    H150731   2.132   4.092   1.082  0.9815 -1.4918 -0.5225
 9772TIP3    H250732   2.151   4.238   1.050 -0.3522 -0.6528  2.2106
 9773TIP3   OH250733   4.257   3.849   0.191  0.0254  0.5013  0.3100
 9773TIP3    H150734   4.295   3.888   0.269 -0.9060 -0.3585  1.2317
 9773TIP3    H250735   4.186   3.909   0.166  0.3725  0.8153  0.0730
 9774TIP3   OH250736   5.403   0.403   5.769  0.2682  0.4452 -0.2392
 9774TIP3    H150737   5.484   0.425   5.722  0.2294  1.6083  0.2215
 9774TIP3    H250738   5.433   0.369   5.853  0.3469  4.3969  1.5371
 9775TIP3   OH250739   2.458   5.444  16.554  0.5926  0.0899  0.4942
 9775TIP3    H150740   2.388   5.409  16.609 -1.5885  2.3016 -0.6668
 9775TIP3    H250741   2.491   5.520  16.602 -1.4079  2.1073 -1.0937
 9776TIP3   OH250742   1.786   2.172   2.223 -0.2579 -0.1766  0.4197
 9776TIP3    H150743   1.864   2.137   2.266  1.0350  0.2709 -1.4277
 9776TIP3    H250744   1.821   2.232   2.156 -2.2421  0.9650  0.3378
 9777TIP3   OH250745   5.623   5.538  15.111  0.1236 -0.3172  0.1598
 9777TIP3    H150746   5.556   5.549  15.043  2.2084 -0.1038 -1.9753
 9777TIP3    H250747   5.686   5.477  15.073  2.2186  1.0837  1.2238
 9778TIP3   OH250748   2.850   4.190  14.218 -0.4029  0.2951 -0.4199
 9778TIP3    H150749   2.797   4.241  14.279 -2.0616 -1.3313 -0.4069
 9778TIP3    H250750   2.795   4.181  14.140 -0.3569 -1.7880 -0.2612
 9779TIP3   OH250751   6.590   6.011   1.300  0.5088 -0.3702 -0.4506
 9779TIP3    H150752   6.600   5.920   1.272 -0.2685 -0.6255  0.0503
 9779TIP3    H250753   6.659   6.024   1.365  0.6028 -0.6159 -0.4999
 9780TIP3   OH250754   4.961   2.356   2.963  0.6891 -0.1255  0.0167
 9780TIP3    H150755   4.962   2.270   2.922 -0.9442  0.6684 -1.8438
 9780TIP3    H250756   4.881   2.398   2.932  0.6283  1.5256  2.0903
 9781TIP3   OH250757   0.045   6.509  16.641  0.0966  0.1636 -0.0702
 9781TIP3    H150758   0.067   6.467  16.724 -1.0875 -0.4609 -0.0541
 9781TIP3    H250759   0.116   6.484  16.582  0.2334 -0.5465  0.3785
 9782TIP3   OH250760   0.120   1.812   1.279  0.6674 -0.1169 -0.0622
 9782TIP3    H150761   0.164   1.731   1.255 -0.1898 -0.0587 -2.0676
 9782TIP3    H250762   0.186   1.880   1.264  0.6953 -0.2580 -0.6236
 9783TIP3   OH250763   4.575   5.986   5.229 -0.0698  0.1619  0.4591
 9783TIP3    H150764   4.505   5.949   5.284 -0.6362  1.9365  1.0088
 9783TIP3    H250765   4.604   6.063   5.277  1.7076 -0.0597 -0.1950
 9784TIP3   OH250766   2.997   2.742  13.317  0.6019 -0.2928  0.1621
 9784TIP3    H150767   2.931   2.675  13.299  0.7696 -0.6323  0.7720
 9784TIP3    H250768   3.081   2.696  13.315  0.9330  0.3135 -1.5453
 9785TIP3   OH250769   5.583   1.044  11.642  0.4102 -0.2617  0.2545
 9785TIP3    H150770   5.578   1.061  11.736 -1.1345  0.1181  0.1275
 9785TIP3    H250771   5.654   1.100  11.612 -0.0834  0.7821  0.9582
 9786TIP3   OH250772   4.675   3.172  16.673 -0.2069 -0.4263  0.0819
 9786TIP3    H150773   4.687   3.125  16.591  1.4024 -1.3520  0.7873
 9786TIP3    H250774   4.763   3.201  16.697 -0.9237  1.6004  0.4999
 9787TIP3   OH250775   3.316   6.041  13.666  0.5056  0.2696  0.6550
 9787TIP3    H150776   3.256   6.114  13.646 -0.5072 -0.9372 -0.9246
 9787TIP3    H250777   3.290   5.972  13.606  2.7686 -0.7208  0.7403
 9788TIP3   OH250778   0.337   4.411  11.251 -0.0698 -0.5872  0.0287
 9788TIP3    H150779   0.398   4.436  11.321  2.7583 -2.2831 -1.6240
 9788TIP3    H250780   0.308   4.494  11.214  2.0140  0.3420  0.3201
 9789TIP3   OH250781   1.791   3.081   1.056 -0.1007  0.6746  0.4273
 9789TIP3    H150782   1.883   3.107   1.055 -0.2923  1.3959  1.1427
 9789TIP3    H250783   1.780   3.032   0.974  0.1597  3.2086 -1.2458
 9790TIP3   OH250784   1.801   6.184   5.853  0.3868  0.1337  0.3938
 9790TIP3    H150785   1.793   6.154   5.762  0.3773 -1.6815  0.9611
 9790TIP3    H250786   1.712   6.211   5.877  0.5524  1.4729 -0.3789
 9791TIP3   OH250787   2.784   0.011  11.404 -0.2982  0.3388 -0.0368
 9791TIP3    H150788   2.834   0.084  11.442  0.2630  0.1906 -0.4751
 9791TIP3    H250789   2.710   0.053  11.360 -0.0260  0.6435 -0.2136
 9792TIP3   OH250790   3.408   0.962  14.242 -0.1212  0.0577  0.5132
 9792TIP3    H150791   3.432   0.889  14.300  0.2575 -0.3671 -0.1629
 9792TIP3    H250792   3.338   1.008  14.289  0.3388 -0.1385  1.4108
 9793TIP3   OH250793   2.306   5.031  16.482 -0.6672  0.6570  0.3850
 9793TIP3    H150794   2.319   5.080  16.400 -2.5786 -2.1369 -1.7640
 9793TIP3    H250795   2.211   5.031  16.495 -0.4617  0.1654  2.0496
 9794TIP3   OH250796   5.837   0.127  16.667  0.1064 -0.1007 -0.1388
 9794TIP3    H150797   5.928   0.138  16.639  0.0250 -0.1426 -0.4203
 9794TIP3    H250798   5.785   0.161  16.595 -0.0831  2.2721  1.0349
 9795TIP3   OH250799   3.736   4.669  17.131  0.3310  0.0760 -0.4358
 9795TIP3    H150800   3.800   4.731  17.165  0.6423 -0.1815 -0.5334
 9795TIP3    H250801   3.654   4.717  17.127  0.6975  0.6642 -1.0809
 9796TIP3   OH250802   0.653   6.509  16.481  0.0659 -0.4746 -0.7177
 9796TIP3    H150803   0.592   6.438  16.462 -0.6394 -0.0022 -0.2566
 9796TIP3    H250804   0.612   6.557  16.553  0.9163 -0.0666 -0.4967
 9797TIP3   OH250805   5.730   6.091   4.402  0.1424  0.2426  0.0954
 9797TIP3    H150806   5.725   6.007   4.356 -1.1931 -0.2117  0.9952
 9797TIP3    H250807   5.792   6.077   4.473  1.6019  0.7075 -1.0476
 9798TIP3   OH250808   6.096   5.021  16.174 -0.0678 -0.1703 -0.3252
 9798TIP3    H150809   6.067   5.080  16.104 -1.2630  1.2758  1.3253
 9798TIP3    H250810   6.153   5.075  16.229 -0.6949 -0.7237  0.8894
 9799TIP3   OH250811   0.437   2.990   4.180 -0.6593  0.1114  0.0000
 9799TIP3    H150812   0.382   3.063   4.155  0.2294  0.6855 -0.3321
 9799TIP3    H250813   0.483   2.966   4.099  1.5529  1.3858  0.7904
 9800TIP3   OH250814   5.597   0.459   1.966  0.1167  0.4843 -0.2032
 9800TIP3    H150815   5.516   0.509   1.951  0.9291  1.6741 -0.7291
 9800TIP3    H250816   5.578   0.372   1.930 -0.2177  1.3699 -2.2712
 9801TIP3   OH250817   0.012   0.811  16.389 -0.0450 -0.8467 -0.7527
 9801TIP3    H150818  -0.022   0.722  16.380 -0.8346 -0.4471 -1.9077
 9801TIP3    H250819   0.036   0.837  16.301 -2.3035  1.0164 -0.9127
 9802TIP3   OH250820   4.155   5.324  16.138 -0.2933  0.1031  0.0404
 9802TIP3    H150821   4.251   5.321  16.138 -0.0823  3.0097 -2.0693
 9802TIP3    H250822   4.134   5.416  16.123 -3.4369 -0.5577 -0.1802
 9803TIP3   OH250823   5.706   1.781   5.474  0.4529 -0.0590  1.0609
 9803TIP3    H150824   5.676   1.789   5.383  1.9456  2.1406  0.6864
 9803TIP3    H250825   5.757   1.700   5.475  1.5380  0.5537 -0.4512
 9804TIP3   OH250826   2.614   3.683  11.205  0.3333  0.0469 -0.4784
 9804TIP3    H150827   2.540   3.678  11.145 -0.7119 -0.6217  0.8259
 9804TIP3    H250828   2.675   3.616  11.173  0.5154  0.7537 -1.6895
 9805TIP3   OH250829   5.018   2.848   2.461 -0.1892 -0.1869  0.1230
 9805TIP3    H150830   5.104   2.883   2.439 -0.2773  0.2050  0.3996
 9805TIP3    H250831   4.982   2.819   2.377 -0.2901  0.7804 -0.1779
 9806TIP3   OH250832   1.079   6.190   5.234 -0.0787 -0.2132 -0.0135
 9806TIP3    H150833   1.059   6.098   5.214  0.0484 -0.1454 -0.4522
 9806TIP3    H250834   1.019   6.240   5.179 -2.1741 -0.0165  2.2385
 9807TIP3   OH250835   1.033   5.382  13.869 -0.1725  0.2304 -0.6894
 9807TIP3    H150836   0.962   5.319  13.879  0.5650 -0.4621  0.5875
 9807TIP3    H250837   1.100   5.336  13.819 -0.0058  0.3119 -0.5472
 9808TIP3   OH250838   4.075   4.220  13.925  0.4818 -0.2205  0.9229
 9808TIP3    H150839   4.076   4.145  13.865 -0.2905  0.6575 -0.2260
 9808TIP3    H250840   4.110   4.185  14.007  2.0526 -1.3238 -0.1650
 9809TIP3   OH250841   0.303   4.777   3.725 -0.2144 -0.0314  0.2269
 9809TIP3    H150842   0.307   4.865   3.688  1.3636  0.0103  0.4366
 9809TIP3    H250843   0.372   4.775   3.791 -0.6705 -1.2195  0.6997
 9810TIP3   OH250844   5.345   2.442   3.760  0.8164 -1.0004 -0.0263
 9810TIP3    H150845   5.401   2.405   3.829  2.3283  0.6759 -0.2960
 9810TIP3    H250846   5.320   2.528   3.793 -0.2371 -1.0464 -0.6726
 9811TIP3   OH250847   4.620   4.765  16.566  0.1176 -0.3161 -0.2145
 9811TIP3    H150848   4.661   4.777  16.480  0.6399 -0.8339 -0.0397
 9811TIP3    H250849   4.527   4.780  16.549  0.4254  1.6028 -0.4658
 9812TIP3   OH250850   4.421   1.103   3.625  0.5548 -0.2181  0.0269
 9812TIP3    H150851   4.416   1.165   3.552 -0.0726 -0.3681 -0.0658
 9812TIP3    H250852   4.484   1.037   3.596  1.1416  0.3127  0.0806
 9813TIP3   OH250853   3.059   4.723  12.299  0.2483 -0.0438  0.3941
 9813TIP3    H150854   3.120   4.690  12.365 -0.4977  0.1464  1.1959
 9813TIP3    H250855   2.981   4.667  12.308 -1.0104  1.7904  1.7210
 9814TIP3   OH250856   3.186   0.708   3.764 -0.5085  0.1189  0.1511
 9814TIP3    H150857   3.200   0.630   3.710 -1.7695  0.6113 -0.9326
 9814TIP3    H250858   3.224   0.780   3.714 -0.5634  0.3968  0.5035
 9815TIP3   OH250859   1.096   2.823   0.057 -0.0445  0.7605 -0.1646
 9815TIP3    H150860   1.030   2.803   0.124 -0.9810 -0.3617 -1.3742
 9815TIP3    H250861   1.142   2.740   0.044  0.1458  0.9750 -0.8913
 9816TIP3   OH250862   1.300   2.701  16.464  0.3652 -0.3849  0.6867
 9816TIP3    H150863   1.251   2.668  16.389  0.3081  0.3119  0.4015
 9816TIP3    H250864   1.233   2.719  16.530  0.4395 -1.2188  0.9983
 9817TIP3   OH250865   1.021   5.305  17.125 -1.0301  0.2578  0.2413
 9817TIP3    H150866   1.027   5.209  17.124  0.4761  0.3440 -0.2479
 9817TIP3    H250867   1.111   5.335  17.124 -1.4977  1.7064 -0.5793
 9818TIP3   OH250868   6.340   0.075  11.379  0.3801  0.6792  1.1199
 9818TIP3    H150869   6.250   0.054  11.406  0.0753  0.1141 -0.2285
 9818TIP3    H250870   6.340   0.058  11.285  1.9036  0.6940  1.1056
 9819TIP3   OH250871   4.352   5.705  14.875  0.0429 -0.0718 -0.1837
 9819TIP3    H150872   4.377   5.671  14.789 -0.4368  0.4553 -0.5380
 9819TIP3    H250873   4.273   5.757  14.859  0.4860  0.8258  0.4010
 9820TIP3   OH250874   3.895   3.594   4.420  0.2374  0.0763 -0.2534
 9820TIP3    H150875   3.986   3.568   4.406 -0.3504 -3.2749  1.1472
 9820TIP3    H250876   3.845   3.550   4.351 -0.5270  0.2563  0.1660
 9821TIP3   OH250877   2.166   4.510   1.985 -0.6989 -0.4509 -0.1816
 9821TIP3    H150878   2.200   4.534   1.899 -0.9171 -1.7332 -0.6492
 9821TIP3    H250879   2.144   4.417   1.977 -1.3549 -0.4237  1.0599
 9822TIP3   OH250880   2.789   4.684  14.455 -0.3961  0.3039 -0.0541
 9822TIP3    H150881   2.742   4.745  14.398 -0.3812 -0.3213 -0.7571
 9822TIP3    H250882   2.871   4.667  14.410  0.5839  1.4579  1.2173
 9823TIP3   OH250883   1.142   1.838   4.089 -0.6620 -0.0792  0.4481
 9823TIP3    H150884   1.087   1.905   4.048  0.3056  0.5280  0.1192
 9823TIP3    H250885   1.089   1.805   4.162 -1.4913  0.4369  0.0904
 9824TIP3   OH250886   0.597   6.025   0.671  1.4165  0.0165 -0.0528
 9824TIP3    H150887   0.574   6.098   0.613  3.0362  0.6580  0.0514
 9824TIP3    H250888   0.610   5.951   0.611 -0.9075 -0.4373 -0.1021
 9825TIP3   OH250889   4.674   4.963  14.084 -0.5934 -0.6491  0.4510
 9825TIP3    H150890   4.586   4.995  14.065 -0.1602  1.1210  1.2040
 9825TIP3    H250891   4.721   4.968  14.001 -0.3154  1.5419  0.6911
 9826TIP3   OH250892   6.508   4.844   5.109  0.1915  0.0216 -0.3924
 9826TIP3    H150893   6.551   4.824   5.026  0.0496  2.4133 -1.1171
 9826TIP3    H250894   6.567   4.906   5.152 -0.1306 -0.5665  0.9364
 9827TIP3   OH250895   1.749   0.530   1.960 -0.3469  0.2735 -0.3501
 9827TIP3    H150896   1.818   0.595   1.953 -1.2367  1.1179 -2.0217
 9827TIP3    H250897   1.701   0.553   2.039  1.2492 -0.3381  0.8421
 9828TIP3   OH250898   3.085   0.790  12.954 -0.0957  0.0947  0.0431
 9828TIP3    H150899   3.138   0.731  12.902 -0.3235  1.1393 -1.4279
 9828TIP3    H250900   3.111   0.772  13.045  0.7350 -1.3413 -0.4529
 9829TIP3   OH250901   3.629   4.087  16.464  0.0435  0.7351  0.0902
 9829TIP3    H150902   3.619   4.024  16.393 -1.7918  0.7126  0.3355
 9829TIP3    H250903   3.716   4.125  16.450  0.8231 -1.1754 -0.5879
 9830TIP3   OH250904   2.541   0.165   1.968 -0.0135  0.1565 -0.4231
 9830TIP3    H150905   2.535   0.072   1.991  0.1226  0.1797 -0.2902
 9830TIP3    H250906   2.591   0.204   2.039  2.3953 -0.1638 -1.8389
 9831TIP3   OH250907   3.543   4.062   0.342 -0.0437  0.9868  0.0188
 9831TIP3    H150908   3.597   3.988   0.369 -0.9491 -0.5801 -2.1693
 9831TIP3    H250909   3.556   4.068   0.247 -2.4252  1.5776 -0.3416
 9832TIP3   OH250910   1.008   1.944   2.936 -0.5360 -0.1759  0.3268
 9832TIP3    H150911   1.003   1.921   3.029  2.3809 -2.2639  0.0902
 9832TIP3    H250912   1.067   1.879   2.898  1.6985  2.9793 -2.1662
 9833TIP3   OH250913   5.611   4.694   2.883 -0.7380  0.5036 -0.6341
 9833TIP3    H150914   5.620   4.675   2.790 -1.6448  0.8711 -0.7972
 9833TIP3    H250915   5.676   4.637   2.925  0.9135  1.5744 -1.6118
 9834TIP3   OH250916   2.812   5.037  14.744  0.3874 -0.3519  0.4029
 9834TIP3    H150917   2.806   4.963  14.804  1.2952  0.5700  1.6971
 9834TIP3    H250918   2.818   5.114  14.801  2.3238  0.4951 -0.8300
 9835TIP3   OH250919   2.260   5.954  16.177  0.2436 -0.3434  0.5323
 9835TIP3    H150920   2.247   5.892  16.249 -1.5217 -0.7608 -0.0978
 9835TIP3    H250921   2.236   5.905  16.098  0.6876  0.5583 -0.1828
 9836TIP3   OH250922   6.164   1.841   2.700  0.0368  0.3475  0.2093
 9836TIP3    H150923   6.211   1.771   2.747  0.8466  1.6275  1.3917
 9836TIP3    H250924   6.071   1.822   2.716  0.2649  0.0018  1.2323
 9837TIP3   OH250925   5.944   4.780  15.479 -0.7854 -0.1010 -0.0119
 9837TIP3    H150926   5.999   4.851  15.447 -0.8038 -0.7791 -1.6347
 9837TIP3    H250927   5.898   4.748  15.401 -1.3992 -1.3450  0.8256
 9838TIP3   OH250928   0.535   2.406  11.704  0.0012 -0.3349  0.1683
 9838TIP3    H150929   0.490   2.332  11.664  0.6620 -0.4445 -0.3858
 9838TIP3    H250930   0.555   2.377  11.793  0.2863 -0.8366 -0.0578
 9839TIP3   OH250931   2.568   1.186   4.741 -0.1264 -0.4903 -0.0447
 9839TIP3    H150932   2.638   1.157   4.681 -1.0234 -2.1540 -0.3484
 9839TIP3    H250933   2.605   1.262   4.786  0.6547  0.7550 -2.5919
 9840TIP3   OH250934   2.750   3.082  13.685  0.0152 -0.6616  0.1729
 9840TIP3    H150935   2.825   3.065  13.742  0.3950  2.5648  0.8357
 9840TIP3    H250936   2.784   3.075  13.596  0.8889 -0.1625  0.4583
 9841TIP3   OH250937   5.649   0.620   3.416  0.6707 -0.1683  0.6938
 9841TIP3    H150938   5.664   0.675   3.493  0.1832  1.3183 -0.2289
 9841TIP3    H250939   5.554   0.625   3.402  0.7678 -0.3680 -0.0529
 9842TIP3   OH250940   2.011   2.931  14.927 -0.2186  0.3488 -0.2824
 9842TIP3    H150941   2.084   2.932  14.989  0.8039  1.6312 -1.4492
 9842TIP3    H250942   2.031   2.860  14.867 -1.3350 -1.0579  0.9207
 9843TIP3   OH250943   0.668   0.280  11.832 -0.5299  0.3485 -0.1079
 9843TIP3    H150944   0.642   0.205  11.886  3.8177 -1.0191  0.4577
 9843TIP3    H250945   0.731   0.244  11.769  0.4295  3.2298 -0.9608
 9844TIP3   OH250946   0.460   4.015  14.065 -0.1694 -0.4277 -0.4700
 9844TIP3    H150947   0.405   3.994  13.990  0.4329  2.5783 -1.8888
 9844TIP3    H250948   0.421   4.094  14.102  0.8202 -0.6171  1.0779
 9845TIP3   OH250949   2.590   6.046   5.452 -0.5130  0.2679 -0.4787
 9845TIP3    H150950   2.575   6.112   5.384  1.3959  2.6308  1.2508
 9845TIP3    H250951   2.540   6.077   5.527 -0.1660 -0.6612  0.1573
 9846TIP3   OH250952   0.721   1.850   0.202  0.0259  0.9172  0.3350
 9846TIP3    H150953   0.659   1.803   0.257 -0.6605  0.5248 -0.7543
 9846TIP3    H250954   0.777   1.782   0.165  1.5234  1.3104  1.7595
 9847TIP3   OH250955   3.242   5.301  15.111 -0.3196 -0.2161  0.2292
 9847TIP3    H150956   3.245   5.307  15.016 -0.0237 -1.1309  0.1741
 9847TIP3    H250957   3.166   5.354  15.136 -0.1863  0.3218 -0.4817
 9848TIP3   OH250958   0.647   1.553  15.208 -0.1488  0.1998  0.2156
 9848TIP3    H150959   0.731   1.597  15.224  0.1020 -0.4451  0.6937
 9848TIP3    H250960   0.653   1.470  15.255 -1.8098  0.9834  1.9705
 9849TIP3   OH250961   3.607   0.663  13.038  0.0155  0.1438 -0.0072
 9849TIP3    H150962   3.538   0.721  13.007  0.1626  1.2587  1.5877
 9849TIP3    H250963   3.681   0.679  12.980 -0.3169  0.7299 -0.2763
 9850TIP3   OH250964   0.666   5.816   5.388  0.1647  0.3114 -0.6198
 9850TIP3    H150965   0.597   5.767   5.432  0.0311 -0.7015 -1.9086
 9850TIP3    H250966   0.747   5.783   5.427  0.0619 -0.7281 -1.2576
 9851TIP3   OH250967   3.990   5.964   2.070  0.4698 -0.2345  0.5266
 9851TIP3    H150968   3.915   6.016   2.099  0.1586 -1.1805  1.5064
 9851TIP3    H250969   4.066   6.010   2.106  0.4877  1.3347 -1.3824
 9852TIP3   OH250970   4.986   1.834   5.594  0.0211 -0.1078 -0.2629
 9852TIP3    H150971   4.954   1.748   5.569  0.4866 -0.3218 -0.1353
 9852TIP3    H250972   5.046   1.859   5.523  0.1920 -0.0623 -0.1026
 9853TIP3   OH250973   5.014   3.289   2.230 -0.2806  0.2954 -0.1908
 9853TIP3    H150974   4.968   3.213   2.193 -0.0010  0.2152 -0.3733
 9853TIP3    H250975   5.007   3.356   2.162  0.6481 -0.0057 -0.5944
 9854TIP3   OH250976   4.093   0.119  13.922  0.9724  0.1090 -0.1871
 9854TIP3    H150977   4.063   0.168  13.846 -1.1926  3.0566  2.3119
 9854TIP3    H250978   4.176   0.161  13.946  0.7629  0.3861  0.0646
 9855TIP3   OH250979   3.239   2.857  13.540  0.3153  0.6203  0.3913
 9855TIP3    H150980   3.175   2.837  13.609 -0.5860  0.5914 -0.4289
 9855TIP3    H250981   3.324   2.854  13.585 -0.3238  1.8532  1.7662
 9856TIP3   OH250982   0.331   4.347   5.988  0.2946  0.2228 -0.1495
 9856TIP3    H150983   0.271   4.314   6.055 -0.2589  0.6405 -0.4316
 9856TIP3    H250984   0.366   4.428   6.025  1.5099 -0.5560  0.4628
 9857TIP3   OH250985   4.178   6.017  11.871 -0.0552 -0.6359 -0.7980
 9857TIP3    H150986   4.085   6.027  11.891  0.2906 -1.5823  1.6447
 9857TIP3    H250987   4.183   5.941  11.813 -0.8090 -0.4074 -1.1675
 9858TIP3   OH250988   4.873   6.527   1.321  0.4125 -0.0830 -0.5395
 9858TIP3    H150989   4.889   6.433   1.326 -2.3871 -0.6201  0.4069
 9858TIP3    H250990   4.841   6.542   1.232 -3.4239 -0.9885  0.5011
 9859TIP3   OH250991   4.356   4.262  14.798  0.1154 -0.9294  0.3693
 9859TIP3    H150992   4.444   4.283  14.768 -0.4494 -0.1153 -0.8042
 9859TIP3    H250993   4.359   4.277  14.893  0.8983  0.3836  0.1660
 9860TIP3   OH250994   2.541   6.259  16.803  0.1653  0.0324 -1.0118
 9860TIP3    H150995   2.523   6.348  16.835 -1.3789 -1.0684  1.4386
 9860TIP3    H250996   2.602   6.222  16.868 -0.8379 -1.3532 -0.8202
 9861TIP3   OH250997   0.565   5.723  14.876 -0.6428  0.3108  0.1053
 9861TIP3    H150998   0.564   5.679  14.961  2.1670  0.3872  0.2903
 9861TIP3    H250999   0.478   5.760  14.867 -1.6329 -1.3272  2.0652
 9862TIP3   OH251000   4.088   0.764  14.822  0.2538  0.7303  0.2916
 9862TIP3    H151001   4.060   0.792  14.909 -0.9010  1.3284 -0.2530
 9862TIP3    H251002   4.031   0.690  14.800  0.5089  0.6067  0.0159
 9863TIP3   OH251003   0.760   2.982   3.735 -0.0419  0.0654 -0.3075
 9863TIP3    H151004   0.693   2.953   3.797  1.3389 -0.6174  0.9428
 9863TIP3    H251005   0.756   3.078   3.738  0.1608  0.0598  1.0931
 9864TIP3   OH251006   2.184   5.499  13.078  0.3146 -0.8192 -0.2228
 9864TIP3    H151007   2.198   5.432  13.145  1.0257  0.1181  0.5973
 9864TIP3    H251008   2.259   5.559  13.088 -1.0185  0.8846  0.0479
 9865TIP3   OH251009   6.509   6.236   3.839  0.1659  0.2631 -0.1608
 9865TIP3    H151010   6.514   6.156   3.891 -0.4858  1.2191  1.4514
 9865TIP3    H251011   6.585   6.233   3.781  0.8162 -0.9322  0.7336
 9866TIP3   OH251012   6.653   5.764   4.832 -0.0922 -0.6205 -0.3941
 9866TIP3    H151013   6.616   5.781   4.746 -1.3944 -1.2563  0.0214
 9866TIP3    H251014   6.742   5.735   4.815  0.8523  2.4200 -1.3507
 9867TIP3   OH251015   6.551   0.947  15.762  0.2135 -0.3907 -0.1828
 9867TIP3    H151016   6.490   0.901  15.821  0.1656  1.9821  1.8198
 9867TIP3    H251017   6.560   0.889  15.687 -1.9962 -2.3158  0.8859
 9868TIP3   OH251018   5.613   3.513  15.165  0.3541 -0.9347 -1.0446
 9868TIP3    H151019   5.662   3.466  15.233 -0.1567  2.0602  1.5968
 9868TIP3    H251020   5.584   3.593  15.207 -1.9646  0.0874 -4.2225
 9869TIP3   OH251021   3.922   4.545  10.930  0.5886  0.0403  0.1299
 9869TIP3    H151022   3.913   4.549  10.835  2.4174  2.1290 -0.0438
 9869TIP3    H251023   3.839   4.577  10.964 -0.4502 -1.6727 -0.6972
 9870TIP3   OH251024   1.527   0.213  16.468 -0.0825  0.3947 -0.2155
 9870TIP3    H151025   1.519   0.247  16.557  1.4919  0.6170 -0.1254
 9870TIP3    H251026   1.556   0.122  16.480 -1.7551 -0.1995 -0.4931
 9871TIP3   OH251027   6.360   6.365   1.641 -0.1775  0.0875  0.1981
 9871TIP3    H151028   6.444   6.373   1.596  0.6660  0.1997  1.7489
 9871TIP3    H251029   6.314   6.296   1.592  0.8544 -0.0640 -0.5973
 9872TIP3   OH251030   0.852   0.691   2.234  0.0067  0.3793 -0.1548
 9872TIP3    H151031   0.794   0.617   2.216  0.7333 -0.5324  1.0831
 9872TIP3    H251032   0.915   0.691   2.162 -0.8479  0.7120 -0.9279
 9873TIP3   OH251033   0.317   5.383  11.387 -0.0553 -0.4847 -0.0512
 9873TIP3    H151034   0.360   5.412  11.467 -0.5437 -0.8079  0.3358
 9873TIP3    H251035   0.283   5.296  11.409 -1.4383  0.0129 -0.1471
 9874TIP3   OH251036   5.197   6.218   5.045  0.4332 -0.2926  0.0386
 9874TIP3    H151037   5.222   6.304   5.012  2.5188 -0.3138  1.3906
 9874TIP3    H251038   5.244   6.156   4.989  1.7854 -0.4077  1.2524
 9875TIP3   OH251039   1.532   5.248   4.564  0.4560 -0.2935  0.5499
 9875TIP3    H151040   1.589   5.280   4.494  1.2670 -1.1213  0.8137
 9875TIP3    H251041   1.482   5.178   4.523 -1.0036  0.9575  0.0943
 9876TIP3   OH251042   5.761   2.977  16.269  0.5375  0.0790  0.1279
 9876TIP3    H151043   5.799   3.011  16.187 -0.4049  0.5678 -0.1204
 9876TIP3    H251044   5.696   2.913  16.240  0.5844 -0.1455  0.5198
 9877TIP3   OH251045   5.817   3.175   6.052 -0.2062 -0.2014  0.5601
 9877TIP3    H151046   5.808   3.176   5.957  0.8699  1.0551  0.4359
 9877TIP3    H251047   5.816   3.082   6.075 -0.8795 -0.5119 -0.6214
 9878TIP3   OH251048   6.181   2.566   0.232 -0.0104  0.5697  0.1387
 9878TIP3    H151049   6.242   2.523   0.292 -0.3515  1.1101  0.8926
 9878TIP3    H251050   6.160   2.650   0.274  0.4415  1.3741 -1.1810
 9879TIP3   OH251051   3.910   4.947  13.989 -0.2822  0.6872 -0.1823
 9879TIP3    H151052   3.916   4.858  13.953 -0.2102  0.9784 -0.9173
 9879TIP3    H251053   3.837   4.944  14.050 -2.0153  0.7550 -2.1501
 9880TIP3   OH251054   6.248   2.348  16.370 -0.4687  0.0412 -0.6458
 9880TIP3    H151055   6.155   2.366  16.386 -0.3762  0.0517 -0.1088
 9880TIP3    H251056   6.253   2.252  16.371 -0.4135  0.0472 -0.3228
 9881TIP3   OH251057   1.381   3.333  12.785  0.6083  0.2458  0.1965
 9881TIP3    H151058   1.323   3.338  12.709  0.2552 -1.1555  0.3454
 9881TIP3    H251059   1.331   3.374  12.855 -0.3312 -1.1428  0.3766
 9882TIP3   OH251060   3.403   5.511   0.311 -0.0200 -0.1105  0.1278
 9882TIP3    H151061   3.379   5.433   0.262 -0.4812  0.3599 -0.4251
 9882TIP3    H251062   3.494   5.528   0.287 -0.3122  0.2450 -0.7701
 9883TIP3   OH251063   3.584   2.983   5.472 -0.2987 -0.0214  0.0382
 9883TIP3    H151064   3.501   2.995   5.518 -0.5686 -0.8406 -0.2270
 9883TIP3    H251065   3.625   2.907   5.514 -0.0020 -0.0496 -0.2946
 9884TIP3   OH251066   6.496   6.555   6.270  0.0097 -0.0024  0.0548
 9884TIP3    H151067   6.574   6.582   6.319 -0.1189  0.8926 -0.2183
 9884TIP3    H251068   6.462   6.636   6.232  0.7394 -0.7680 -2.4458
 9885TIP3   OH251069   0.293   6.100   0.049  0.5650 -0.2393  0.1362
 9885TIP3    H151070   0.352   6.037   0.007  0.6346  0.5800 -1.0268
 9885TIP3    H251071   0.207   6.058   0.045  0.6304 -0.3272 -0.5331
 9886TIP3   OH251072   5.938   0.111  13.361  0.1184 -0.3439 -1.2263
 9886TIP3    H151073   6.002   0.155  13.306 -0.2484  0.3282 -1.1273
 9886TIP3    H251074   5.868   0.175  13.372  0.8203  0.1183  1.2006
 9887TIP3   OH251075   6.554   2.870  10.927 -0.0317  0.2334 -0.2140
 9887TIP3    H151076   6.516   2.958  10.929 -0.3346  0.0985  0.7480
 9887TIP3    H251077   6.638   2.880  10.973 -1.0301 -0.3726  1.8831
 9888TIP3   OH251078   0.175   6.175  15.512  0.0060  0.0539 -0.0781
 9888TIP3    H151079   0.098   6.119  15.507 -0.0783  0.1523  0.1281
 9888TIP3    H251080   0.143   6.263  15.494 -0.2561  0.3817  1.7771
 9889TIP3   OH251081   5.627   1.725   5.193 -0.7639  0.0238 -0.0797
 9889TIP3    H151082   5.697   1.723   5.128  0.0392  0.9232  0.7346
 9889TIP3    H251083   5.609   1.633   5.213  0.3971 -0.2069 -0.0596
 9890TIP3   OH251084   3.100   4.999  16.956  0.3624 -0.2504 -0.0250
 9890TIP3    H151085   3.089   5.000  16.860  0.2465 -2.0560 -0.0816
 9890TIP3    H251086   3.036   4.935  16.986  0.9564 -0.3036  1.1708
 9891TIP3   OH251087   1.422   0.826  12.138  0.6343  0.4377  0.2631
 9891TIP3    H151088   1.469   0.873  12.207 -0.3102  2.9602 -0.7036
 9891TIP3    H251089   1.330   0.851  12.150  0.0497 -1.2761 -0.2753
 9892TIP3   OH251090   3.289   4.798   2.759 -0.4265  0.3351 -0.3171
 9892TIP3    H151091   3.320   4.796   2.669  3.6603  2.0428  0.8149
 9892TIP3    H251092   3.305   4.887   2.789 -1.9023 -0.0878  2.0504
 9893TIP3   OH251093   6.097   5.428   2.183 -0.0112  0.4932 -0.4406
 9893TIP3    H151094   6.164   5.420   2.116 -0.4785 -0.9891 -0.7716
 9893TIP3    H251095   6.048   5.346   2.177 -2.3134  1.8137 -0.7004
 9894TIP3   OH251096   3.757   2.772   3.225 -0.0133  0.1146 -0.2304
 9894TIP3    H151097   3.782   2.864   3.234  1.0683 -0.0686 -1.1831
 9894TIP3    H251098   3.713   2.766   3.140 -0.9460 -0.0852  0.2473
 9895TIP3   OH251099   4.469   2.115  11.728  0.0584  0.4598  0.0042
 9895TIP3    H151100   4.529   2.063  11.781  0.1509  2.4439  2.0416
 9895TIP3    H251101   4.523   2.153  11.659  0.6029  0.1765  0.2723
 9896TIP3   OH251102   1.307   4.014   0.043 -0.1314 -0.4404  0.4361
 9896TIP3    H151103   1.289   3.988  -0.047 -0.5027  0.3123  0.2778
 9896TIP3    H251104   1.231   4.066   0.068  0.7456  0.8157  0.5870
 9897TIP3   OH251105   4.234   1.508   0.563  0.4928  0.0723 -0.8200
 9897TIP3    H151106   4.196   1.596   0.558  0.5165  0.1748  0.4619
 9897TIP3    H251107   4.198   1.462   0.487 -1.2733  0.5404 -0.3258
 9898TIP3   OH251108   4.215   0.957   3.901 -0.3510 -0.3670 -0.4880
 9898TIP3    H151109   4.159   0.968   3.824 -0.6697  1.1544 -0.0778
 9898TIP3    H251110   4.280   1.026   3.893  0.8343 -1.4483 -0.3928
 9899TIP3   OH251111   1.896   0.257  15.924  0.4591 -0.7712 -0.1476
 9899TIP3    H151112   1.932   0.260  15.836  0.2811  0.3594 -0.2011
 9899TIP3    H251113   1.935   0.332  15.969 -0.2214 -0.7345  0.4132
 9900TIP3   OH251114   6.341   5.361   0.981 -0.0586  0.1181  0.0921
 9900TIP3    H151115   6.267   5.390   0.928 -0.1817  1.6001  1.0168
 9900TIP3    H251116   6.305   5.296   1.041 -0.2611 -0.3310 -0.5078
 9901TIP3   OH251117   2.163   1.426   3.430  0.1571 -0.2913  0.1303
 9901TIP3    H151118   2.220   1.503   3.440 -0.4053  0.0364  0.8507
 9901TIP3    H251119   2.095   1.455   3.369 -0.2369 -0.1037  0.6503
 9902TIP3   OH251120   0.257   5.897   2.008  0.0830  0.5398 -0.1538
 9902TIP3    H151121   0.199   5.864   2.077 -1.4201  0.9164 -1.1926
 9902TIP3    H251122   0.343   5.863   2.032 -0.8191 -1.3791  0.5992
 9903TIP3   OH251123   6.165   3.825  11.156  0.1528  0.4383 -0.3896
 9903TIP3    H151124   6.147   3.767  11.229  3.1706 -1.1696 -0.7331
 9903TIP3    H251125   6.202   3.767  11.089  1.9523  2.5218 -1.3094
 9904TIP3   OH251126   5.849   1.462  14.048  0.7326  0.1656 -0.1074
 9904TIP3    H151127   5.840   1.554  14.073  0.5839 -0.0399  0.6092
 9904TIP3    H251128   5.930   1.459  13.997 -0.5437  1.1390 -2.3788
 9905TIP3   OH251129   2.205   5.892   4.626  0.1591  0.0394 -1.1041
 9905TIP3    H151130   2.234   5.804   4.602 -0.3897 -0.3081 -0.5189
 9905TIP3    H251131   2.251   5.950   4.565  1.3837 -0.5578 -0.7620
 9906TIP3   OH251132   2.588   4.136  13.647 -0.5617  0.5274 -0.1292
 9906TIP3    H151133   2.506   4.169  13.686 -0.1025  2.7521 -0.8855
 9906TIP3    H251134   2.652   4.206  13.664  0.7713 -0.4489 -0.9622
 9907TIP3   OH251135   0.914   2.708   5.275  0.8587 -0.3879 -0.3614
 9907TIP3    H151136   0.985   2.667   5.225  1.4613  1.3376 -0.9783
 9907TIP3    H251137   0.958   2.751   5.349  0.1710 -1.2992  0.6158
 9908TIP3   OH251138   5.042   2.762  14.849 -0.1702 -0.5920 -0.0810
 9908TIP3    H151139   4.991   2.814  14.787  0.7355  0.5510  0.0830
 9908TIP3    H251140   5.115   2.728  14.797 -0.6000 -1.4999 -0.1183
 9909TIP3   OH251141   1.917   1.846  10.451  0.6278 -0.2494  0.0447
 9909TIP3    H151142   1.873   1.765  10.476 -1.7150  1.1485  0.8124
 9909TIP3    H251143   2.009   1.833  10.476  0.2130 -2.4584  0.5862
 9910TIP3   OH251144   3.490   5.363  14.406 -0.5432 -0.0054  0.3130
 9910TIP3    H151145   3.431   5.327  14.472 -0.2480  1.0357  1.1697
 9910TIP3    H251146   3.435   5.418  14.351 -0.4800  0.5381  0.7849
 9911TIP3   OH251147   2.145   1.774   3.791  0.2518  0.3436  0.3469
 9911TIP3    H151148   2.219   1.813   3.838  0.7456 -0.5970  0.3692
 9911TIP3    H251149   2.081   1.753   3.859  1.0014 -1.0942  0.6369
 9912TIP3   OH251150   5.592   1.281  14.754 -0.5194  0.4970 -0.3777
 9912TIP3    H151151   5.640   1.360  14.730 -1.6296  1.2186 -0.3014
 9912TIP3    H251152   5.502   1.298  14.726 -0.6890 -0.9248 -0.7641
 9913TIP3   OH251153   2.010   6.494  11.513  0.5692 -0.4002 -0.2100
 9913TIP3    H151154   2.035   6.414  11.466  0.1413 -0.6507 -0.0136
 9913TIP3    H251155   2.072   6.499  11.586  0.0682 -1.0095  0.2627
 9914TIP3   OH251156   1.140   2.620  11.813  0.1506  0.2921 -0.1794
 9914TIP3    H151157   1.103   2.584  11.732 -0.2846 -0.2909  0.2664
 9914TIP3    H251158   1.066   2.624  11.873  0.7092 -0.4328  0.5765
 9915TIP3   OH251159   5.077   1.776   2.559 -0.3600 -0.3353 -0.9869
 9915TIP3    H151160   4.992   1.753   2.523 -0.4556  0.9615 -1.6467
 9915TIP3    H251161   5.136   1.777   2.484 -0.1766  0.5981 -0.8460
 9916TIP3   OH251162   4.313   3.764  13.285  0.4851 -0.1749  0.3881
 9916TIP3    H151163   4.370   3.795  13.355  0.5848  0.2223  0.1393
 9916TIP3    H251164   4.228   3.751  13.327  0.3936  0.6142  0.4748
 9917TIP3   OH251165   3.574   6.247   4.760 -0.5767  0.2416  0.5509
 9917TIP3    H151166   3.626   6.304   4.816  0.1730 -1.3426  1.5172
 9917TIP3    H251167   3.512   6.205   4.819 -0.2608 -0.9156  0.0751
 9918TIP3   OH251168   1.781   3.576  11.192 -0.0959  0.1169  0.1434
 9918TIP3    H151169   1.692   3.564  11.160  0.4599 -0.0471 -1.4241
 9918TIP3    H251170   1.832   3.600  11.114  1.0643  1.1196  1.1607
 9919TIP3   OH251171   5.167   3.990   5.939  0.5028  0.6472 -0.2450
 9919TIP3    H151172   5.083   3.983   5.984 -0.0090 -1.3816 -1.4229
 9919TIP3    H251173   5.230   3.955   6.002  0.2603  0.7133  0.0417
 9920TIP3   OH251174   6.348   3.601   2.105  0.3154 -0.3044 -0.3899
 9920TIP3    H151175   6.316   3.621   2.017 -2.7999 -0.8230  0.5147
 9920TIP3    H251176   6.355   3.687   2.147  3.8374  0.1856 -1.5943
 9921TIP3   OH251177   0.860   3.202  14.335 -0.1706 -0.6910  0.2537
 9921TIP3    H151178   0.948   3.185  14.368 -0.4383 -2.4057  0.1531
 9921TIP3    H251179   0.852   3.297  14.336  1.2175 -0.5608  1.4721
 9922TIP3   OH251180   4.688   6.018   5.570 -0.1496  0.5793 -0.0109
 9922TIP3    H151181   4.714   6.081   5.637  0.6021  1.0176 -0.6918
 9922TIP3    H251182   4.752   5.947   5.576  0.9458  1.4003 -1.3261
 9923TIP3   OH251183   5.204   4.458  10.419 -0.2970 -0.6722  0.6295
 9923TIP3    H151184   5.207   4.540  10.369 -1.4481 -1.1483 -0.2663
 9923TIP3    H251185   5.281   4.462  10.476  0.5976  0.2670 -0.5914
 9924TIP3   OH251186   6.424   1.387   0.668  0.1651 -0.4338 -0.3969
 9924TIP3    H151187   6.374   1.360   0.745 -0.0858 -0.9091 -0.7215
 9924TIP3    H251188   6.392   1.474   0.648  1.7905  0.6502  1.3514
 9925TIP3   OH251189   5.965   1.702  12.132 -0.1228 -0.3383  0.2299
 9925TIP3    H151190   5.873   1.699  12.109 -0.3044 -1.0803  1.0093
 9925TIP3    H251191   5.971   1.652  12.214  0.7030  1.0681  1.0681
 9926TIP3   OH251192   4.394   2.734  15.991  0.1947 -0.9981  0.2397
 9926TIP3    H151193   4.341   2.725  16.071  0.3228 -1.7590  0.2500
 9926TIP3    H251194   4.336   2.776  15.928  0.9006  2.0857  1.4934
 9927TIP3   OH251195   4.133   1.197   3.355 -0.2369 -0.4709 -0.0135
 9927TIP3    H151196   4.175   1.116   3.386  1.0169 -0.0397 -0.5074
 9927TIP3    H251197   4.084   1.170   3.277 -0.3400 -0.8640  0.1842
 9928TIP3   OH251198   5.414   0.951   3.328 -0.0192 -0.0398  0.5966
 9928TIP3    H151199   5.363   0.918   3.402  1.5702 -0.2259  1.6508
 9928TIP3    H251200   5.450   1.034   3.359  0.4483  0.0166 -0.0784
 9929TIP3   OH251201   1.235   6.386  13.847 -0.1571 -0.4348  0.0079
 9929TIP3    H151202   1.278   6.429  13.773 -1.2010 -1.4599 -1.2423
 9929TIP3    H251203   1.298   6.321  13.877 -0.2015 -0.9025 -0.8495
 9930TIP3   OH251204   1.381   5.536   3.822  0.6555  0.5601 -1.3594
 9930TIP3    H151205   1.406   5.451   3.787 -0.1932 -1.1958  1.8680
 9930TIP3    H251206   1.441   5.550   3.895 -2.3086  0.1500  1.3987
 9931TIP3   OH251207   1.428   5.041   1.296 -0.5146 -0.3427  0.0748
 9931TIP3    H151208   1.420   4.995   1.213  0.0073 -1.4731  0.6296
 9931TIP3    H251209   1.355   5.009   1.349 -0.8085  0.3227  0.0781
 9932TIP3   OH251210   1.737   3.307   3.012 -0.0335 -0.0577  0.1317
 9932TIP3    H151211   1.704   3.397   3.022 -0.4390 -0.0152 -1.3402
 9932TIP3    H251212   1.676   3.265   2.952  0.0995 -1.3684  0.8775
 9933TIP3   OH251213   0.448   3.975  17.289  0.5205 -0.6367 -0.0638
 9933TIP3    H151214   0.442   4.046  17.353  0.9084 -1.3745  0.8309
 9933TIP3    H251215   0.372   3.986  17.233 -0.2362 -0.3859  0.9749
 9934TIP3   OH251216   1.423   1.798   2.113  0.6078  0.0969 -0.1052
 9934TIP3    H151217   1.359   1.869   2.100  1.5287  0.8588 -0.6190
 9934TIP3    H251218   1.396   1.729   2.053  0.5494  0.6152 -0.6778
 9935TIP3   OH251219   1.757   5.472   2.577 -0.0508 -0.1049 -0.3231
 9935TIP3    H151220   1.698   5.452   2.650  1.7633  1.2289  1.6296
 9935TIP3    H251221   1.774   5.388   2.536  0.0057 -1.1364  1.7199
 9936TIP3   OH251222   6.613   0.950   2.863  0.2484  0.1346 -0.1442
 9936TIP3    H151223   6.687   1.002   2.832 -0.3012  0.0806 -1.6499
 9936TIP3    H251224   6.582   0.904   2.785 -1.7933  0.6806  0.2757
 9937TIP3   OH251225   1.342   0.176   1.292  0.4873 -0.1494 -0.5539
 9937TIP3    H151226   1.345   0.080   1.294 -0.6450 -0.1873  0.5353
 9937TIP3    H251227   1.306   0.201   1.377 -3.3272  1.0020 -2.2719
 9938TIP3   OH251228   0.944   4.999   5.521  0.0588 -0.0201 -0.0588
 9938TIP3    H151229   0.873   4.967   5.577  1.4475  1.3342  2.6739
 9938TIP3    H251230   0.949   4.935   5.450 -5.3236  1.0008 -1.7816
 9939TIP3   OH251231   6.480   6.315   0.697 -0.4310  0.7303  0.0898
 9939TIP3    H151232   6.474   6.375   0.771 -0.0454 -0.0334  0.7692
 9939TIP3    H251233   6.486   6.228   0.738 -0.3576  0.2849 -0.8430
 9940TIP3   OH251234   6.181   2.420  13.984 -0.3866 -0.5465 -0.1440
 9940TIP3    H151235   6.117   2.491  13.975 -1.4644 -1.3712  0.6509
 9940TIP3    H251236   6.228   2.419  13.901 -1.8591 -0.3038 -1.0317
 9941TIP3   OH251237   4.916   5.126   5.473 -0.8908  0.1297 -0.6665
 9941TIP3    H151238   4.949   5.194   5.413 -1.8215 -0.0103 -1.3533
 9941TIP3    H251239   4.863   5.174   5.536 -1.6471  0.0380 -1.2233
 9942TIP3   OH251240   1.003   1.700  11.512  0.1335 -0.4409 -0.4516
 9942TIP3    H151241   0.945   1.692  11.588 -0.0829 -0.6299 -0.6384
 9942TIP3    H251242   0.952   1.751  11.448 -0.1343 -1.2822 -0.9217
 9943TIP3   OH251243   2.867   6.342  14.456 -0.3932 -0.0365  0.2065
 9943TIP3    H151244   2.929   6.269  14.445  2.0468  2.0989 -1.2806
 9943TIP3    H251245   2.853   6.375  14.368 -0.3522  2.0923  0.9385
 9944TIP3   OH251246   3.353   2.358   6.253  0.0641  0.6112 -0.5265
 9944TIP3    H151247   3.297   2.435   6.266 -0.8629  0.0940 -1.3031
 9944TIP3    H251248   3.442   2.393   6.256 -0.3428  1.7546 -1.0035
 9945TIP3   OH251249   1.631   4.011   1.281  0.5625 -0.4103 -0.0989
 9945TIP3    H151250   1.677   3.999   1.198  0.9891 -2.5165  0.3732
 9945TIP3    H251251   1.540   3.989   1.261 -0.2377  2.9718 -0.8447
 9946TIP3   OH251252   0.923   2.102   4.985  0.8494  0.1589  0.2472
 9946TIP3    H151253   0.866   2.178   4.972  2.2901  1.5424  1.5610
 9946TIP3    H251254   0.951   2.078   4.897  0.3031  1.1132 -0.1996
 9947TIP3   OH251255   6.654   5.610   2.033  0.7570 -0.3514 -0.1808
 9947TIP3    H151256   6.611   5.525   2.040  0.0327  0.0289  0.1992
 9947TIP3    H251257   6.724   5.608   2.098  1.9556 -1.3240 -1.4453
 9948TIP3   OH251258   1.347   2.984  13.818  0.1349  0.2046  0.3600
 9948TIP3    H151259   1.369   2.891  13.811 -1.8211 -0.2191 -0.7022
 9948TIP3    H251260   1.432   3.029  13.810  1.0321 -1.4366  0.1671
 9949TIP3   OH251261   0.396   3.988  15.017 -0.3526  0.3534 -0.4737
 9949TIP3    H151262   0.357   3.926  15.079  1.1497 -0.2124 -0.0349
 9949TIP3    H251263   0.476   4.018  15.062 -1.9830  4.1934  0.2342
 9950TIP3   OH251264   5.794   3.815  16.454  0.2792  0.6445  0.2203
 9950TIP3    H151265   5.701   3.793  16.450  0.5014 -0.4913  0.7997
 9950TIP3    H251266   5.815   3.818  16.547  0.8599  0.6956  0.0940
 9951TIP3   OH251267   5.570   5.511   2.069  0.0847  0.4469 -0.0236
 9951TIP3    H151268   5.629   5.456   2.120  1.9686  2.3574 -0.0187
 9951TIP3    H251269   5.593   5.494   1.978 -0.1979  0.2826 -0.0629
 9952TIP3   OH251270   0.405   5.115   4.724 -0.2519  0.1004  0.2451
 9952TIP3    H151271   0.327   5.162   4.694 -1.0509 -0.5256  1.2864
 9952TIP3    H251272   0.478   5.169   4.693 -1.0278 -0.0412 -2.0021
 9953TIP3   OH251273   4.981   1.354  16.103  0.3086 -0.2922 -0.0376
 9953TIP3    H151274   4.986   1.278  16.161 -1.6946 -2.0246 -1.9359
 9953TIP3    H251275   5.058   1.347  16.047  1.2905  0.3608  1.2002
 9954TIP3   OH251276   6.143   4.629   4.218  0.0806  0.3777  0.1516
 9954TIP3    H151277   6.092   4.598   4.293 -0.0479 -0.8893 -0.4271
 9954TIP3    H251278   6.223   4.575   4.220 -0.6167 -0.7989 -1.4852
 9955TIP3   OH251279   5.586   4.483   0.354  0.3151  0.0811 -0.4905
 9955TIP3    H151280   5.505   4.512   0.313  0.5709  0.4835 -0.7097
 9955TIP3    H251281   5.618   4.560   0.400  0.2810 -0.2323  0.0750
 9956TIP3   OH251282   1.392   0.985   0.520 -0.3591  0.2133  0.2641
 9956TIP3    H151283   1.304   0.958   0.545 -1.3206 -1.6814 -4.2516
 9956TIP3    H251284   1.447   0.910   0.543 -0.5522 -0.0200 -0.0340
 9957TIP3   OH251285   3.011   0.222  15.532 -0.4102 -0.0195 -0.2613
 9957TIP3    H151286   2.969   0.179  15.457  0.2178 -0.3415 -0.4434
 9957TIP3    H251287   2.944   0.226  15.599 -1.1202  0.6615 -0.9899
 9958TIP3   OH251288   3.780   6.677  10.653 -0.2379  0.3627 -0.1222
 9958TIP3    H151289   3.744   6.752  10.607 -2.7825 -1.1350 -0.7522
 9958TIP3    H251290   3.819   6.714  10.732  0.1386  2.4856 -1.2228
 9959TIP3   OH251291   3.422   4.426   1.346  0.6051  0.2721  0.3434
 9959TIP3    H151292   3.345   4.452   1.396  0.8940  0.6091  0.6178
 9959TIP3    H251293   3.483   4.391   1.412 -0.4796 -2.9262 -0.1689
 9960TIP3   OH251294   3.446   5.277  12.573  0.1664  0.2617 -0.2676
 9960TIP3    H151295   3.494   5.195  12.586 -1.3312 -0.3799  1.6211
 9960TIP3    H251296   3.510   5.346  12.590  0.7015 -0.5611  1.1762
 9961TIP3   OH251297   0.528   0.238   5.845 -0.3618  0.0785 -0.3862
 9961TIP3    H151298   0.456   0.254   5.784 -2.2450  0.0781  1.7284
 9961TIP3    H251299   0.531   0.316   5.900  0.6502 -0.3316  0.1725
 9962TIP3   OH251300   1.885   6.636   2.294 -0.4280  0.0396 -0.6495
 9962TIP3    H151301   1.793   6.660   2.289 -0.2469  0.9928  0.1350
 9962TIP3    H251302   1.924   6.705   2.348  0.3966 -1.3251  0.5612
 9963TIP3   OH251303   4.975   2.957   0.672 -0.4459 -0.4228  0.3771
 9963TIP3    H151304   5.059   2.983   0.634 -0.8682  0.5967  0.1062
 9963TIP3    H251305   4.930   2.910   0.602 -1.4586  1.9416 -0.6624
 9964TIP3   OH251306   6.651   1.701   5.488 -0.0730  0.4305 -0.7983
 9964TIP3    H151307   6.672   1.608   5.493 -0.3946  0.4262  0.9773
 9964TIP3    H251308   6.727   1.740   5.444 -0.3866 -0.7715 -2.5318
 9965TIP3   OH251309   6.680   6.674  14.947 -0.4303 -0.2189 -0.2331
 9965TIP3    H151310   6.745   6.605  14.932  1.5180  1.5521 -0.4428
 9965TIP3    H251311   6.728   6.742  14.995 -1.7116  1.7834 -1.6411
 9966TIP3   OH251312   1.490   0.178  14.140 -0.0037  1.0121  0.0696
 9966TIP3    H151313   1.514   0.270  14.142  0.9903  0.7748 -0.0087
 9966TIP3    H251314   1.572   0.133  14.118 -0.0649 -0.0056  1.7356
 9967TIP3   OH251315   6.130   1.933  12.092 -0.7013  0.0340  0.6416
 9967TIP3    H151316   6.095   1.845  12.104 -1.6052 -0.0696 -2.0269
 9967TIP3    H251317   6.186   1.926  12.014  0.0031  1.6147  0.9556
 9968TIP3   OH251318   0.951   6.681  12.455  0.1236 -0.2115 -0.3209
 9968TIP3    H151319   1.025   6.691  12.395  2.0638 -0.5694  1.8621
 9968TIP3    H251320   0.949   6.587  12.475 -0.2445 -0.0524  0.4269
 9969TIP3   OH251321   3.418   5.671   4.285  0.2826  0.1620 -0.1308
 9969TIP3    H151322   3.427   5.576   4.282 -1.5233 -0.0647  0.2328
 9969TIP3    H251323   3.384   5.695   4.198  2.3890  0.7365 -0.8586
 9970TIP3   OH251324   1.818   5.390  11.426  0.3488 -0.2473 -0.1003
 9970TIP3    H151325   1.865   5.473  11.429 -0.7497  0.3962 -0.1632
 9970TIP3    H251326   1.837   5.354  11.339 -0.6237  0.8359 -0.7889
 9971TIP3   OH251327   0.667   6.081  12.807 -0.2919 -0.1659  0.5952
 9971TIP3    H151328   0.740   6.127  12.766 -0.8074  1.2082  1.1372
 9971TIP3    H251329   0.600   6.078  12.739  0.3653 -1.7566 -0.0226
 9972TIP3   OH251330   0.905   3.538   3.322  0.5302  0.0042 -0.1038
 9972TIP3    H151331   0.839   3.469   3.317 -0.0497  0.4350  1.2561
 9972TIP3    H251332   0.860   3.617   3.293  0.8919  0.0269 -0.6286
 9973TIP3   OH251333   1.169   6.013  16.991 -0.0742  0.0563  0.1201
 9973TIP3    H151334   1.249   5.992  17.039 -0.0366 -0.8821 -0.3176
 9973TIP3    H251335   1.136   5.928  16.961 -0.5026  0.5479 -0.8583
 9974TIP3   OH251336   6.684   4.713   0.480 -0.3446  0.1216 -0.2320
 9974TIP3    H151337   6.634   4.793   0.467  0.1815  0.5893  0.5755
 9974TIP3    H251338   6.687   4.672   0.393 -2.1159  0.0680 -0.2999
 9975TIP3   OH251339   3.639   2.520   3.396 -0.0580 -0.3351  0.1080
 9975TIP3    H151340   3.682   2.584   3.339 -0.3228  0.2587  0.5635
 9975TIP3    H251341   3.649   2.436   3.350  1.9364 -0.3050  0.3747
 9976TIP3   OH251342   1.435   5.394  10.694 -0.5235  0.1494  0.5521
 9976TIP3    H151343   1.434   5.490  10.691 -2.8800  0.1725 -0.2906
 9976TIP3    H251344   1.414   5.368  10.604  2.2206 -1.2683  0.2166
 9977TIP3   OH251345   3.043   2.878   0.234  0.5772  0.0113  0.3753
 9977TIP3    H151346   2.977   2.903   0.169  1.8320 -0.6101 -1.1891
 9977TIP3    H251347   3.071   2.791   0.208  1.3408 -0.1311  1.5820
 9978TIP3   OH251348   1.832   6.327   6.099 -0.0336  0.0761 -0.0936
 9978TIP3    H151349   1.918   6.311   6.138  0.2736  0.5658 -0.5547
 9978TIP3    H251350   1.845   6.314   6.005 -0.5808 -0.3278 -0.1207
 9979TIP3   OH251351   0.067   6.245  10.824 -0.0419  0.2757 -0.0261
 9979TIP3    H151352   0.066   6.335  10.855  1.3850  0.5804 -0.8039
 9979TIP3    H251353   0.101   6.195  10.898 -2.9132 -0.0191  1.2293
 9980TIP3   OH251354   0.729   4.751   6.440  0.3558 -0.1203  0.0393
 9980TIP3    H151355   0.714   4.811   6.513  0.7362 -1.0830  0.9443
 9980TIP3    H251356   0.642   4.738   6.402  0.4234  1.7988 -0.8491
 9981TIP3   OH251357   3.937   3.844  12.899  0.1491 -1.2519 -0.2614
 9981TIP3    H151358   3.878   3.777  12.864 -1.2401 -0.3969  0.3404
 9981TIP3    H251359   3.915   3.849  12.992  1.2753 -0.9958 -0.0023
 9982TIP3   OH251360   6.296   6.598   5.346 -0.3614  0.1551 -0.3839
 9982TIP3    H151361   6.260   6.512   5.367  1.7745 -0.6769  0.0957
 9982TIP3    H251362   6.258   6.620   5.261 -0.4223 -1.5840 -0.8392
 9983TIP3   OH251363   4.297   1.533   4.572  0.8771 -0.0018  0.1784
 9983TIP3    H151364   4.217   1.481   4.560  0.6744  0.2325  0.5215
 9983TIP3    H251365   4.297   1.556   4.664  0.4444  1.4661 -0.1685
 9984TIP3   OH251366   0.381   3.264  12.442 -0.0782  0.3559  0.0228
 9984TIP3    H151367   0.332   3.267  12.524 -1.0083  1.7062 -0.5555
 9984TIP3    H251368   0.438   3.341  12.446  1.1256 -0.5060  0.1276
 9985TIP3   OH251369   4.162   2.335   3.083 -0.2371 -0.2258  0.3035
 9985TIP3    H151370   4.071   2.307   3.077 -0.5034  0.7929 -0.9639
 9985TIP3    H251371   4.212   2.267   3.038 -0.5640 -0.0122 -0.3913
 9986TIP3   OH251372   1.122   2.590   1.237  0.3606  0.1609 -0.2859
 9986TIP3    H151373   1.077   2.513   1.202  0.7771  0.2933 -1.1477
 9986TIP3    H251374   1.129   2.649   1.162  0.5242  0.8181  0.2387
 9987TIP3   OH251375   0.210   4.339  11.552  0.4552  0.2515 -0.5032
 9987TIP3    H151376   0.211   4.420  11.501 -0.8585 -0.0291 -1.0049
 9987TIP3    H251377   0.235   4.271  11.489 -0.8537 -0.0527 -0.7113
 9988TIP3   OH251378   3.227   0.296  13.715 -0.3376 -0.5042 -0.0506
 9988TIP3    H151379   3.246   0.233  13.646 -2.3549 -0.1769 -0.9716
 9988TIP3    H251380   3.251   0.381  13.677 -1.4638 -0.3223 -0.3975
 9989TIP3   OH251381   4.206   3.991   1.463  0.1330  0.0463 -0.2969
 9989TIP3    H151382   4.203   3.896   1.473  1.4430  0.0642  0.4680
 9989TIP3    H251383   4.158   4.025   1.538  0.0403  0.0004 -0.3351
 9990TIP3   OH251384   2.644   4.805   5.581  0.0110 -0.1220 -0.1067
 9990TIP3    H151385   2.568   4.853   5.549 -0.7531 -1.0695  0.2481
 9990TIP3    H251386   2.657   4.735   5.517 -0.1482 -0.6743  0.4572
 9991TIP3   OH251387   5.304   1.976  11.053  0.5170 -0.0796  0.0079
 9991TIP3    H151388   5.223   1.928  11.037 -0.9536  1.9516  0.8962
 9991TIP3    H251389   5.367   1.939  10.991 -1.2739 -1.2421 -1.2011
 9992TIP3   OH251390   1.795   1.638  10.596  0.3213  0.0585 -1.0771
 9992TIP3    H151391   1.751   1.558  10.567 -0.6327  0.0397  0.3253
 9992TIP3    H251392   1.880   1.609  10.630 -0.4449 -0.5315  0.4114
 9993TIP3   OH251393   5.980   1.497  16.142  0.2992 -0.3603  0.2335
 9993TIP3    H151394   6.069   1.528  16.128  1.5756 -3.0328  1.6965
 9993TIP3    H251395   5.980   1.406  16.112 -1.9552 -0.4313  0.2333
 9994TIP3   OH251396   3.412   2.461  17.000  0.2878 -0.1096 -0.5621
 9994TIP3    H151397   3.451   2.543  17.029 -0.9476 -0.0580  1.1382
 9994TIP3    H251398   3.420   2.462  16.905  2.1555  0.9990 -0.4262
 9995TIP3   OH251399   2.950   3.921  11.745 -0.5734  0.4404 -0.1072
 9995TIP3    H151400   2.861   3.929  11.711 -1.8935  0.4937  3.0207
 9995TIP3    H251401   2.952   3.835  11.787  1.5642 -0.4115 -1.7826
 9996TIP3   OH251402   5.409   0.742  14.700 -0.6734 -0.6419 -0.5887
 9996TIP3    H151403   5.424   0.687  14.777 -0.0432 -1.1497 -1.0665
 9996TIP3    H251404   5.496   0.773  14.675 -0.9748  0.2412 -0.5767
 9997TIP3   OH251405   5.815   6.465   3.803  0.0186  0.2727  0.7781
 9997TIP3    H151406   5.836   6.397   3.738  0.0262 -0.9050  1.9648
 9997TIP3    H251407   5.900   6.490   3.839 -0.1367 -1.6363  2.7641
 9998TIP3   OH251408   6.556   6.585   4.986 -0.7610 -0.2984 -0.0322
 9998TIP3    H151409   6.567   6.596   4.891  0.7793 -0.1531  0.1419
 9998TIP3    H251410   6.564   6.491   5.000  1.3602 -0.1238  0.1881
 9999TIP3   OH251411   2.087   5.207  14.550 -0.1765 -0.1360  0.3066
 9999TIP3    H151412   2.072   5.201  14.644 -2.1114  2.1419  0.2410
 9999TIP3    H251413   2.173   5.250  14.541  0.8356 -1.9242  0.9333
10000TIP3   OH251414   4.810   3.561  13.042  0.4621 -0.2655  0.7522
10000TIP3    H151415   4.813   3.466  13.054  1.6730 -0.1873  1.1779
10000TIP3    H251416   4.761   3.573  12.960 -0.5397 -1.1996  1.1936
10001TIP3   OH251417   5.399   1.605   3.856 -0.1644 -0.1063  0.1949
10001TIP3    H151418   5.415   1.675   3.919  2.3303  1.8721 -2.3717
10001TIP3    H251419   5.311   1.573   3.877  0.5232  0.2651  4.6420
10002TIP3   OH251420   5.282   5.634   2.135 -1.1337  0.2166 -0.0659
10002TIP3    H151421   5.359   5.592   2.097  0.0387  0.6126  1.7314
10002TIP3    H251422   5.257   5.701   2.071  0.8881  1.0187 -0.1023
10003TIP3   OH251423   0.543   3.783   5.310 -0.2707 -0.7372  0.1145
10003TIP3    H151424   0.620   3.832   5.339 -0.6200 -0.7330  1.0641
10003TIP3    H251425   0.578   3.717   5.250  0.7080 -1.8144  1.7736
10004TIP3   OH251426   6.126   4.103  15.633  0.0367 -0.1927 -0.1132
10004TIP3    H151427   6.220   4.084  15.642  0.5389  1.7492 -0.6959
10004TIP3    H251428   6.123   4.181  15.578 -1.9840 -0.6444 -0.7277
10005TIP3   OH251429   3.173   6.041   1.434 -0.8423 -0.6089 -0.3427
10005TIP3    H151430   3.198   6.132   1.449 -2.0894 -0.1028 -1.1690
10005TIP3    H251431   3.079   6.045   1.416 -0.6147 -1.8469 -2.0088
10006TIP3   OH251432   3.709   3.022  17.202  0.4176 -0.4698 -0.1698
10006TIP3    H151433   3.633   3.077  17.220 -0.4273 -0.6882 -2.7745
10006TIP3    H251434   3.784   3.079  17.219 -0.2847  0.0460  1.4954
10007TIP3   OH251435   2.957   4.151  17.312  0.0783  0.0982  0.3926
10007TIP3    H151436   3.017   4.078  17.298  0.7077  0.5610  0.6623
10007TIP3    H251437   3.011   4.229  17.301 -0.8463  0.5687 -1.1758
10008TIP3   OH251438   1.887   2.945  13.595 -0.2963  0.5882 -0.1294
10008TIP3    H151439   1.887   3.032  13.636  0.9167 -0.0266  1.2688
10008TIP3    H251440   1.882   2.884  13.669 -2.4128 -0.5737 -1.1335
10009TIP3   OH251441   4.989   0.113  13.844  0.0067 -0.7482 -0.5847
10009TIP3    H151442   5.010   0.206  13.832  0.2175 -0.8932 -1.4442
10009TIP3    H251443   4.902   0.103  13.807 -0.2255 -0.7974 -0.0289
10010TIP3   OH251444   6.575   2.284   1.258  0.0219  0.3184 -0.3464
10010TIP3    H151445   6.654   2.234   1.237  0.4365  1.0533 -0.5898
10010TIP3    H251446   6.535   2.303   1.173  0.9249  2.0537 -0.4306
10011TIP3   OH251447   1.008   5.558   4.332  0.2269 -0.2196  0.2064
10011TIP3    H151448   0.984   5.555   4.424  1.1987  2.5097  0.6429
10011TIP3    H251449   0.972   5.477   4.295  0.5127 -1.7832  3.0977
10012TIP3   OH251450   2.447   6.315  14.026 -0.1686  0.0483 -0.0410
10012TIP3    H151451   2.364   6.282  13.992  1.0997 -2.9913 -0.4760
10012TIP3    H251452   2.422   6.385  14.086 -3.1384 -1.5069  0.7275
10013TIP3   OH251453   6.023   5.046   1.245 -0.1965  0.0876  0.5218
10013TIP3    H151454   6.011   4.986   1.319 -0.7372 -0.6704 -0.1721
10013TIP3    H251455   5.956   5.113   1.259  0.6201  0.7443  1.4770
10014TIP3   OH251456   4.284   0.283  17.005 -0.5045 -0.2424 -0.8543
10014TIP3    H151457   4.299   0.189  17.000 -1.1938 -0.4596  0.7188
10014TIP3    H251458   4.248   0.306  16.920 -2.8693 -1.9002 -0.3766
10015TIP3   OH251459   4.411   2.772   3.102 -0.5779  0.1599  0.2297
10015TIP3    H151460   4.370   2.710   3.163 -1.3255  0.8965  0.5030
10015TIP3    H251461   4.363   2.853   3.115  0.3274  0.7796 -0.1899
10016TIP3   OH251462   0.374   2.172  12.491  0.1483  0.6474  0.0050
10016TIP3    H151463   0.364   2.255  12.537  1.1029  0.1062  1.2672
10016TIP3    H251464   0.393   2.108  12.560 -2.6338 -1.0732 -0.6620
10017TIP3   OH251465   1.844   2.809   2.211 -0.6253 -0.7834 -0.0434
10017TIP3    H151466   1.930   2.767   2.212 -1.1050 -1.8028 -0.3029
10017TIP3    H251467   1.858   2.892   2.166  0.4769 -0.3507  1.0601
10018TIP3   OH251468   3.958   1.409  13.881  0.0334 -0.1950  0.2378
10018TIP3    H151469   4.029   1.439  13.824 -2.7572 -0.4857 -3.8079
10018TIP3    H251470   3.945   1.317  13.858 -1.3178 -0.2911  1.2267
10019TIP3   OH251471   4.987   5.681  15.938  0.2367 -0.0849 -0.3578
10019TIP3    H151472   4.921   5.612  15.944 -0.6940  0.8724  1.0897
10019TIP3    H251473   4.957   5.737  15.866 -0.3114  0.1115  0.0191
10020TIP3   OH251474   2.995   3.790   6.039 -0.2519 -0.0416  0.1411
10020TIP3    H151475   2.972   3.718   5.980  0.1773  0.2735 -0.4198
10020TIP3    H251476   2.963   3.762   6.124 -0.2231 -0.8357 -0.1004
10021TIP3   OH251477   1.852   6.002  13.549 -0.0581 -0.2343  0.2506
10021TIP3    H151478   1.898   5.933  13.502 -0.5771  0.1598 -0.8740
10021TIP3    H251479   1.922   6.053  13.590  0.5523  0.3363 -1.3970
10022TIP3   OH251480   6.083   5.382   4.173  0.1935 -0.3846 -0.1584
10022TIP3    H151481   6.146   5.454   4.175 -0.1536 -0.0675 -0.6392
10022TIP3    H251482   6.129   5.311   4.128  0.4238 -0.3631  0.0405
10023TIP3   OH251483   6.694   2.447  13.945 -0.6396  0.3168  0.4517
10023TIP3    H151484   6.762   2.506  13.976 -0.4771 -0.6146  1.9999
10023TIP3    H251485   6.615   2.501  13.941 -0.0828  1.1085 -0.1757
10024TIP3   OH251486   6.526   4.433  12.299  0.2830  0.2564  0.1166
10024TIP3    H151487   6.483   4.369  12.243 -0.5257 -0.1194  1.1264
10024TIP3    H251488   6.459   4.457  12.364  2.1403 -2.0766  3.2071
10025TIP3   OH251489   2.536   2.213  10.103 -0.2029 -0.3204  0.5041
10025TIP3    H151490   2.489   2.150  10.048  0.5608 -0.2754 -0.2157
10025TIP3    H251491   2.467   2.269  10.139 -0.9012 -1.6512  1.2877
10026TIP3   OH251492   2.198   2.282   3.048 -0.6466  0.1332  0.8512
10026TIP3    H151493   2.147   2.355   3.012  1.0894  0.4746 -1.0811
10026TIP3    H251494   2.287   2.299   3.020  0.3760 -1.1031  3.0869
10027TIP3   OH251495   6.016   4.604  16.338 -0.3571  0.1885 -0.6562
10027TIP3    H151496   5.964   4.580  16.414  1.6223  0.2311  0.7554
10027TIP3    H251497   6.008   4.529  16.279  0.8928 -1.4378  1.1163
10028TIP3   OH251498   1.166   3.809  12.630  0.0193 -0.3858  0.5857
10028TIP3    H151499   1.109   3.747  12.584  1.2914 -2.1646  1.3035
10028TIP3    H251500   1.106   3.875  12.665 -1.2551 -0.4861 -1.2659
10029TIP3   OH251501   5.412   3.440   0.497 -0.0430  0.7518 -0.4323
10029TIP3    H151502   5.342   3.403   0.551 -0.3234  1.3032 -0.4129
10029TIP3    H251503   5.408   3.534   0.513  0.0572  0.8972 -1.1868
10030TIP3   OH251504   3.378   5.099  14.881  0.2054 -0.1982  0.3505
10030TIP3    H151505   3.315   5.030  14.864 -0.1804  0.2966 -0.2725
10030TIP3    H251506   3.444   5.090  14.812 -0.0324  0.2618  0.0550
10031TIP3   OH251507   0.754   2.467   0.738  0.8478 -0.0856 -0.0665
10031TIP3    H151508   0.708   2.462   0.655  1.8002 -0.7743 -0.5694
10031TIP3    H251509   0.771   2.561   0.750 -0.6745  0.1881  0.1549
10032TIP3   OH251510   3.209   6.376   2.167 -0.2864 -0.5201 -0.0348
10032TIP3    H151511   3.272   6.415   2.228  0.5483 -3.1827  0.9512
10032TIP3    H251512   3.126   6.378   2.213 -0.6318  1.4334 -0.6473
10033TIP3   OH251513   4.893   5.463  11.685  0.5569 -0.3993 -0.1905
10033TIP3    H151514   4.943   5.543  11.700  1.3710 -0.7527 -0.9734
10033TIP3    H251515   4.894   5.418  11.770  1.0056 -0.0815 -0.0240
10034TIP3   OH251516   2.457   1.377   2.850 -0.3288 -0.3689 -0.2863
10034TIP3    H151517   2.408   1.458   2.866  0.8872  0.1951  0.8617
10034TIP3    H251518   2.392   1.308   2.852 -1.0678  0.3323  1.3290
10035TIP3   OH251519   4.979   3.439   4.089 -0.5497  0.1548 -0.1482
10035TIP3    H151520   4.957   3.394   4.008 -1.0239 -0.3578  0.2600
10035TIP3    H251521   5.064   3.480   4.072 -0.8008  0.3279 -1.0054
10036TIP3   OH251522   0.791   2.311   4.904  0.5260  0.2786  0.0699
10036TIP3    H151523   0.827   2.381   4.958  0.8449  0.9683 -0.9846
10036TIP3    H251524   0.756   2.357   4.827 -1.0492 -0.5352  0.2539
10037TIP3   OH251525   1.293   3.957  15.802 -0.1221  0.2044  0.2937
10037TIP3    H151526   1.217   3.956  15.860 -0.9541 -2.9365 -0.5981
10037TIP3    H251527   1.340   4.037  15.824 -1.6439  0.3662  3.5658
10038TIP3   OH251528   3.228   3.836  14.418 -0.5761  0.1717  0.3596
10038TIP3    H151529   3.152   3.855  14.363 -0.6357 -0.3881  0.2461
10038TIP3    H251530   3.222   3.742  14.436 -0.3007  0.2621  0.9386
10039TIP3   OH251531   4.306   3.888   3.520  0.1805 -0.4468 -0.3415
10039TIP3    H151532   4.315   3.808   3.469 -2.1108 -1.4140  0.6340
10039TIP3    H251533   4.236   3.936   3.477  0.0557  0.0014  0.3531
10040TIP3   OH251534   6.390   4.419  15.414  0.1221  0.1422 -0.0757
10040TIP3    H151535   6.476   4.383  15.435  0.7371  1.1636 -0.7924
10040TIP3    H251536   6.393   4.509  15.447 -0.8155  0.0778  0.2283
10041TIP3   OH251537   5.164   0.376  15.108 -0.3342 -0.0495 -0.0020
10041TIP3    H151538   5.102   0.357  15.038 -0.0426 -1.2805  0.0620
10041TIP3    H251539   5.206   0.292  15.127 -1.6724 -0.1894  2.8854
10042TIP3   OH251540   0.263   1.447   1.914  0.1068 -0.6082  0.0328
10042TIP3    H151541   0.189   1.428   1.972 -0.1418  2.0816  0.7486
10042TIP3    H251542   0.294   1.361   1.885  0.4847 -2.1833  4.3664
10043TIP3   OH251543   0.199   1.836  12.151  0.2550  0.2306  0.2989
10043TIP3    H151544   0.161   1.787  12.078  0.1563  0.2062  0.3659
10043TIP3    H251545   0.187   1.778  12.227  3.5573 -1.4001 -0.2126
10044TIP3   OH251546   3.902   4.934   5.487  0.6473 -0.8748 -0.0330
10044TIP3    H151547   3.992   4.917   5.457  0.4774 -0.0930 -1.0582
10044TIP3    H251548   3.862   4.847   5.491  0.9762 -1.1061 -1.1881
10045TIP3   OH251549   6.284   2.183  13.651 -0.0234 -0.4714  0.4883
10045TIP3    H151550   6.345   2.249  13.620 -0.9038  0.9803  1.7037
10045TIP3    H251551   6.266   2.129  13.574  1.3878  0.1420 -0.3194
10046TIP3   OH251552   2.071   4.577   0.182 -0.0602  0.1351 -0.0130
10046TIP3    H151553   2.116   4.646   0.133  0.3826  1.9840  2.7741
10046TIP3    H251554   2.121   4.569   0.264 -4.2021  1.8361  3.0286
10047TIP3   OH251555   4.171   2.417  11.607  0.4834  0.0352 -0.5819
10047TIP3    H151556   4.174   2.369  11.689  0.4229  0.5483 -0.2782
10047TIP3    H251557   4.114   2.492  11.624  0.7757  0.3570 -0.9753
10048TIP3   OH251558   0.532   3.553  11.067  0.1441 -0.3057  0.2475
10048TIP3    H151559   0.465   3.580  11.129 -0.0063  1.1820 -0.5227
10048TIP3    H251560   0.601   3.620  11.076  0.4562 -0.5000 -0.6445
10049TIP3   OH251561   3.985   0.507  12.922  0.7709 -0.0223  0.4395
10049TIP3    H151562   4.037   0.476  12.848 -0.7915 -1.2522 -0.2014
10049TIP3    H251563   3.993   0.438  12.988  1.0029  0.4027  0.8631
10050TIP3   OH251564   5.500   4.589  11.268  0.0307  0.0906  0.4685
10050TIP3    H151565   5.587   4.582  11.305  0.3168  0.3691 -0.1324
10050TIP3    H251566   5.510   4.564  11.176 -0.8395 -1.5048  0.7653
10051TIP3   OH251567   6.566   6.129  15.260 -0.2569  0.0209 -1.0181
10051TIP3    H151568   6.604   6.199  15.313 -2.7860  0.3047  0.5569
10051TIP3    H251569   6.575   6.050  15.313  0.9361 -0.5594 -2.0178
10052TIP3   OH251570   3.536   2.517  12.047  0.2870 -0.4773  0.6088
10052TIP3    H151571   3.493   2.571  11.980  1.4921 -1.5144 -1.0688
10052TIP3    H251572   3.607   2.572  12.079  0.4449 -0.4200  0.1661
10053TIP3   OH251573   4.666   5.641  14.105 -0.4297 -0.1294  0.3958
10053TIP3    H151574   4.670   5.635  14.010  3.3593  1.9459  0.2362
10053TIP3    H251575   4.703   5.558  14.136 -0.2077 -0.1745  0.0196
10054TIP3   OH251576   4.533   0.170   3.535  0.3738  0.2883  0.2663
10054TIP3    H151577   4.605   0.225   3.504 -1.2271  2.3645  0.0292
10054TIP3    H251578   4.497   0.217   3.610 -1.1017 -0.3709  0.0206
10055TIP3   OH251579   1.767   4.171   4.021  0.3862  0.3664  0.0891
10055TIP3    H151580   1.783   4.208   4.108 -0.3533 -0.8333  0.7624
10055TIP3    H251581   1.838   4.206   3.967 -0.6783  3.4078  0.4324
10056TIP3   OH251582   1.205   0.056   5.691 -0.3566 -0.6926  0.1973
10056TIP3    H151583   1.235   0.001   5.764 -3.3516 -1.9962  0.6233
10056TIP3    H251584   1.172  -0.007   5.626  0.3339  0.5251 -1.4137
10057TIP3   OH251585   5.401   3.159   2.679 -0.0353  0.1675  0.1374
10057TIP3    H151586   5.400   3.212   2.600  1.7506 -0.7250 -0.5403
10057TIP3    H251587   5.408   3.222   2.750  3.7178  0.9256 -0.7158
10058TIP3   OH251588   4.294   1.486  15.368 -0.1360 -0.4494 -0.3243
10058TIP3    H151589   4.359   1.537  15.320 -0.0777 -2.1597 -2.1788
10058TIP3    H251590   4.322   1.395  15.358 -1.6784 -1.0680  0.6117
10059TIP3   OH251591   2.220   5.325  12.078 -0.3823 -0.3068 -0.6735
10059TIP3    H151592   2.278   5.359  12.010 -0.6416  0.5225 -0.4811
10059TIP3    H251593   2.206   5.233  12.053  0.6904 -0.4097 -0.9363
10060TIP3   OH251594   3.555   5.763   0.810  0.9321 -0.3724 -0.1984
10060TIP3    H151595   3.523   5.811   0.887 -0.0704 -1.9826  0.4584
10060TIP3    H251596   3.501   5.795   0.738  0.0915 -0.6686  0.2792
10061TIP3   OH251597   0.653   4.227   2.661 -0.4600  0.1813  0.1536
10061TIP3    H151598   0.559   4.245   2.668 -0.4683 -0.2308  1.3446
10061TIP3    H251599   0.692   4.281   2.730  0.4811  2.1953 -1.8075
10062TIP3   OH251600   3.095   6.714  13.576  0.3794  0.1776  0.9692
10062TIP3    H151601   3.153   6.681  13.645  0.2799  1.8958  1.9310
10062TIP3    H251602   3.037   6.775  13.621 -2.1450 -1.3691  0.0088
10063TIP3   OH251603   0.395   1.102   4.794  0.5959 -0.4614 -0.0359
10063TIP3    H151604   0.354   1.066   4.873 -0.0017  0.7893  0.2523
10063TIP3    H251605   0.424   1.190   4.819  1.6721 -0.5698 -0.8193
10064TIP3   OH251606   1.430   5.932   4.927  0.2919  0.3608  0.1118
10064TIP3    H151607   1.370   5.858   4.926  0.6573  0.0504  0.4706
10064TIP3    H251608   1.397   5.989   4.996 -0.3808  0.8737 -0.6178
10065TIP3   OH251609   4.749   4.778   1.328  0.6087 -0.1484 -0.1249
10065TIP3    H151610   4.748   4.843   1.398  1.2963  1.1888 -1.3233
10065TIP3    H251611   4.669   4.727   1.342  0.9717 -0.2664  1.9116
10066TIP3   OH251612   4.083   2.691   3.901 -0.0350 -0.1288  0.0704
10066TIP3    H151613   4.106   2.779   3.930  0.0720  1.2297 -3.5820
10066TIP3    H251614   3.987   2.691   3.898 -0.0139  0.3854 -1.1666
10067TIP3   OH251615   2.260   3.196   5.274 -0.1986  0.6175 -0.3469
10067TIP3    H151616   2.246   3.120   5.330 -1.0918 -0.0769 -1.4514
10067TIP3    H251617   2.276   3.268   5.335  2.0737 -0.6690  0.7052
10068TIP3   OH251618   4.309   4.616  12.591  0.2571 -0.2258 -0.1178
10068TIP3    H151619   4.298   4.609  12.496  0.1931 -0.6769 -0.0797
10068TIP3    H251620   4.237   4.565  12.627  0.0463  0.2767  0.1801
10069TIP3   OH251621   2.396   1.594  11.520 -0.3707 -0.1184 -0.2634
10069TIP3    H151622   2.433   1.617  11.605  0.3615 -0.6243 -0.4324
10069TIP3    H251623   2.470   1.558  11.471 -0.9366 -0.4706 -0.8778
10070TIP3   OH251624   4.399   2.844   4.121 -0.3980 -0.4091  0.6777
10070TIP3    H151625   4.401   2.922   4.176  3.4798 -0.3533  0.7276
10070TIP3    H251626   4.373   2.876   4.035 -0.4645  0.6416  1.0735
10071TIP3   OH251627   0.165   5.230  12.428 -0.1141  0.4836 -0.0752
10071TIP3    H151628   0.206   5.167  12.369 -1.2517  1.4045 -1.9206
10071TIP3    H251629   0.085   5.256  12.384 -1.1102  1.1025  1.9750
10072TIP3   OH251630   0.491   0.404  15.394 -0.1330 -0.0462  0.3310
10072TIP3    H151631   0.505   0.485  15.443 -1.3586  0.6329 -0.3936
10072TIP3    H251632   0.463   0.341  15.461  2.2815 -0.3794  1.1675
10073TIP3   OH251633   4.751   5.516  15.120 -0.4761  0.6383 -0.4717
10073TIP3    H151634   4.726   5.425  15.136 -0.5761  0.8663  0.7063
10073TIP3    H251635   4.678   5.568  15.152 -0.6191  1.1436 -1.5471
10074TIP3   OH251636   6.760   5.994   4.402  0.4328  0.0535  0.4092
10074TIP3    H151637   6.704   6.049   4.346 -1.2944 -2.1792 -0.1838
10074TIP3    H251638   6.830   6.053   4.431  1.3834  1.4502 -3.9436
10075TIP3   OH251639   4.796   0.895   5.062 -0.4449 -0.3855 -0.1160
10075TIP3    H151640   4.748   0.840   5.001 -0.0885 -0.4274 -0.3624
10075TIP3    H251641   4.737   0.907   5.137 -1.6291  1.1860 -1.2425
10076TIP3   OH251642   1.985   6.765   6.545 -0.1557 -0.0157  0.2072
10076TIP3    H151643   2.042   6.832   6.508 -1.2725  1.7771  1.5206
10076TIP3    H251644   1.899   6.807   6.550 -0.8587 -1.4753  1.3013
10077TIP3   OH251645   1.122   5.903  13.333 -0.2392 -0.3763 -0.2866
10077TIP3    H151646   1.064   5.891  13.409  0.0066 -0.8117 -0.1643
10077TIP3    H251647   1.158   5.991  13.344 -0.7637 -0.1536 -0.2892
10078TIP3   OH251648   4.468   2.640  13.085  0.1484 -0.0610  0.0431
10078TIP3    H151649   4.494   2.686  13.164 -3.1188 -0.1707  1.3438
10078TIP3    H251650   4.506   2.691  13.013  1.1591  1.4640  1.5986
10079TIP3   OH251651   4.364   3.468   1.384 -0.5768 -0.1729  0.1903
10079TIP3    H151652   4.359   3.549   1.435  0.0736 -0.1675  0.2585
10079TIP3    H251653   4.301   3.480   1.313  1.0540  1.3239 -1.0895
10080TIP3   OH251654   0.679   3.487  15.516  0.2009  0.1834 -0.0096
10080TIP3    H151655   0.746   3.466  15.581 -0.1328  1.1520  0.6666
10080TIP3    H251656   0.622   3.411  15.515  1.3275 -0.6965 -0.6523
10081TIP3   OH251657   2.011   3.350   1.305  0.0694  0.2563 -0.8651
10081TIP3    H151658   1.949   3.399   1.251  0.2986  1.2795 -0.2469
10081TIP3    H251659   2.092   3.351   1.255 -0.3038 -0.7327 -1.4935
10082TIP3   OH251660   4.042   5.202   4.743 -0.7703 -0.1315  0.1512
10082TIP3    H151661   4.050   5.120   4.790 -0.9905  0.1304  0.6527
10082TIP3    H251662   4.122   5.250   4.764  1.1465 -1.6195 -2.9857
10083TIP3   OH251663   4.712   1.439  17.123 -0.4777 -0.3730  0.7081
10083TIP3    H151664   4.788   1.404  17.077 -1.1773  0.6066 -1.3057
10083TIP3    H251665   4.749   1.484  17.200  1.0631  0.5324 -0.4932
10084TIP3   OH251666   4.238   5.266   3.508  0.2619 -0.1438  0.3044
10084TIP3    H151667   4.170   5.259   3.440 -0.5933 -0.8104  1.2036
10084TIP3    H251668   4.261   5.176   3.528  2.3343  0.0644 -0.8353
10085TIP3   OH251669   4.791   4.339  15.089 -0.5646  0.5610 -0.3515
10085TIP3    H151670   4.744   4.278  15.033  1.5210 -0.0216 -1.5824
10085TIP3    H251671   4.850   4.386  15.030  0.2027  1.4395  1.0517
10086TIP3   OH251672   6.697   2.662   1.404  0.1913  0.1274  0.0605
10086TIP3    H151673   6.639   2.620   1.341  0.5982 -0.4272  0.0535
10086TIP3    H251674   6.683   2.616   1.486 -0.9936  1.4199  0.6333
10087TIP3   OH251675   4.296   2.852   5.663  0.0710  0.0776  0.0366
10087TIP3    H151676   4.370   2.846   5.724 -0.4436 -1.4881  0.5487
10087TIP3    H251677   4.329   2.816   5.581 -0.7902 -3.1439  0.9767
10088TIP3   OH251678   0.227   2.475  16.749  0.5340  0.0264 -0.1618
10088TIP3    H151679   0.177   2.406  16.793  0.6563 -0.7779 -1.2490
10088TIP3    H251680   0.314   2.436  16.736  0.8417  0.6803 -0.0871
10089TIP3   OH251681   5.738   1.231   2.064  0.2554 -0.8049  0.0241
10089TIP3    H151682   5.833   1.216   2.065  0.4145 -0.0260 -1.0367
10089TIP3    H251683   5.700   1.143   2.062  0.9227 -1.1422  1.1638
10090TIP3   OH251684   3.212   3.281  16.368 -0.6043 -0.1722 -0.3476
10090TIP3    H151685   3.264   3.341  16.314 -1.0367  0.9000  0.4013
10090TIP3    H251686   3.239   3.194  16.339  0.8774  0.3633 -0.6695
10091TIP3   OH251687   0.887   0.785  16.735  0.2389 -0.3324  0.0559
10091TIP3    H151688   0.893   0.843  16.811 -1.6084 -0.4936  0.3801
10091TIP3    H251689   0.968   0.735  16.736  1.1424  1.0618  0.7325
10092TIP3   OH251690   3.411   1.622  15.111 -0.6066  0.7627 -0.6144
10092TIP3    H151691   3.486   1.623  15.051  0.5462 -1.4773  0.6571
10092TIP3    H251692   3.438   1.678  15.183 -0.4600  0.5723 -0.5192
10093TIP3   OH251693   5.279   4.402   0.986 -0.4119  0.1074  0.5424
10093TIP3    H151694   5.360   4.437   1.025  0.8585  0.0236 -1.8164
10093TIP3    H251695   5.211   4.464   1.012  1.1340  2.3734 -0.5178
10094TIP3   OH251696   1.099   0.434  15.993  0.1433  0.2924 -0.0749
10094TIP3    H151697   1.180   0.434  15.941 -0.4053  0.5840 -0.9555
10094TIP3    H251698   1.044   0.368  15.952  0.0624 -0.1585  0.7470
10095TIP3   OH251699   6.257   2.732   5.753 -0.1022 -0.2377 -0.1989
10095TIP3    H151700   6.181   2.685   5.717 -0.2991 -1.2479  1.4060
10095TIP3    H251701   6.294   2.671   5.817  1.2282  0.8027  0.0578
10096TIP3   OH251702   4.038   3.777  11.308  0.7343 -0.2095 -0.5063
10096TIP3    H151703   4.038   3.690  11.350  1.0525 -0.9284 -1.9462
10096TIP3    H251704   4.058   3.759  11.217  0.5031  1.3758 -0.8852
10097TIP3   OH251705   2.453   4.318   0.313 -0.3882 -0.1645  0.6525
10097TIP3    H151706   2.519   4.311   0.244 -0.3037  0.1722  0.6962
10097TIP3    H251707   2.378   4.269   0.280  0.2703 -1.5302  1.0830
10098TIP3   OH251708   6.742   5.504  13.229 -0.1242  0.0224  0.4083
10098TIP3    H151709   6.740   5.600  13.225 -2.3220 -0.0105 -0.7289
10098TIP3    H251710   6.711   5.475  13.143  1.2108 -1.7480  0.4620
10099TIP3   OH251711   4.221   1.123   0.835  0.6740 -0.2752  0.6291
10099TIP3    H151712   4.230   1.082   0.749 -0.8183  0.7579 -0.0771
10099TIP3    H251713   4.247   1.214   0.820  1.1228 -0.2646  1.4535
10100TIP3   OH251714   3.590   4.018   5.562  0.2422 -0.2437 -0.1895
10100TIP3    H151715   3.504   3.977   5.563  0.5134 -0.8215 -0.1860
10100TIP3    H251716   3.607   4.036   5.470  0.4778 -0.9111 -0.2823
10101TIP3   OH251717   0.647   0.644  13.995 -0.6507 -0.1976  0.5068
10101TIP3    H151718   0.638   0.636  13.900 -0.6817 -1.2098  0.5845
10101TIP3    H251719   0.563   0.613  14.030 -0.2904 -0.7803  0.8861
10102TIP3   OH251720   1.280   5.216   2.161 -0.3525 -0.1861  0.3545
10102TIP3    H151721   1.248   5.272   2.090 -0.9996 -2.5715 -1.3805
10102TIP3    H251722   1.375   5.212   2.147 -0.3514  0.1660  0.2555
10103TIP3   OH251723   1.765   4.974  16.900  0.5709  0.2415 -0.0625
10103TIP3    H151724   1.680   5.017  16.905  0.5037  0.1269 -0.2040
10103TIP3    H251725   1.825   5.043  16.873  0.3046  0.0579 -1.1855
10104TIP3   OH251726   2.871   0.566  11.964  0.5610 -0.0251 -0.6131
10104TIP3    H151727   2.899   0.580  12.054 -1.1434 -0.2146 -0.0125
10104TIP3    H251728   2.837   0.652  11.936 -1.0042 -0.4823 -0.2489
10105TIP3   OH251729   6.587   4.375  14.172 -0.1797  0.3051 -0.1129
10105TIP3    H151730   6.493   4.365  14.156 -0.3141 -2.3003  1.6682
10105TIP3    H251731   6.597   4.465  14.203 -2.0345  0.7142 -0.6090
10106TIP3   OH251732   3.413   0.179   3.897  0.0021 -0.1755  0.3797
10106TIP3    H151733   3.410   0.102   3.841 -1.0075 -0.3597  0.6626
10106TIP3    H251734   3.491   0.227   3.869  1.0980 -1.6976  0.7521
10107TIP3   OH251735   1.331   1.694   0.741  0.3787 -0.3320 -0.2863
10107TIP3    H151736   1.420   1.659   0.751  0.1503 -1.2579 -1.2656
10107TIP3    H251737   1.275   1.626   0.778  0.0471 -0.0175 -0.2165
10108TIP3   OH251738   2.863   2.505   1.107  0.0892 -0.5109  0.2824
10108TIP3    H151739   2.944   2.554   1.119 -0.9911  1.0272  1.8001
10108TIP3    H251740   2.891   2.416   1.087  2.1283  0.7218 -2.9680
10109TIP3   OH251741   3.813   5.568  14.856 -0.2202 -0.2683  0.1554
10109TIP3    H151742   3.834   5.549  14.764  1.6978  0.4463  0.4039
10109TIP3    H251743   3.750   5.499  14.881  0.0427 -1.1059 -1.3710
10110TIP3   OH251744   1.316   0.022   0.049  0.3510  0.5517  0.1526
10110TIP3    H151745   1.318   0.103  -0.002 -0.4898  0.3818 -0.1667
10110TIP3    H251746   1.247  -0.030   0.008  0.3028  0.0271  0.8926
10111TIP3   OH251747   1.392   6.068   5.153 -0.0804  0.5169 -0.0210
10111TIP3    H151748   1.472   6.104   5.190 -0.2150 -0.0262  0.8205
10111TIP3    H251749   1.362   6.004   5.217  0.9005 -2.1486 -2.0241
10112TIP3   OH251750   3.541   2.442   2.423  0.4619  0.1233  0.4236
10112TIP3    H151751   3.507   2.465   2.337  3.3391  1.3718 -0.4830
10112TIP3    H251752   3.575   2.353   2.412  1.9089  0.7192 -0.1322
10113TIP3   OH251753   5.461   6.066  14.099  0.5088  0.2474 -0.2162
10113TIP3    H151754   5.507   6.025  14.026  0.7343  1.4524 -0.7671
10113TIP3    H251755   5.465   6.160  14.081 -2.2653  0.4078 -0.3602
10114TIP3   OH251756   2.334   5.992  13.321  0.1428  0.1677 -0.4857
10114TIP3    H151757   2.259   5.984  13.262  0.2293 -0.5208 -0.5065
10114TIP3    H251758   2.298   5.973  13.408  0.0404  1.0677 -0.3180
10115TIP3   OH251759   4.090   4.231  14.719 -0.0131  0.3306 -0.1474
10115TIP3    H151760   4.031   4.281  14.774  0.5428  1.1162 -0.2531
10115TIP3    H251761   4.178   4.264  14.741  0.3158 -0.2241 -0.5939
10116TIP3   OH251762   4.695   1.098   0.288  0.4167  0.7929 -0.1889
10116TIP3    H151763   4.619   1.095   0.230 -0.8798 -0.1225  1.4743
10116TIP3    H251764   4.711   1.006   0.311  1.0838  1.1179  0.6745
10117TIP3   OH251765   6.343   1.825  14.526 -0.2727 -0.9347  0.5493
10117TIP3    H151766   6.248   1.821  14.519 -0.2181  0.3089 -1.9472
10117TIP3    H251767   6.373   1.738  14.501 -0.7077 -1.1575  0.7835
10118TIP3   OH251768   6.570   4.153  13.747 -0.5474 -0.0362 -0.2035
10118TIP3    H151769   6.564   4.140  13.652 -2.3188 -1.8038  0.0831
10118TIP3    H251770   6.480   4.147  13.778 -0.4100  3.5079  1.3387
10119TIP3   OH251771   5.073   0.588   1.293  0.7605 -0.0389  0.6072
10119TIP3    H151772   5.069   0.495   1.270 -0.6500  0.3135 -0.6996
10119TIP3    H251773   5.007   0.599   1.361  1.0741 -0.0244  0.9115
10120TIP3   OH251774   0.268   4.309  13.391 -0.3861 -0.1866 -0.2042
10120TIP3    H151775   0.353   4.353  13.384  1.0866 -2.6079  1.2334
10120TIP3    H251776   0.208   4.378  13.421  1.1954  1.4362 -0.6307
10121TIP3   OH251777   6.520   3.638   5.547  0.0600  0.1959 -0.0641
10121TIP3    H151778   6.475   3.580   5.610  0.4439 -1.2786 -1.0788
10121TIP3    H251779   6.495   3.603   5.461  0.6128  1.3383 -0.7135
10122TIP3   OH251780   0.347   3.154  13.150  0.0638  0.2832 -0.2425
10122TIP3    H151781   0.341   3.129  13.058  0.3628  1.6760 -0.6594
10122TIP3    H251782   0.256   3.172  13.176  0.1077  1.0817 -0.6228
10123TIP3   OH251783   0.397   4.142  10.861  0.3250  0.1141 -0.1571
10123TIP3    H151784   0.459   4.092  10.807  2.0695 -0.6969  2.4043
10123TIP3    H251785   0.438   4.145  10.947 -2.4327  1.1193  1.2234
10124TIP3   OH251786   3.481   0.088   5.785  0.3678  0.3859 -0.5561
10124TIP3    H151787   3.463   0.179   5.762 -2.2779  0.3224  0.8163
10124TIP3    H251788   3.530   0.093   5.867  0.8787  0.5641 -0.8702
10125TIP3   OH251789   6.374   4.683   0.205 -0.3065 -0.0330 -0.0642
10125TIP3    H151790   6.310   4.639   0.262 -0.7598  0.6613 -0.0258
10125TIP3    H251791   6.367   4.636   0.122  0.6101 -1.2771  0.5347
10126TIP3   OH251792   6.212   1.253   2.004 -0.0480  0.3340 -0.5185
10126TIP3    H151793   6.296   1.222   1.971 -1.1288  0.0194 -3.2331
10126TIP3    H251794   6.234   1.324   2.063  2.1436 -0.2323 -0.5773
10127TIP3   OH251795   0.766   5.543   2.054  0.3667  0.1302  0.5018
10127TIP3    H151796   0.838   5.533   2.116 -0.5626 -0.6635  1.4698
10127TIP3    H251797   0.804   5.593   1.982  1.8361 -0.1074  1.0805
10128TIP3   OH251798   3.181   4.494   1.463  0.3032 -0.2792 -0.4808
10128TIP3    H151799   3.128   4.545   1.525  0.5136 -0.6941  0.0491
10128TIP3    H251800   3.129   4.415   1.447  0.3256 -0.2485 -0.7124
10129TIP3   OH251801   5.932   4.914   0.412 -0.2617  0.2993 -0.4786
10129TIP3    H151802   5.960   4.880   0.497  0.6159  0.3076 -0.7524
10129TIP3    H251803   5.962   5.005   0.411  0.7050 -0.0109 -1.2170
10130TIP3   OH251804   1.689   5.761   0.329  0.3691  0.0982  0.2377
10130TIP3    H151805   1.756   5.818   0.367  0.3009  0.1027  0.3540
10130TIP3    H251806   1.716   5.673   0.354  1.3653 -0.0700 -1.3280
10131TIP3   OH251807   1.515   4.155   0.168  0.5812  1.2027 -0.6537
10131TIP3    H151808   1.487   4.237   0.208  0.2938  1.5901 -1.6139
10131TIP3    H251809   1.435   4.115   0.136  0.6418  0.2294  0.3523
10132TIP3   OH251810   5.333   3.454  12.672  0.0357  0.4693  0.6017
10132TIP3    H151811   5.280   3.526  12.706 -0.8391  0.1433 -0.0371
10132TIP3    H251812   5.273   3.402  12.619 -0.0986 -2.2676  3.1156
10133TIP3   OH251813   4.133   2.605   4.836  0.2154  0.0638 -0.0548
10133TIP3    H151814   4.191   2.583   4.909 -0.2655  0.5933  0.5020
10133TIP3    H251815   4.060   2.544   4.844  0.5202 -0.3726 -0.5480
10134TIP3   OH251816   4.424   1.310   3.468 -0.3161 -0.1557 -0.1574
10134TIP3    H151817   4.362   1.356   3.412 -0.8843  2.2216  2.2279
10134TIP3    H251818   4.510   1.337   3.436 -0.6248  0.6219 -0.3499
10135TIP3   OH251819   5.687   6.398   0.136 -0.0583 -0.0707  0.2696
10135TIP3    H151820   5.622   6.384   0.068 -0.1623  1.6003 -0.0187
10135TIP3    H251821   5.758   6.338   0.114 -0.8926 -0.9135 -0.2084
10136TIP3   OH251822   6.538   0.503  12.232 -0.5711 -0.3307  0.4566
10136TIP3    H151823   6.470   0.436  12.237 -1.2070  0.3605  2.2015
10136TIP3    H251824   6.545   0.537  12.322  1.7908 -0.0709  0.2531
10137TIP3   OH251825   2.545   1.535   6.463  0.1096 -0.2539  0.4675
10137TIP3    H151826   2.466   1.535   6.518 -0.2023 -0.6008  0.0309
10137TIP3    H251827   2.532   1.460   6.404 -0.1216  0.8125 -0.8775
10138TIP3   OH251828   2.514   0.679   6.271 -0.5288  0.8611  0.4580
10138TIP3    H151829   2.529   0.663   6.365  0.3089  1.0922  0.3712
10138TIP3    H251830   2.571   0.616   6.227 -0.3056  1.3011  0.1087
10139TIP3   OH251831   2.306   5.062   5.137  0.4192 -0.3850  0.5443
10139TIP3    H151832   2.367   5.048   5.210  1.5809  0.3117 -0.2470
10139TIP3    H251833   2.250   4.985   5.137 -0.0729 -0.0748  2.6024
10140TIP3   OH251834   3.373   6.663  11.271 -0.3484  0.0700  0.4308
10140TIP3    H151835   3.451   6.707  11.238  0.4528 -0.5858  1.3990
10140TIP3    H251836   3.303   6.688  11.210  0.7939 -0.0731 -0.9793
10141TIP3   OH251837   5.510   1.634   5.853 -0.1657  0.5531 -0.0494
10141TIP3    H151838   5.517   1.585   5.936  0.7742  0.3781 -0.2241
10141TIP3    H251839   5.477   1.569   5.791  0.8258  0.1966 -0.2183
10142TIP3   OH251840   1.280   2.103  13.502 -0.3164  0.1090  0.4258
10142TIP3    H151841   1.285   2.027  13.560 -0.1932 -1.9502 -2.1076
10142TIP3    H251842   1.188   2.131  13.506 -0.4372 -0.3571  1.1160
10143TIP3   OH251843   1.043   6.459   1.825  0.3614 -0.2437  0.1470
10143TIP3    H151844   0.993   6.456   1.743  0.1632  0.8268  0.2128
10143TIP3    H251845   1.005   6.388   1.878  0.4229 -0.8820 -0.6376
10144TIP3   OH251846   5.389   3.327  17.080  0.5632  0.3991  0.0961
10144TIP3    H151847   5.431   3.360  17.159  0.5065  0.7370 -0.0163
10144TIP3    H251848   5.316   3.274  17.112 -0.1055  1.3996  0.2517
10145TIP3   OH251849   1.404   1.221  15.679 -0.4024  0.3504 -0.3086
10145TIP3    H151850   1.390   1.140  15.630 -0.6669 -0.0842  0.4547
10145TIP3    H251851   1.469   1.197  15.745 -0.9211  0.5975  0.3001
10146TIP3   OH251852   4.691   5.786  13.369 -0.1510 -0.1415  0.5878
10146TIP3    H151853   4.618   5.803  13.310  0.4864  1.7981  0.2699
10146TIP3    H251854   4.650   5.767  13.453 -1.0362  0.5960  0.3385
10147TIP3   OH251855   0.621   1.057  11.146 -0.0350  0.2895  0.1042
10147TIP3    H151856   0.644   1.122  11.212  1.3087 -1.0676  1.0358
10147TIP3    H251857   0.677   1.077  11.071 -0.4964  0.9250 -0.0771
10148TIP3   OH251858   1.352   3.109   3.741  0.2933  0.1923  0.3160
10148TIP3    H151859   1.316   3.191   3.776  1.9948  1.5971 -0.9807
10148TIP3    H251860   1.288   3.082   3.675  0.5066  1.4698 -0.4615
10149TIP3   OH251861   3.974   4.187   0.437  0.2775  0.1561  0.0852
10149TIP3    H151862   3.913   4.180   0.511  0.0555 -0.2313 -0.1328
10149TIP3    H251863   4.054   4.224   0.476  0.3704 -0.6065  0.6462
10150TIP3   OH251864   1.496   1.267  13.978  0.2163  0.5925 -0.3729
10150TIP3    H151865   1.458   1.181  13.993 -1.4748  1.6113  1.7822
10150TIP3    H251866   1.477   1.286  13.886 -1.1726 -0.5273 -0.3517
10151TIP3   OH251867   2.129   5.094  11.953  0.1046  0.0003  0.2348
10151TIP3    H151868   2.187   5.108  11.878  0.5787  1.2086  0.8009
10151TIP3    H251869   2.041   5.099  11.916  0.3164 -1.8028 -0.6254
10152TIP3   OH251870   0.951   1.283  11.412 -0.0031  0.1857 -0.6752
10152TIP3    H151871   1.013   1.268  11.341  1.1366 -0.2211  0.3611
10152TIP3    H251872   0.967   1.211  11.473 -1.4209  0.1554 -0.3064
10153TIP3   OH251873   3.846   3.968  10.550  0.4919  0.0539 -0.4962
10153TIP3    H151874   3.870   4.026  10.479 -0.9180  0.8102 -0.3880
10153TIP3    H251875   3.890   4.005  10.627  0.7763  0.1174 -0.6860
10154TIP3   OH251876   6.619   0.745   1.462 -0.5048 -0.2356  0.1224
10154TIP3    H151877   6.617   0.840   1.449 -1.0180 -0.3775 -0.9820
10154TIP3    H251878   6.710   0.721   1.446 -0.5948 -0.0567 -0.7133
10155TIP3   OH251879   1.296   1.014  11.686  0.4504 -0.4556  0.2795
10155TIP3    H151880   1.358   1.062  11.630  0.4845 -0.3845  0.3777
10155TIP3    H251881   1.352   0.966  11.747  0.4531  2.5560  2.9266
10156TIP3   OH251882   0.862   3.431   0.165  0.2126  0.3389  0.9002
10156TIP3    H151883   0.884   3.440   0.257 -0.4347 -0.2869  1.1279
10156TIP3    H251884   0.942   3.401   0.123 -0.4519 -3.2582  1.9289
10157TIP3   OH251885   5.947   1.775   1.771  0.0468 -0.0037  0.7090
10157TIP3    H151886   6.033   1.816   1.767  0.0419 -0.0123  0.4975
10157TIP3    H251887   5.891   1.841   1.812  0.1222  0.0565  0.7149
10158TIP3   OH251888   0.843   0.641  15.570  0.0447 -0.2284  0.1741
10158TIP3    H151889   0.874   0.557  15.537  0.2557  0.5438 -1.6826
10158TIP3    H251890   0.894   0.656  15.650  2.0212 -0.5849 -0.9663
10159TIP3   OH251891   2.575   2.952  12.554 -0.6904 -0.1642 -0.1352
10159TIP3    H151892   2.573   2.856  12.551 -0.5896 -0.1605 -0.3772
10159TIP3    H251893   2.602   2.978  12.466  0.0451  0.0644  0.1465
10160TIP3   OH251894   2.548   1.837  13.541 -0.0647  0.1903 -0.2529
10160TIP3    H151895   2.626   1.785  13.521 -0.5039 -0.9393  0.8392
10160TIP3    H251896   2.519   1.806  13.627 -2.5519 -0.5019 -1.2213
10161TIP3   OH251897   1.552   3.032   1.148  0.2476 -0.6086 -0.2313
10161TIP3    H151898   1.540   3.052   1.240 -1.1941  2.1691 -0.9164
10161TIP3    H251899   1.638   3.069   1.126 -0.4611  0.9473 -0.4924
10162TIP3   OH251900   3.837   2.000  15.027  0.0183 -0.2467  0.2991
10162TIP3    H151901   3.807   2.028  15.113  0.4810 -1.1817  0.7801
10162TIP3    H251902   3.894   1.925  15.045  1.7872  0.8005 -0.6509
10163TIP3   OH251903   2.282   4.913  11.259 -0.1154  0.3433 -0.1164
10163TIP3    H151904   2.213   4.974  11.236 -1.3961 -0.8898  0.2951
10163TIP3    H251905   2.355   4.935  11.202 -0.1662  2.8570  0.6718
10164TIP3   OH251906   1.385   3.204  14.605  0.3098  0.0645 -0.4678
10164TIP3    H151907   1.400   3.278  14.547 -0.8635 -0.9217 -2.1183
10164TIP3    H251908   1.309   3.230  14.658  0.3022  0.2825 -0.5861
10165TIP3   OH251909   4.805   0.763  12.681 -0.1741 -0.0197  0.0770
10165TIP3    H151910   4.872   0.703  12.714 -0.9632 -2.6418 -2.6468
10165TIP3    H251911   4.740   0.768  12.751  0.9331 -0.5815  1.1870
10166TIP3   OH251912   4.890   3.691   2.982 -0.1014  0.4058 -0.4111
10166TIP3    H151913   4.919   3.676   3.072  0.3089 -0.6418 -0.7053
10166TIP3    H251914   4.964   3.736   2.940 -0.4304  1.2138 -0.1422
10167TIP3   OH251915   4.272   2.097   0.347  0.3539 -0.0708 -0.4757
10167TIP3    H151916   4.312   2.159   0.408 -0.5045 -1.5612  1.6967
10167TIP3    H251917   4.346   2.045   0.315  0.7310  0.2906 -0.2089
10168TIP3   OH251918   2.939   4.865   4.372  0.4708 -0.0131  0.2705
10168TIP3    H151919   2.930   4.952   4.333 -3.4094 -0.6457 -0.6755
10168TIP3    H251920   2.921   4.804   4.300  1.8516 -1.6013  1.1944
10169TIP3   OH251921   3.469   1.428   5.919 -0.4334  0.4056 -0.9458
10169TIP3    H151922   3.422   1.415   5.837 -0.8078 -1.4217 -0.4942
10169TIP3    H251923   3.417   1.493   5.966 -2.4800 -1.3885 -0.5667
10170TIP3   OH251924   4.164   2.138  15.810  0.7471 -0.1373  0.0588
10170TIP3    H151925   4.138   2.105  15.724 -1.9686 -0.0982  0.7734
10170TIP3    H251926   4.137   2.070  15.871  0.0491  1.0310  1.1003
10171TIP3   OH251927   1.330   6.157   4.723 -0.2540  0.1055 -0.7428
10171TIP3    H151928   1.390   6.218   4.765 -1.2325  1.1345 -0.7812
10171TIP3    H251929   1.274   6.126   4.795  0.5260 -1.1196 -0.6437
10172TIP3   OH251930   2.625   3.014  13.986  0.2877  0.4087  0.3706
10172TIP3    H151931   2.686   3.001  13.913  2.7616 -0.5956  2.4519
10172TIP3    H251932   2.548   2.963  13.963  1.1682 -0.2164 -1.3464
10173TIP3   OH251933   6.073   1.231  16.254  0.1347 -0.1177  0.3514
10173TIP3    H151934   6.069   1.261  16.345 -1.5865 -0.0316  0.2827
10173TIP3    H251935   6.157   1.264  16.221  0.1172  1.1109  1.4719
10174TIP3   OH251936   3.882   4.876  17.287 -0.2766  0.0443 -0.5366
10174TIP3    H151937   3.931   4.916  17.359 -0.8534 -1.5552  0.8161
10174TIP3    H251938   3.791   4.900  17.304 -0.7864 -2.4848  0.8939
10175TIP3   OH251939   4.451   1.212  16.484 -0.0404 -0.1852  0.5153
10175TIP3    H151940   4.483   1.151  16.551  4.3958  1.6254  0.4016
10175TIP3    H251941   4.473   1.170  16.401  3.4012  1.4021  0.4324
10176TIP3   OH251942   0.965   6.766  10.820 -0.5401 -0.7992  0.4282
10176TIP3    H151943   0.875   6.754  10.790 -0.2506 -0.0218 -0.8342
10176TIP3    H251944   0.965   6.734  10.910 -2.6250  1.2788  1.2416
10177TIP3   OH251945   2.642   3.701  16.580 -0.2683  0.3008 -0.4773
10177TIP3    H151946   2.564   3.662  16.539  0.9716 -1.8653 -0.9644
10177TIP3    H251947   2.680   3.755  16.511 -0.4689  0.0586 -0.7822
10178TIP3   OH251948   5.052   1.092   5.311  0.6297  0.1174  0.2900
10178TIP3    H151949   5.111   1.017   5.318  1.1331  0.2609 -1.8121
10178TIP3    H251950   5.089   1.158   5.370  0.2909 -1.1705  2.0203
10179TIP3   OH251951   4.063   0.002   0.488 -0.4226 -0.2819 -0.4831
10179TIP3    H151952   4.107  -0.057   0.550 -1.0475  0.1819  0.4359
10179TIP3    H251953   4.115   0.083   0.491 -1.5466  0.4398  0.9751
10180TIP3   OH251954   2.427   4.987   6.620  0.1189  0.3335 -0.1011
10180TIP3    H151955   2.378   4.936   6.684  0.9444 -0.5067 -0.1204
10180TIP3    H251956   2.406   5.078   6.641  1.8014  0.1990  2.5666
10181TIP3   OH251957   4.276   4.228   3.593 -0.1882  0.1820  0.0235
10181TIP3    H151958   4.290   4.181   3.511  0.5388  2.6114 -1.3246
10181TIP3    H251959   4.183   4.214   3.613 -0.6418  0.3711 -1.7732
10182TIP3   OH251960   2.285   4.258  16.451  0.5581  0.3797  0.6693
10182TIP3    H151961   2.354   4.304  16.403 -1.5212  0.8699 -2.1086
10182TIP3    H251962   2.304   4.165  16.438  0.3695  0.5076 -0.7209
10183TIP3   OH251963   3.419   2.756  15.875  0.2422 -0.4981 -0.5862
10183TIP3    H151964   3.498   2.796  15.911  0.4251 -1.1450 -0.2596
10183TIP3    H251965   3.357   2.755  15.948  0.4735 -1.4354 -0.3942
10184TIP3   OH251966   0.556   2.987   0.476  0.2230 -0.1639 -0.1038
10184TIP3    H151967   0.520   2.919   0.418 -0.9536 -0.2540  0.6967
10184TIP3    H251968   0.619   3.034   0.422 -0.9484 -0.1455 -1.5141
10185TIP3   OH251969   0.988   5.293   2.580 -0.2746  0.0282  0.0691
10185TIP3    H151970   0.939   5.210   2.573 -1.5262  0.6910  0.5893
10185TIP3    H251971   1.006   5.318   2.490  0.8398 -1.1960 -0.0851
10186TIP3   OH251972   2.368   3.207  16.169  0.2013  0.0237  0.4053
10186TIP3    H151973   2.322   3.163  16.241  0.7550 -0.3760  0.5184
10186TIP3    H251974   2.452   3.162  16.163  0.5173  0.6451  0.0942
10187TIP3   OH251975   5.853   2.483   2.382 -0.3146 -0.1827  0.0451
10187TIP3    H151976   5.794   2.420   2.424 -0.8277 -0.4446 -1.0424
10187TIP3    H251977   5.817   2.569   2.405  0.1728 -0.2729  1.2194
10188TIP3   OH251978   2.403   6.084   2.893 -0.2044 -0.0166 -0.4904
10188TIP3    H151979   2.407   6.036   2.811  0.4420  1.7271 -1.5404
10188TIP3    H251980   2.490   6.123   2.904 -0.1546 -0.5062  1.2296
10189TIP3   OH251981   5.407   1.769   5.509 -0.5359  0.3624  0.4342
10189TIP3    H151982   5.484   1.821   5.487 -0.2172  0.7802  2.3165
10189TIP3    H251983   5.391   1.789   5.602 -1.2871 -1.7777  0.8226
10190TIP3   OH251984   4.565   0.566   2.186 -0.3236  0.0265  0.3505
10190TIP3    H151985   4.623   0.538   2.115  0.5052  1.7792  0.2876
10190TIP3    H251986   4.477   0.561   2.149 -0.0282 -0.4843 -0.2987
10191TIP3   OH251987   2.563   2.773   2.038 -0.1549 -0.2603  0.2714
10191TIP3    H151988   2.479   2.802   2.002 -0.5970  1.8968  2.7900
10191TIP3    H251989   2.564   2.678   2.021 -2.7138 -0.2259 -0.5470
10192TIP3   OH251990   2.821   2.523   3.602 -0.1241  0.3545  0.2712
10192TIP3    H151991   2.884   2.520   3.674  0.7910 -0.4799 -0.5399
10192TIP3    H251992   2.870   2.493   3.526 -1.4626 -0.1265 -0.4256
10193TIP3   OH251993   2.824   4.877   5.823 -0.0116  0.2841  0.2683
10193TIP3    H151994   2.790   4.857   5.736  0.2445  0.1357  0.1993
10193TIP3    H251995   2.755   4.927   5.865  0.0603  0.8029 -0.2055
10194TIP3   OH251996   5.959   2.659  15.906 -0.3364  0.3053 -0.0797
10194TIP3    H151997   6.010   2.682  15.984  1.4907 -1.1798 -0.7455
10194TIP3    H251998   6.021   2.667  15.834 -0.4314 -3.2912 -0.7274
10195TIP3   OH251999   2.817   5.127   3.981  0.4520 -0.0494 -0.1115
10195TIP3    H152000   2.852   5.090   3.900 -0.7532 -2.7303  0.4858
10195TIP3    H252001   2.725   5.145   3.961  0.2529 -0.3389  0.5327
10196TIP3   OH252002   3.821   0.382  16.067 -0.0660 -0.3007 -0.1182
10196TIP3    H152003   3.842   0.473  16.049  1.0325 -0.6019 -0.4180
10196TIP3    H252004   3.745   0.386  16.126  0.0987  0.8022  0.0370
10197TIP3   OH252005   5.902   0.773  13.004  0.1835  0.3845  0.8601
10197TIP3    H152006   5.966   0.794  13.073 -1.2411  0.1364  2.3094
10197TIP3    H252007   5.953   0.777  12.923  2.4921 -1.6105  2.0617
10198TIP3   OH252008   5.755   1.885  14.340  0.0568 -0.9901  0.2763
10198TIP3    H152009   5.824   1.895  14.274  0.9244 -0.2489  1.2622
10198TIP3    H252010   5.755   1.969  14.387 -2.6878 -0.3165 -0.7714
10199TIP3   OH252011   5.654   4.148  13.912  0.0898  1.0636 -0.1750
10199TIP3    H152012   5.714   4.108  13.849  0.9391  0.2249  1.1284
10199TIP3    H252013   5.613   4.220  13.863  0.1307 -0.0308 -1.9082
10200TIP3   OH252014   6.277   4.393   4.010 -0.3343 -0.1254 -0.3382
10200TIP3    H152015   6.351   4.446   3.978 -0.4833  0.9669  1.0212
10200TIP3    H252016   6.200   4.432   3.969 -0.2981 -0.3149 -0.5886
10201TIP3   OH252017   6.713   5.888   5.761  0.1405 -0.3031  0.1145
10201TIP3    H152018   6.718   5.859   5.852  0.2863  1.8498  0.8615
10201TIP3    H252019   6.667   5.972   5.765  3.6880  1.9619 -1.1961
10202TIP3   OH252020   1.644   2.519   0.151  0.0992  0.4419  0.2203
10202TIP3    H152021   1.712   2.571   0.107  0.7134 -0.4085  0.1440
10202TIP3    H252022   1.665   2.529   0.244  1.8097 -1.7019  0.1463
10203TIP3   OH252023   2.686   2.556  15.482  0.4465 -0.2068 -0.6009
10203TIP3    H152024   2.612   2.498  15.467  0.9351 -0.8840 -0.4590
10203TIP3    H252025   2.668   2.598  15.566 -0.0425  0.0685 -0.8380
10204TIP3   OH252026   6.524   3.252   0.751 -0.2093 -0.4587 -0.0049
10204TIP3    H152027   6.495   3.326   0.697  0.5593  0.8147  1.2455
10204TIP3    H252028   6.449   3.193   0.753 -1.0207  0.5030 -0.6656
10205TIP3   OH252029   5.840   0.011   1.315  0.1485  0.5774  0.3051
10205TIP3    H152030   5.759   0.008   1.367 -0.5347  0.3188 -0.7484
10205TIP3    H252031   5.813  -0.014   1.227  1.5459 -0.4036  0.1294
10206TIP3   OH252032   2.510   4.745   4.674  0.0710 -0.0665  0.3381
10206TIP3    H152033   2.462   4.760   4.755  2.9764  1.9958  1.8583
10206TIP3    H252034   2.562   4.666   4.691  1.8199  1.1954  1.1957
10207TIP3   OH252035   0.733   4.081   5.269 -0.8454  0.4015 -0.6506
10207TIP3    H152036   0.801   4.146   5.287  0.4297 -1.1152  0.2108
10207TIP3    H252037   0.731   4.025   5.346 -0.6774 -1.6391 -2.0527
10208TIP3   OH252038   4.796   3.047   3.871  0.4471 -0.5043 -0.0958
10208TIP3    H152039   4.823   2.976   3.813  0.2949 -0.8791  0.2894
10208TIP3    H252040   4.876   3.075   3.914  0.5270 -0.3605 -0.3348
10209TIP3   OH252041   3.002   2.535   5.339 -0.2380 -0.0289  0.2802
10209TIP3    H152042   3.003   2.443   5.313 -0.7560 -0.1380  0.6265
10209TIP3    H252043   3.059   2.579   5.276  0.0352 -0.5918  0.1301
10210TIP3   OH252044   6.728   1.507  14.635 -0.5350 -0.0385 -0.0959
10210TIP3    H152045   6.652   1.488  14.690 -0.6381  2.4920  0.7509
10210TIP3    H252046   6.715   1.597  14.606  0.5508 -0.6127 -2.6583
10211TIP3   OH252047   1.508   2.397   3.875  0.2562  0.3009  0.3510
10211TIP3    H152048   1.457   2.416   3.797  2.1785  1.0156 -0.7891
10211TIP3    H252049   1.570   2.469   3.882  1.1186 -0.5152  1.6929
10212TIP3   OH252050   6.701   3.433  14.237  0.7983  0.1632 -0.0282
10212TIP3    H152051   6.665   3.503  14.183  1.2896  0.4444  0.0049
10212TIP3    H252052   6.667   3.353  14.198  1.7134  0.3154 -1.1893
10213TIP3   OH252053   1.496   5.655   6.383  0.0642  0.6780 -0.6942
10213TIP3    H152054   1.578   5.665   6.431 -0.8282 -2.4244  1.8135
10213TIP3    H252055   1.442   5.729   6.410  0.6087  0.4963  0.9473
10214TIP3   OH252056   6.191   6.747  12.791  0.8784  0.0555 -0.1471
10214TIP3    H152057   6.238   6.746  12.708 -0.5276 -0.7447 -0.9798
10214TIP3    H252058   6.217   6.666  12.835 -0.3565 -0.8615 -1.0246
10215TIP3   OH252059   3.459   3.467  14.154 -0.1193 -0.4415  0.0099
10215TIP3    H152060   3.481   3.454  14.247  2.0449 -0.0134 -0.3862
10215TIP3    H252061   3.428   3.558  14.150 -0.3606 -0.5070  0.3296
10216TIP3   OH252062   5.065   1.914  11.365 -0.0846  0.1130  0.2684
10216TIP3    H152063   5.153   1.948  11.379 -0.1987  0.5705 -0.0980
10216TIP3    H252064   5.072   1.857  11.289  0.5562 -2.4515  2.1197
10217TIP3   OH252065   3.931   1.412  14.695 -0.6239 -0.7213 -0.2028
10217TIP3    H152066   3.932   1.328  14.740 -0.7619  0.3553  1.9651
10217TIP3    H252067   3.841   1.422  14.664 -1.2716 -0.3773  1.6573
10218TIP3   OH252068   0.469   3.962   1.919  0.0947 -1.0485  0.1141
10218TIP3    H152069   0.461   4.014   1.999  2.0564  2.4219 -1.7058
10218TIP3    H252070   0.550   3.913   1.930  1.1836  0.5798 -0.2209
10219TIP3   OH252071   1.895   1.769   4.237 -0.6146 -0.1813 -0.1025
10219TIP3    H152072   1.884   1.864   4.230  1.3866  0.0788 -0.4921
10219TIP3    H252073   1.929   1.755   4.325 -3.5965 -0.9217  1.0570
10220TIP3   OH252074   4.288   2.763   0.638 -0.3207  0.3151  0.6113
10220TIP3    H152075   4.321   2.685   0.593  0.0997  0.7049  0.2261
10220TIP3    H252076   4.219   2.731   0.695 -2.1921  0.0301 -1.6864
10221TIP3   OH252077   2.058   0.393  11.693 -0.0778 -0.3936  0.9747
10221TIP3    H152078   2.061   0.298  11.708 -0.2316 -0.8979 -1.5959
10221TIP3    H252079   2.150   0.420  11.691  0.2150 -1.2372 -1.7147
10222TIP3   OH252080   0.246   1.671  16.873  0.2722  0.4970 -0.9037
10222TIP3    H152081   0.330   1.693  16.912  0.4602  0.4888 -1.3003
10222TIP3    H252082   0.243   1.721  16.791  0.3474 -0.2831 -1.3993
10223TIP3   OH252083   4.983   0.032  11.317 -0.1434  0.0432 -0.4199
10223TIP3    H152084   4.949   0.061  11.402 -1.9546 -0.9997 -0.7350
10223TIP3    H252085   5.062  -0.016  11.339 -1.3142 -1.4213  0.8788
10224TIP3   OH252086   1.156   0.604  15.421 -0.4528 -0.2780  0.0282
10224TIP3    H152087   1.163   0.669  15.491 -0.1519  0.1861 -0.4246
10224TIP3    H252088   1.144   0.656  15.342  1.1087 -0.7093 -0.5218
10225TIP3   OH252089   4.853   3.323   3.183  0.2793 -0.3436 -0.5003
10225TIP3    H152090   4.800   3.248   3.208 -0.5006  0.2899 -0.2059
10225TIP3    H252091   4.826   3.343   3.093  1.0931 -0.9241 -0.8817
10226TIP3   OH252092   5.027   5.363  11.448 -0.2509  0.0015 -0.3693
10226TIP3    H152093   5.013   5.417  11.371 -0.8569 -0.0363 -0.2888
10226TIP3    H252094   4.955   5.386  11.507 -0.4825 -0.8545 -0.3131
10227TIP3   OH252095   0.234   4.839  15.621  0.6196  1.0006  0.0740
10227TIP3    H152096   0.295   4.813  15.552  0.4852  1.6653 -0.3032
10227TIP3    H252097   0.289   4.883  15.686  0.7271  0.4833  0.3411
10228TIP3   OH252098   5.179   0.395  10.476  0.0798 -0.0609 -0.6178
10228TIP3    H152099   5.267   0.371  10.449 -0.5955 -1.3232 -1.8333
10228TIP3    H252100   5.167   0.353  10.561  0.5592 -0.0698 -0.5537
10229TIP3   OH252101   1.034   2.239   2.046  0.6201  0.2066 -0.6103
10229TIP3    H152102   1.129   2.227   2.042  0.2797 -3.8179 -0.2821
10229TIP3    H252103   1.007   2.245   1.954  1.1357  0.8896 -0.7204
10230TIP3   OH252104   2.718   4.660  13.143 -0.5052 -0.4104 -0.3254
10230TIP3    H152105   2.793   4.668  13.202  0.2052 -1.5919 -1.0164
10230TIP3    H252106   2.650   4.714  13.183  0.0030 -1.0328  1.4814
10231TIP3   OH252107   3.376   6.149   3.601 -0.2012  0.0541 -0.1409
10231TIP3    H152108   3.393   6.233   3.644  2.9020 -1.1975  1.4170
10231TIP3    H252109   3.352   6.090   3.673 -0.5182 -0.8207 -0.9403
10232TIP3   OH252110   3.598   0.265  13.904  0.0612  0.1345 -0.0054
10232TIP3    H152111   3.636   0.179  13.920 -0.0820  0.1083  0.1976
10232TIP3    H252112   3.584   0.268  13.809  0.1080 -0.0466 -0.0179
10233TIP3   OH252113   3.432   2.507   4.678 -0.3789 -0.2215  0.9013
10233TIP3    H152114   3.421   2.473   4.589  0.1222 -1.3535  1.2517
10233TIP3    H252115   3.495   2.579   4.668  0.8352 -1.2901  0.5133
10234TIP3   OH252116   6.763   6.202   2.178  0.4468 -0.3630 -0.1041
10234TIP3    H152117   6.798   6.137   2.238  1.4309 -0.1135 -0.3816
10234TIP3    H252118   6.677   6.169   2.153  0.3017 -0.7959  0.9189
10235TIP3   OH252119   6.119   1.098  13.269 -0.0581 -0.2332 -0.0562
10235TIP3    H152120   6.141   1.188  13.296 -2.2057  0.2117  0.3574
10235TIP3    H252121   6.037   1.107  13.222 -0.3934 -2.0193  0.1411
10236TIP3   OH252122   1.224   4.984  13.362  0.3889  0.4122  0.0464
10236TIP3    H152123   1.206   5.013  13.272  0.9062 -2.2923 -1.0452
10236TIP3    H252124   1.299   5.036  13.390 -0.5338  2.1582 -0.5919
10237TIP3   OH252125   2.343   5.463   2.077  0.3832  0.0099 -0.7219
10237TIP3    H152126   2.265   5.516   2.062  0.3718 -0.0572 -0.9074
10237TIP3    H252127   2.414   5.511   2.034  0.2887 -0.3562 -1.3000
10238TIP3   OH252128   0.192   2.734  11.330 -0.4189  0.0144 -0.3087
10238TIP3    H152129   0.226   2.659  11.378 -1.5002  0.7390  1.7567
10238TIP3    H252130   0.245   2.739  11.251  0.7837 -1.8923  0.3113
10239TIP3   OH252131   2.155   5.319  17.131 -0.2415  0.3713  0.2409
10239TIP3    H152132   2.129   5.227  17.136 -3.1950  1.1378  0.4476
10239TIP3    H252133   2.230   5.319  17.072 -0.1981 -2.1475  0.1926
10240TIP3   OH252134   4.162   1.181  16.085 -0.0073  0.1794  0.1729
10240TIP3    H152135   4.195   1.261  16.045  0.2013 -0.5432 -1.1472
10240TIP3    H252136   4.070   1.179  16.062  0.7452 -1.9207 -3.3666
10241TIP3   OH252137   0.475   2.593   1.547 -0.5503 -0.5813 -0.0574
10241TIP3    H152138   0.469   2.650   1.623 -0.3365 -1.0010  0.2815
10241TIP3    H252139   0.551   2.537   1.565  0.1990  0.0754 -1.1016
10242TIP3   OH252140   1.368   0.358   5.020 -0.5333  0.2982 -0.2561
10242TIP3    H152141   1.377   0.269   5.056 -1.1100  0.5656  0.5884
10242TIP3    H252142   1.289   0.392   5.062  0.5379  1.7785  0.6577
10243TIP3   OH252143   5.089   2.458  13.084  0.1955 -0.0569  0.8449
10243TIP3    H152144   5.011   2.513  13.090  1.0923  1.3930 -0.1066
10243TIP3    H252145   5.057   2.369  13.101 -1.7848  0.4012 -0.1487
10244TIP3   OH252146   1.272   0.808   2.816 -0.0089 -0.2476  0.3553
10244TIP3    H152147   1.325   0.870   2.766 -2.3649  2.2966  0.7325
10244TIP3    H252148   1.236   0.748   2.751 -0.1010  0.7283 -0.5114
10245TIP3   OH252149   4.719   2.879  15.495  0.0001 -0.2495  0.5757
10245TIP3    H152150   4.720   2.966  15.454  0.2242  0.0704  1.2443
10245TIP3    H252151   4.804   2.872  15.538 -0.7819  0.0784  2.2911
10246TIP3   OH252152   2.784   3.203   5.102 -0.1515 -0.3715 -0.3215
10246TIP3    H152153   2.690   3.184   5.100 -0.3476  0.5792 -1.8666
10246TIP3    H252154   2.817   3.165   5.020  0.6125  0.2707 -0.3156
10247TIP3   OH252155   1.612   2.728   4.611  0.2062 -0.2012 -0.2380
10247TIP3    H152156   1.519   2.751   4.618  0.3371  0.0895  0.5438
10247TIP3    H252157   1.619   2.644   4.655  0.4482  0.1300  0.3593
10248TIP3   OH252158   0.780   1.991   2.326 -0.6283  0.2864 -0.2016
10248TIP3    H152159   0.757   2.041   2.404  0.8828 -0.1200  0.5578
10248TIP3    H252160   0.828   1.915   2.360  0.0721  0.1113 -1.5231
10249TIP3   OH252161   0.118   5.172  12.697  0.6883 -0.8414  0.1518
10249TIP3    H152162   0.049   5.106  12.694  0.7463 -0.8893 -0.1847
10249TIP3    H252163   0.122   5.206  12.608  0.1566  0.1373  0.4823
10250TIP3   OH252164   6.119   4.661  14.547  0.1279 -0.0204 -0.2920
10250TIP3    H152165   6.144   4.754  14.551 -0.7303  0.4342 -3.1612
10250TIP3    H252166   6.044   4.654  14.605  0.2539  1.0629  0.0271
10251TIP3   OH252167   1.400   5.486   3.026  0.1506 -0.5830 -0.2995
10251TIP3    H152168   1.440   5.540   2.957 -0.5300 -0.5768 -0.7090
10251TIP3    H252169   1.444   5.512   3.106 -0.4349  0.8945 -0.4237
10252TIP3   OH252170   1.049   3.658   2.175 -0.1783 -0.4657  0.4986
10252TIP3    H152171   1.068   3.565   2.162  0.4674 -0.1789 -0.7754
10252TIP3    H252172   1.133   3.702   2.161 -0.8913  0.4795 -1.1008
10253TIP3   OH252173   4.588   0.412   4.512 -0.1599 -0.7147  0.3996
10253TIP3    H152174   4.629   0.432   4.428 -0.3489  1.0789  0.6964
10253TIP3    H252175   4.496   0.397   4.491 -0.1583 -0.5110  0.2413
10254TIP3   OH252176   2.242   5.564   5.346 -0.1479  0.5064  0.2331
10254TIP3    H152177   2.321   5.598   5.304 -0.6244  0.9031 -0.3553
10254TIP3    H252178   2.241   5.471   5.324  1.0270  0.1133  1.6389
10255TIP3   OH252179   2.022   1.309   0.465  0.7940 -0.2516 -0.1690
10255TIP3    H152180   2.059   1.226   0.496  0.3176 -0.8153 -1.0567
10255TIP3    H252181   1.963   1.283   0.393  0.7158  0.8669 -0.5221
10256TIP3   OH252182   3.431   0.860  11.498 -0.0245 -0.0580  0.4843
10256TIP3    H152183   3.407   0.791  11.559 -0.3737 -1.1078 -0.7997
10256TIP3    H252184   3.366   0.854  11.428  0.3960  1.0770 -0.0269
10257TIP3   OH252185   2.837   5.722   1.611 -0.3025  0.2135 -0.0332
10257TIP3    H152186   2.835   5.714   1.516  0.0782 -0.7537  0.0359
10257TIP3    H252187   2.864   5.636   1.642 -0.6024  0.4694  0.9609
10258TIP3   OH252188   5.658   4.082  14.649  0.0960  0.2730  0.1833
10258TIP3    H152189   5.575   4.035  14.664 -1.3825  1.5248 -3.1144
10258TIP3    H252190   5.650   4.162  14.700 -0.5338  0.1863  0.2289
10259TIP3   OH252191   5.052   0.011  14.608 -0.5406 -0.1082  0.8657
10259TIP3    H152192   5.060   0.056  14.693 -1.5284  0.6596  0.5730
10259TIP3    H252193   5.043  -0.081  14.632  2.2308 -0.3202  1.4475
10260TIP3   OH252194   5.271   6.462  14.832 -0.4020 -0.1904 -0.1718
10260TIP3    H152195   5.234   6.478  14.919 -2.2251  0.1083 -0.9606
10260TIP3    H252196   5.337   6.531  14.822 -0.8287  0.3521  0.6111
10261TIP3   OH252197   0.579   1.474   3.533  0.2735  0.7113  0.0298
10261TIP3    H152198   0.523   1.414   3.582  0.1192  2.1895  1.7666
10261TIP3    H252199   0.632   1.417   3.477  0.1579 -1.0335  1.5990
10262TIP3   OH252200   2.790   5.785  16.857 -0.3595  0.4290  0.3387
10262TIP3    H152201   2.838   5.724  16.913  0.2276  0.5063 -0.0694
10262TIP3    H252202   2.703   5.790  16.897 -0.0526  0.2436  1.0579
10263TIP3   OH252203   3.853   4.296  15.338 -0.1394  0.0088  0.2558
10263TIP3    H152204   3.874   4.367  15.398  1.2130  0.7689 -1.0412
10263TIP3    H252205   3.793   4.335  15.274 -1.6318 -0.8092  1.0884
10264TIP3   OH252206   3.149   2.972   1.018  1.0398 -1.1077  0.0482
10264TIP3    H152207   3.120   3.030   1.088 -0.2601 -2.2252  0.4608
10264TIP3    H252208   3.104   3.005   0.940  0.7088 -1.2413  0.1814
10265TIP3   OH252209   5.037   2.130   0.356 -0.2846  0.2302  0.6686
10265TIP3    H152210   5.029   2.038   0.330  1.6298  0.3817 -0.6599
10265TIP3    H252211   4.949   2.166   0.345 -0.9506 -1.3133  0.7234
10266TIP3   OH252212   6.724   2.988   3.623  0.4296  0.4949 -0.0622
10266TIP3    H152213   6.721   3.047   3.699 -2.5677  1.1438 -0.5890
10266TIP3    H252214   6.677   2.910   3.651  0.8829 -0.0129 -0.6829
10267TIP3   OH252215   3.400   2.272   2.657 -0.6766  0.4025 -0.1161
10267TIP3    H152216   3.417   2.332   2.584 -2.0831  0.7994 -0.1320
10267TIP3    H252217   3.428   2.186   2.624  0.5746  0.8799 -0.3865
10268TIP3   OH252218   3.075   4.690   3.727 -0.7274 -0.2953 -0.3350
10268TIP3    H152219   3.132   4.627   3.771  1.5409  1.4548 -0.5407
10268TIP3    H252220   3.062   4.654   3.639  2.4928  0.4571 -1.2759
10269TIP3   OH252221   5.916   5.751   1.027 -0.1964  0.1393 -0.4607
10269TIP3    H152222   5.928   5.717   1.116  2.6312  0.0630 -0.7787
10269TIP3    H252223   5.851   5.693   0.987  0.5946 -1.5883  0.6798
10270TIP3   OH252224   3.136   0.861  16.807 -0.1697  0.5587  0.3467
10270TIP3    H152225   3.104   0.816  16.729  3.5893  1.6800 -2.1127
10270TIP3    H252226   3.180   0.793  16.857  2.3823  0.6537 -1.5622
10271TIP3   OH252227   3.389   5.471   5.716  0.8295 -0.1949 -0.5712
10271TIP3    H152228   3.474   5.431   5.696  0.1666 -1.0633 -1.8501
10271TIP3    H252229   3.325   5.405   5.687 -0.2802  0.8091 -0.4557
10272TIP3   OH252230   3.237   5.126   6.233 -0.4969 -0.0083  0.2326
10272TIP3    H152231   3.332   5.138   6.226 -0.4052 -0.5304  0.5654
10272TIP3    H252232   3.220   5.124   6.327 -0.9388  0.8134  0.1806
10273TIP3   OH252233   1.325   2.277   3.340  0.0547  0.5305  0.1587
10273TIP3    H152234   1.265   2.202   3.347 -0.4345  0.9430  0.4827
10273TIP3    H252235   1.412   2.238   3.343 -0.1948 -0.0595 -0.0605
10274TIP3   OH252236   4.635   3.336  13.082 -0.8841  0.9140  0.1640
10274TIP3    H152237   4.563   3.329  13.020 -1.4382  0.2025  0.8716
10274TIP3    H252238   4.686   3.256  13.068 -1.6639  0.1703  1.4074
10275TIP3   OH252239   2.805   2.889  11.455  0.7386  0.2571  0.4621
10275TIP3    H152240   2.731   2.948  11.465  0.4442  0.5585 -2.5703
10275TIP3    H252241   2.776   2.825  11.390  3.2729  0.7387 -1.2945
10276TIP3   OH252242   3.375   0.182  11.486  0.2904 -0.1063 -0.1364
10276TIP3    H152243   3.341   0.109  11.538  0.3849 -0.4879 -0.6047
10276TIP3    H252244   3.468   0.185  11.506 -0.1171  1.5078  1.8434
10277TIP3   OH252245   1.979   6.380  13.493 -0.3441 -0.6151 -0.1264
10277TIP3    H152246   1.932   6.346  13.416 -0.5600  0.7328 -0.6153
10277TIP3    H252247   1.997   6.471  13.472  1.4122 -0.7542  0.5918
10278TIP3   OH252248   4.303   0.308   5.406  0.2768 -0.1137 -0.0466
10278TIP3    H152249   4.336   0.398   5.412 -0.5273  0.1840  0.0458
10278TIP3    H252250   4.233   0.304   5.471  1.1667 -1.2050  0.8928
10279TIP3   OH252251   4.056   5.522   3.519  0.1639  0.3945  0.1567
10279TIP3    H152252   4.032   5.542   3.428 -0.4860 -0.5874  0.1046
10279TIP3    H252253   4.137   5.471   3.511  1.0084  1.6536  0.2279
10280TIP3   OH252254   1.152   3.320   3.819  0.5051  0.2162 -0.0498
10280TIP3    H152255   1.059   3.298   3.812  0.5254 -0.1626  0.8049
10280TIP3    H252256   1.156   3.391   3.883  1.0898 -2.0758  2.6661
10281TIP3   OH252257   5.977   4.836  12.401  0.5665  0.0581  0.0791
10281TIP3    H152258   6.037   4.778  12.356 -0.1258 -0.3701 -0.3120
10281TIP3    H252259   5.890   4.811  12.368  0.0342 -0.2623  1.6289
10282TIP3   OH252260   1.636   2.573  11.640  0.0688  0.0094 -0.1433
10282TIP3    H152261   1.705   2.605  11.581 -0.4918 -0.3821 -1.0233
10282TIP3    H252262   1.652   2.620  11.722  0.7370  0.7235 -0.6618
10283TIP3   OH252263   2.757   5.386   3.206 -0.1873 -0.3080 -0.2033
10283TIP3    H152264   2.709   5.469   3.203  0.2696 -0.0655 -1.1514
10283TIP3    H252265   2.690   5.320   3.226 -0.6538  0.2148 -0.0144
10284TIP3   OH252266   1.128   6.717   1.797 -0.1077  0.4734  0.3687
10284TIP3    H152267   1.129   6.771   1.877  2.7224 -0.3178  0.9898
10284TIP3    H252268   1.123   6.627   1.829 -0.0888  0.1953 -0.4064
10285TIP3   OH252269   0.649   1.894  16.772  0.0428  0.3576 -0.2668
10285TIP3    H152270   0.667   1.949  16.696  1.6089  0.4533  0.1194
10285TIP3    H252271   0.609   1.953  16.836  0.4439  0.7277 -0.3544
10286TIP3   OH252272   3.762   4.995   3.822  0.2750 -0.3029  0.1338
10286TIP3    H152273   3.773   4.933   3.749  0.3461 -0.6564  0.4448
10286TIP3    H252274   3.848   4.998   3.864  0.8984  1.6011 -1.1234
10287TIP3   OH252275   2.583   4.565  10.914 -0.1270 -0.6957  0.2550
10287TIP3    H152276   2.575   4.537  10.823 -0.7811 -0.3140  0.1906
10287TIP3    H252277   2.554   4.489  10.965 -1.8641 -0.1940  0.0799
10288TIP3   OH252278   5.659   6.585   2.273 -0.1339 -0.3818 -0.5488
10288TIP3    H152279   5.599   6.582   2.348 -1.2353 -2.4183 -1.4397
10288TIP3    H252280   5.737   6.537   2.302 -0.7873 -1.6628 -0.8581
10289TIP3   OH252281   1.020   0.511  12.177  0.3830 -0.2443 -0.3136
10289TIP3    H152282   1.086   0.443  12.190  2.7339  1.8961 -0.2206
10289TIP3    H252283   1.045   0.554  12.095 -1.3910  0.1727 -0.6886
10290TIP3   OH252284   1.193   4.997   2.603  0.1146 -0.4592  0.2069
10290TIP3    H152285   1.284   4.972   2.622 -0.9051 -2.1486  3.4826
10290TIP3    H252286   1.146   4.914   2.595 -1.0304  0.3245 -2.9787
10291TIP3   OH252287   6.476   2.251  14.999  0.2421  0.5694  0.1822
10291TIP3    H152288   6.447   2.160  14.992  1.4427  0.0854  1.1188
10291TIP3    H252289   6.567   2.249  14.971  0.8199  1.1401  1.9397
10292TIP3   OH252290   4.029   4.457   4.582 -0.0331 -0.0887  0.1066
10292TIP3    H152291   4.076   4.508   4.516 -0.5370  2.5678  1.6348
10292TIP3    H252292   4.067   4.370   4.576  0.8386  0.3657 -2.7492
10293TIP3   OH252293   4.875   4.747  17.070  0.0609 -1.0612  0.3527
10293TIP3    H152294   4.954   4.799  17.064 -0.1968 -0.7843 -0.7240
10293TIP3    H252295   4.826   4.787  17.142 -0.3289  0.4763 -0.7127
10294TIP3   OH252296   5.445   6.003   3.566 -0.3898 -0.1769  0.5990
10294TIP3    H152297   5.382   5.979   3.499 -1.4648  0.5262  1.3075
10294TIP3    H252298   5.468   6.094   3.546  2.4593 -1.1866 -1.1740
10295TIP3   OH252299   0.898   1.694   5.795 -0.0950  0.0740 -0.1100
10295TIP3    H152300   0.925   1.604   5.813 -0.2526 -0.2246 -1.2939
10295TIP3    H252301   0.919   1.707   5.702 -1.4520  0.7580 -0.3431
10296TIP3   OH252302   4.717   4.647  11.947 -0.0135 -0.3969  0.4537
10296TIP3    H152303   4.624   4.663  11.961  0.0126  0.0538  0.1467
10296TIP3    H252304   4.722   4.597  11.866 -0.0156 -0.8519  0.7310
10297TIP3   OH252305   3.532   1.987  14.618 -0.2028 -0.7182  0.0700
10297TIP3    H152306   3.604   1.978  14.679  0.9688  1.5132 -0.8485
10297TIP3    H252307   3.453   1.973  14.670  0.7311  1.3553  2.2123
10298TIP3   OH252308   4.070   1.712  11.309  1.1711  0.4830  0.4323
10298TIP3    H152309   4.114   1.773  11.250 -0.4546  2.3291  1.0009
10298TIP3    H252310   3.998   1.677  11.257  0.9383  0.5596  0.7049
10299TIP3   OH252311   6.612   4.554  13.249  0.2295  0.2866  0.3890
10299TIP3    H152312   6.610   4.556  13.345  1.8223  2.4854  0.4432
10299TIP3    H252313   6.538   4.610  13.223 -0.8230 -1.1088  0.2655
10300TIP3   OH252314   3.539   6.014   0.584  0.0049  0.5922 -0.6229
10300TIP3    H152315   3.467   6.055   0.630  0.0380  0.5359 -0.5198
10300TIP3    H252316   3.498   5.965   0.513 -0.3825 -1.9179  1.1708
10301TIP3   OH252317   4.919   5.710   1.063 -0.8439  0.0133 -0.0625
10301TIP3    H152318   4.959   5.796   1.077 -1.0276 -0.0059  0.5954
10301TIP3    H252319   4.987   5.660   1.017 -0.4122  0.2382  0.3216
10302TIP3   OH252320   1.445   2.078  12.579 -0.1933 -0.3391  0.1516
10302TIP3    H152321   1.418   2.103  12.667 -0.7740  2.0324 -0.6354
10302TIP3    H252322   1.363   2.060  12.533 -0.2169  1.9089 -0.8279
10303TIP3   OH252323   0.066   1.154  17.228 -0.0945  0.2042  0.2212
10303TIP3    H152324   0.125   1.079  17.219 -0.8664 -0.6201  1.6005
10303TIP3    H252325   0.029   1.166  17.141  0.0295 -1.0606 -0.0310
10304TIP3   OH252326   0.640   1.924  15.286  0.1136  1.1214 -0.3782
10304TIP3    H152327   0.694   2.002  15.270 -1.5019  2.1981 -0.7432
10304TIP3    H252328   0.561   1.938  15.235 -1.8215  0.9695  2.3660
10305TIP3   OH252329   2.924   2.976   4.464  0.1470 -0.4622  0.2069
10305TIP3    H152330   2.947   3.001   4.374 -1.5802  2.2634  0.3933
10305TIP3    H252331   2.833   2.947   4.457  0.7715 -2.7106  0.7466
10306TIP3   OH252332   2.764   4.817   3.927  1.3091 -0.2470  0.0929
10306TIP3    H152333   2.669   4.828   3.931  1.1830 -0.9936 -0.6843
10306TIP3    H252334   2.790   4.806   4.019  0.2373 -3.1639  0.1240
10307TIP3   OH252335   1.874   0.454  13.684  0.3441 -0.2560  0.2558
10307TIP3    H152336   1.868   0.501  13.600  0.5301  1.2232  1.0389
10307TIP3    H252337   1.795   0.400  13.686 -0.3789  0.7438 -0.2692
10308TIP3   OH252338   4.744   0.233   4.256 -0.4012 -0.4116  0.2872
10308TIP3    H152339   4.738   0.328   4.243 -0.8415 -0.5725 -0.7705
10308TIP3    H252340   4.833   0.219   4.287 -0.0878  0.2724 -0.2734
10309TIP3   OH252341   1.712   5.292  14.579 -0.4162  0.2427 -0.1159
10309TIP3    H152342   1.808   5.283  14.578 -0.4016  0.4181 -0.8013
10309TIP3    H252343   1.682   5.216  14.629  0.0430 -0.2610 -0.5808
10310TIP3   OH252344   4.647   4.334  14.656 -0.1324 -0.3338 -0.0449
10310TIP3    H152345   4.575   4.337  14.592 -1.8065 -1.1781  1.7064
10310TIP3    H252346   4.648   4.422  14.695 -0.9676 -0.6370  0.6854
10311TIP3   OH252347   4.283   1.491  11.643  0.5001  0.2155 -0.0194
10311TIP3    H152348   4.243   1.474  11.558  0.0404  1.0958  0.0013
10311TIP3    H252349   4.329   1.411  11.665  1.4806  0.3160 -1.5723
10312TIP3   OH252350   1.505   2.457  12.004  0.0727 -0.8634 -0.1526
10312TIP3    H152351   1.463   2.516  12.066 -0.4685 -1.0868 -0.2996
10312TIP3    H252352   1.599   2.473  12.016 -0.0440 -0.4595  0.2790
10313TIP3   OH252353   6.587   2.389   3.278  0.1906 -0.1550  1.0279
10313TIP3    H152354   6.520   2.325   3.301  0.9827 -0.6408  2.0378
10313TIP3    H252355   6.601   2.439   3.358  0.5257  0.4263  0.6164
10314TIP3   OH252356   5.740   1.157  12.421 -0.8050 -0.4417 -0.1771
10314TIP3    H152357   5.678   1.174  12.492 -1.9309  0.0143 -1.2251
10314TIP3    H252358   5.822   1.137  12.465 -1.3968  0.1240  1.2445
10315TIP3   OH252359   4.479   3.099  17.309 -0.2360 -0.0925 -0.4441
10315TIP3    H152360   4.494   3.121  17.401  0.2231 -0.6419 -0.3781
10315TIP3    H252361   4.481   3.183  17.263  2.4430 -0.0005 -0.3309
10316TIP3   OH252362   4.306   0.592  17.176  0.9927 -0.6907 -0.1312
10316TIP3    H152363   4.389   0.578  17.221  0.2781 -1.4136  0.9957
10316TIP3    H252364   4.294   0.513  17.122  1.8558  0.1803 -1.6604
10317TIP3   OH252365   0.225   1.860   3.810  0.3090  0.1939 -0.2295
10317TIP3    H152366   0.233   1.920   3.884  0.2776 -0.6845  0.5150
10317TIP3    H252367   0.248   1.912   3.734 -0.2240  1.2828  0.3239
10318TIP3   OH252368   6.438   5.750   3.108 -0.3392 -0.2419 -0.0260
10318TIP3    H152369   6.483   5.677   3.066  0.6645 -0.4357  1.3107
10318TIP3    H252370   6.368   5.774   3.047  0.6727 -0.8906 -1.4973
10319TIP3   OH252371   1.001   2.297  13.923  0.0543  0.9440  0.6028
10319TIP3    H152372   0.932   2.360  13.905 -0.4096  0.5647  1.0252
10319TIP3    H252373   0.999   2.286  14.018 -1.7818 -1.8065  0.3689
10320TIP3   OH252374   0.690   4.538  15.419 -0.7980  0.1174 -0.0650
10320TIP3    H152375   0.660   4.486  15.494 -1.9199  1.8309  0.7357
10320TIP3    H252376   0.635   4.616  15.421  1.8951  2.1623 -0.2106
10321TIP3   OH252377   0.469   3.703  14.372  0.4831  0.2861  0.0523
10321TIP3    H152378   0.496   3.619  14.408  2.2579  1.0218  0.5492
10321TIP3    H252379   0.466   3.762  14.448  1.4904  1.1947 -0.5845
10322TIP3   OH252380   1.471   2.423  13.305 -0.7192 -0.5287  0.0698
10322TIP3    H152381   1.457   2.330  13.289  1.9280 -1.0814  0.5587
10322TIP3    H252382   1.401   2.448  13.365 -0.9112 -2.4383  0.6818
10323TIP3   OH252383   0.697   6.748  10.794 -0.1878 -0.0673 -0.5063
10323TIP3    H152384   0.666   6.819  10.738 -0.3450 -0.2506 -0.6513
10323TIP3    H252385   0.706   6.673  10.735  0.0885 -0.1395 -0.3756
10324TIP3   OH252386   2.478   0.138  11.026 -0.2540  0.3179 -0.6844
10324TIP3    H152387   2.391   0.147  11.065 -0.4342 -1.9799 -0.4504
10324TIP3    H252388   2.489   0.218  10.974 -1.8725  1.3461  0.4512
10325TIP3   OH252389   3.584   5.004   0.278 -0.1901 -0.1165  0.1822
10325TIP3    H152390   3.537   4.931   0.318  1.3872 -0.4643  1.4611
10325TIP3    H252391   3.596   4.977   0.187 -0.6603 -0.9110  0.3444
10326TIP3   OH252392   5.802   2.404  15.245 -0.2173 -0.2234 -0.2487
10326TIP3    H152393   5.870   2.396  15.312 -1.4420 -0.3804  1.0124
10326TIP3    H252394   5.837   2.468  15.183  1.0032 -0.1743  0.4604
10327TIP3   OH252395   6.313   0.915  16.173 -0.3980  0.0462  0.0625
10327TIP3    H152396   6.223   0.913  16.206 -0.3254 -0.5617  0.2354
10327TIP3    H252397   6.355   0.985  16.223 -0.2399 -0.9724  1.4428
10328TIP3   OH252398   3.605   2.197   0.778 -0.2425  0.1486  0.4862
10328TIP3    H152399   3.605   2.209   0.683  0.6741  0.1015  0.4755
10328TIP3    H252400   3.626   2.283   0.813 -3.0762  0.8421  0.7784
10329TIP3   OH252401   5.492   5.472   3.020  0.5361  0.4311 -0.1197
10329TIP3    H152402   5.501   5.383   2.988 -0.2458  0.2198  0.2324
10329TIP3    H252403   5.442   5.518   2.952  0.2856  0.4025  0.0430
10330TIP3   OH252404   5.818   1.512   2.545  0.3734 -0.1550 -0.3452
10330TIP3    H152405   5.752   1.484   2.481 -0.4241  2.4006 -0.7493
10330TIP3    H252406   5.769   1.562   2.610  1.3214 -1.8944  1.8573
10331TIP3   OH252407   1.640   5.912   2.725  0.1571 -0.0301 -0.1504
10331TIP3    H152408   1.613   6.004   2.718  0.7316  0.1151 -0.4732
10331TIP3    H252409   1.695   5.898   2.648 -1.1243 -1.0550 -0.9215
10332TIP3   OH252410   1.831   1.262  14.874 -0.3755 -0.1158 -0.4384
10332TIP3    H152411   1.854   1.309  14.954  0.1721  0.7404 -1.0851
10332TIP3    H252412   1.741   1.288  14.855 -1.0283 -1.4287  0.6534
10333TIP3   OH252413   3.665   0.976   0.680  0.0108 -0.3514  0.2741
10333TIP3    H152414   3.660   0.897   0.734  3.0689 -1.0042 -0.2084
10333TIP3    H252415   3.645   0.946   0.591 -1.4465 -0.0090  0.4702
10334TIP3   OH252416   1.262   0.559   0.445 -0.2717  0.0888  0.1914
10334TIP3    H152417   1.192   0.623   0.458  0.3440  0.5426  1.4603
10334TIP3    H252418   1.244   0.520   0.360 -2.4252 -0.2612  0.7583
10335TIP3   OH252419   3.010   5.760   5.319 -0.0978 -0.7995 -0.3744
10335TIP3    H152420   3.055   5.696   5.263  0.3315 -1.4018  0.6112
10335TIP3    H252421   2.951   5.806   5.260  1.4759 -0.2965 -1.6403
10336TIP3   OH252422   5.777   1.261  16.042 -0.0022  0.0079  0.1236
10336TIP3    H152423   5.755   1.320  16.114  0.5007 -0.9320  1.0716
10336TIP3    H252424   5.767   1.315  15.963  0.0734  1.2425  0.9260
10337TIP3   OH252425   2.759   1.057   5.499  0.0478 -0.0650 -0.4321
10337TIP3    H152426   2.705   0.994   5.452  0.7120 -2.8823  2.2496
10337TIP3    H252427   2.714   1.070   5.583  1.0283  1.4609 -0.0927
10338TIP3   OH252428   3.891   4.757   1.755  0.6589 -0.8791 -0.0052
10338TIP3    H152429   3.938   4.811   1.818 -0.9102 -1.7270  2.0029
10338TIP3    H252430   3.958   4.730   1.692  1.7149  2.4016 -0.4764
10339TIP3   OH252431   3.925   6.589   4.132  0.2864 -0.6608  0.1964
10339TIP3    H152432   3.854   6.595   4.196  1.2321  0.0688  1.2051
10339TIP3    H252433   3.887   6.623   4.050 -0.7315 -0.9730  0.5219
10340TIP3   OH252434   0.977   2.888  11.077 -0.5617  0.2696 -0.1153
10340TIP3    H152435   0.946   2.969  11.037 -0.8937  1.1768  1.8557
10340TIP3    H252436   0.984   2.827  11.004 -2.4832  1.3958 -1.3525
10341TIP3   OH252437   6.269   3.718   2.593 -0.1706  0.0683  0.2511
10341TIP3    H152438   6.204   3.704   2.524  2.0488  0.6552 -2.1026
10341TIP3    H252439   6.268   3.637   2.644 -2.3476 -0.1204  0.0163
10342TIP3   OH252440   6.035   2.794   3.056  0.2889 -0.1036  0.2498
10342TIP3    H152441   5.959   2.852   3.050  1.4560  1.4614  0.1740
10342TIP3    H252442   6.000   2.707   3.034 -1.2809  0.7278 -0.7200
10343TIP3   OH252443   2.087   0.824   4.532  0.2799  0.0262 -0.9135
10343TIP3    H152444   2.066   0.885   4.602  1.0473 -1.2572  0.4956
10343TIP3    H252445   2.054   0.740   4.562  4.2186 -1.4337 -0.0531
10344TIP3   OH252446   3.008   2.041  11.746 -0.1455  0.1109  0.0489
10344TIP3    H152447   2.924   2.070  11.780 -1.3273 -2.0938 -0.7753
10344TIP3    H252448   3.041   1.980  11.813  0.0025 -0.2854 -0.3793
10345TIP3   OH252449   5.770   0.148   5.443 -0.0727 -0.1603  0.0606
10345TIP3    H152450   5.785   0.122   5.533  2.9953  0.3670 -0.1607
10345TIP3    H252451   5.780   0.068   5.392  1.8175  0.0597 -0.0127
10346TIP3   OH252452   5.903   2.813   4.294 -0.0117  0.3218  0.0471
10346TIP3    H152453   5.943   2.900   4.291 -2.3109  1.4321 -0.8839
10346TIP3    H252454   5.815   2.828   4.330 -0.6866 -1.5022 -0.7016
10347TIP3   OH252455   3.587   0.824   4.824 -1.2136 -0.1091 -0.6608
10347TIP3    H152456   3.607   0.904   4.872 -1.6428  0.7375 -1.8714
10347TIP3    H252457   3.651   0.760   4.857  0.5823  1.3041 -1.2326
10348TIP3   OH252458   3.479   2.380   5.757 -0.4338  0.3416 -0.1326
10348TIP3    H152459   3.553   2.400   5.699 -0.7011 -0.7733 -0.8827
10348TIP3    H252460   3.521   2.350   5.838 -0.0647 -0.0872 -0.4780
10349TIP3   OH252461   6.364   1.620  12.838 -0.0686 -0.2295  0.2369
10349TIP3    H152462   6.446   1.670  12.846  0.6068 -1.2747  0.0207
10349TIP3    H252463   6.299   1.672  12.885  0.5222  1.0479 -0.3160
10350TIP3   OH252464   3.355   5.662   6.171 -0.6083  0.3045 -0.0692
10350TIP3    H152465   3.294   5.591   6.190  1.3592 -1.7361 -0.9158
10350TIP3    H252466   3.336   5.729   6.237 -0.6492 -2.2510  2.7077
10351TIP3   OH252467   0.431   5.422   6.294  0.2517 -0.0482  0.1735
10351TIP3    H152468   0.398   5.410   6.383  1.2270 -2.5031  0.2749
10351TIP3    H252469   0.521   5.391   6.297  1.0552  1.9850 -1.1938
10352TIP3   OH252470   5.074   6.462   2.405 -0.2513  0.0271 -0.3729
10352TIP3    H152471   5.013   6.484   2.335 -1.1763  0.9249  0.6858
10352TIP3    H252472   5.027   6.397   2.458  0.2531 -0.2855 -0.3013
10353TIP3   OH252473   4.159   6.550   0.618 -0.0207 -0.6688 -0.1819
10353TIP3    H152474   4.213   6.502   0.681 -1.5853 -1.9176  0.2779
10353TIP3    H252475   4.194   6.525   0.533  1.4914  0.2640  0.1419
10354TIP3   OH252476   4.575   1.663   6.579 -0.4608  0.0412  0.0626
10354TIP3    H152477   4.541   1.578   6.550  0.5208 -0.2114 -0.4169
10354TIP3    H252478   4.542   1.725   6.515 -1.2502  0.0379  0.4601
10355TIP3   OH252479   0.226   1.826   4.838  0.1014  0.0283 -0.0456
10355TIP3    H152480   0.244   1.880   4.915  0.1724  0.3926 -0.3172
10355TIP3    H252481   0.262   1.740   4.861 -0.4546 -0.0486  0.5844
10356TIP3   OH252482   0.842   1.169   1.951 -0.1998 -0.4377  0.1734
10356TIP3    H152483   0.843   1.209   1.865 -1.0823 -1.0645 -0.1328
10356TIP3    H252484   0.750   1.161   1.974 -0.0723 -2.3283  0.1958
10357TIP3   OH252485   1.911   5.027   4.032 -0.6236 -1.1177  0.4269
10357TIP3    H152486   1.853   5.041   3.957 -0.8766 -0.5374  0.7271
10357TIP3    H252487   1.893   5.100   4.090  0.9889 -0.4764  0.1648
10358TIP3   OH252488   5.854   0.386  12.128 -0.1902 -0.4307 -0.3665
10358TIP3    H152489   5.896   0.351  12.050  1.1992 -0.8416  0.5158
10358TIP3    H252490   5.810   0.466  12.099  1.2013  0.0102 -1.3838
10359TIP3   OH252491   0.176   1.313   5.358  0.1917 -0.4505  0.3461
10359TIP3    H152492   0.099   1.358   5.392  0.3635  0.6809 -0.7209
10359TIP3    H252493   0.224   1.287   5.436 -0.3655  0.4231  1.0037
10360TIP3   OH252494   3.607   4.002   2.835 -0.2945 -0.4953  0.4359
10360TIP3    H152495   3.701   3.995   2.823 -0.2386 -1.4063  1.2584
10360TIP3    H252496   3.585   4.090   2.805  0.7552 -0.4005 -0.1029
10361TIP3   OH252497   0.568   0.045  14.796  0.1419 -0.1068  0.0157
10361TIP3    H152498   0.489   0.021  14.747  0.1834 -1.9549  0.8024
10361TIP3    H252499   0.542   0.122  14.847 -0.5464  0.4980 -1.2125
10362TIP3   OH252500   4.662   4.705  16.906 -0.2426  0.0672  0.6217
10362TIP3    H152501   4.670   4.696  16.811  1.3608 -0.3737  0.7696
10362TIP3    H252502   4.751   4.724  16.936 -0.1659 -2.3548  2.2901
10363TIP3   OH252503   1.733   2.523   3.161 -0.0477 -0.4804  0.3863
10363TIP3    H152504   1.769   2.590   3.218 -2.8095  0.7079  0.9216
10363TIP3    H252505   1.729   2.444   3.215  1.4961 -0.6210  0.3399
10364TIP3   OH252506   0.232   1.310   4.150  0.1587 -0.7641  0.1305
10364TIP3    H152507   0.217   1.235   4.092  2.8567 -0.1311 -1.5853
10364TIP3    H252508   0.323   1.300   4.179 -1.1699 -1.3649  4.9782
10365TIP3   OH252509   4.408   1.036  13.186  0.5836  0.5334 -0.0581
10365TIP3    H152510   4.425   1.115  13.135 -0.6250  0.1076 -1.1735
10365TIP3    H252511   4.312   1.027  13.186  0.3515  1.3539  3.6415
10366TIP3   OH252512   0.714   3.230  16.816  0.6866  0.0248  0.2194
10366TIP3    H152513   0.683   3.187  16.895 -0.6438 -2.3735 -1.4751
10366TIP3    H252514   0.803   3.259  16.838  0.1248  0.0619  2.7584
10367TIP3   OH252515   1.931   6.584  15.470 -0.0744  0.3596  0.0579
10367TIP3    H152516   1.852   6.629  15.442  0.3908  0.4617 -1.1776
10367TIP3    H252517   1.958   6.630  15.550 -0.5272  1.1823 -0.2526
10368TIP3   OH252518   1.196   4.586  14.229 -0.3980 -0.1841  0.3000
10368TIP3    H152519   1.200   4.681  14.228 -1.2943 -0.1340  0.8137
10368TIP3    H252520   1.284   4.559  14.256  0.2167  0.4437 -0.9430
10369TIP3   OH252521   0.480   3.581   0.693 -0.0709 -0.4655  0.3319
10369TIP3    H152522   0.515   3.661   0.731 -3.1745  1.3797 -0.3917
10369TIP3    H252523   0.477   3.519   0.767  1.7254  0.2367  1.0595
10370TIP3   OH252524   4.632   1.041   3.406  0.4504  0.6752  0.0889
10370TIP3    H152525   4.552   1.008   3.365 -1.3864 -0.1000  3.8338
10370TIP3    H252526   4.639   1.131   3.376 -1.4546  0.5470 -0.8713
10371TIP3   OH252527   0.466   3.881   2.833 -0.2396  0.2710 -0.6662
10371TIP3    H152528   0.468   3.968   2.873 -1.8256  0.3204 -0.6386
10371TIP3    H252529   0.507   3.893   2.747  3.1726  0.1813  0.7583
10372TIP3   OH252530   6.658   4.693   4.059 -0.3548 -0.3842 -0.3066
10372TIP3    H152531   6.592   4.717   3.994  0.3413  0.0082 -0.8814
10372TIP3    H252532   6.742   4.709   4.015  0.1284 -1.4289  0.1962
10373TIP3   OH252533   1.605   3.629  16.406  0.3284 -0.1876  0.3275
10373TIP3    H152534   1.562   3.543  16.403  1.0221 -0.5273  0.0493
10373TIP3    H252535   1.651   3.629  16.489  0.7202 -0.2758  0.1114
10374TIP3   OH252536   3.678   3.725   2.003  0.9254  0.2492 -0.0205
10374TIP3    H152537   3.743   3.662   2.037 -0.8765 -1.8177 -0.1719
10374TIP3    H252538   3.614   3.670   1.958 -0.0119  2.3856 -1.4300
10375TIP3   OH252539   1.171   3.092   0.065 -0.1152 -0.1385  0.1187
10375TIP3    H152540   1.122   3.023   0.109 -0.9674  1.1253  1.2224
10375TIP3    H252541   1.263   3.075   0.088 -0.4452 -0.1257  1.5126
10376TIP3   OH252542   3.030   3.899   2.002  0.2106  0.1531 -0.5342
10376TIP3    H152543   3.089   3.940   1.939  0.5897  2.0845  0.9757
10376TIP3    H252544   2.977   3.971   2.036  1.1548 -0.4200  2.5517
10377TIP3   OH252545   4.932   3.934   2.555 -0.7655  0.3650 -0.1982
10377TIP3    H152546   4.849   3.894   2.530 -0.6124  0.7076 -1.3236
10377TIP3    H252547   4.939   3.918   2.649 -0.6791 -2.2462 -0.6008
10378TIP3   OH252548   5.377   6.441   1.419  0.1884  0.4428  0.5272
10378TIP3    H152549   5.360   6.417   1.510  1.6096  1.1901  1.0203
10378TIP3    H252550   5.410   6.530   1.423 -1.2717  1.1150 -0.9053
10379TIP3   OH252551   6.415   3.503  14.466  0.4117 -0.0003  0.1469
10379TIP3    H152552   6.333   3.536  14.502 -0.6954  0.3657 -2.4752
10379TIP3    H252553   6.426   3.551  14.383  0.9013 -3.1592 -1.7866
10380TIP3   OH252554   5.799   1.029   1.839  0.1676  0.4919 -0.1459
10380TIP3    H152555   5.822   1.020   1.747 -0.2789 -0.2858 -0.1879
10380TIP3    H252556   5.871   1.079   1.877 -0.1029  1.6442 -1.0974
10381TIP3   OH252557   1.685   0.463   6.631  0.2119  0.3176 -0.0118
10381TIP3    H152558   1.650   0.382   6.597  0.1530  0.3148  0.0546
10381TIP3    H252559   1.629   0.484   6.706 -1.9786  2.2252 -2.0348
10382TIP3   OH252560   5.798   5.091   2.462 -0.5672  0.2026 -0.7687
10382TIP3    H152561   5.826   5.110   2.551  0.8486 -3.0237 -0.4012
10382TIP3    H252562   5.703   5.095   2.465 -0.5179  0.9798  0.6559
10383TIP3   OH252563   6.652   4.448   6.223 -0.5033 -0.2737 -0.3777
10383TIP3    H152564   6.737   4.488   6.243 -0.5317  0.7373 -2.0947
10383TIP3    H252565   6.590   4.521   6.225 -1.3089 -0.9689  0.6423
10384TIP3   OH252566   2.927   6.107   0.878  0.5182  0.2334 -0.5525
10384TIP3    H152567   2.984   6.089   0.804  1.6017 -1.6449  0.6642
10384TIP3    H252568   2.880   6.187   0.853  2.5592  0.9975 -2.2320
10385TIP3   OH252569   5.484   2.291  12.595  0.1233  0.0091 -0.0628
10385TIP3    H152570   5.532   2.234  12.535  0.6998  0.1697  0.2366
10385TIP3    H252571   5.398   2.250  12.603  0.5150 -0.7986  0.1193
10386TIP3   OH252572   2.329   1.272  14.465 -0.1871 -0.2982 -0.0710
10386TIP3    H152573   2.390   1.253  14.536 -0.0535  0.4596  0.0244
10386TIP3    H252574   2.354   1.210  14.396 -0.6435 -1.3791  0.7079
10387TIP3   OH252575   3.772   3.784   5.392 -0.0456  0.2870  0.2839
10387TIP3    H152576   3.761   3.875   5.364 -2.5107  0.5426  1.6761
10387TIP3    H252577   3.839   3.788   5.461  1.7356  0.5731 -1.4010
10388TIP3   OH252578   1.158   1.483  11.419  0.2709  0.1278  0.0520
10388TIP3    H152579   1.125   1.563  11.460  0.8699  0.9172 -0.9429
10388TIP3    H252580   1.080   1.429  11.406 -0.1813  0.6631  0.4890
10389TIP3   OH252581   3.072   3.350  13.466  0.7665  0.6133 -0.4298
10389TIP3    H152582   3.099   3.305  13.545 -0.4802 -0.4700 -0.5910
10389TIP3    H252583   3.053   3.440  13.495 -1.0164 -0.1170  0.8105
10390TIP3   OH252584   1.277   3.968  17.111  0.9160  0.1678 -0.3211
10390TIP3    H152585   1.264   3.875  17.097  0.5742  0.4172 -1.7851
10390TIP3    H252586   1.254   4.009  17.028 -0.8341  1.7374  0.8502
10391TIP3   OH252587   0.723   0.518   4.606  0.2924 -0.8543  0.0781
10391TIP3    H152588   0.628   0.528   4.614  0.1973 -1.2118 -0.4836
10391TIP3    H252589   0.759   0.562   4.682 -0.3482 -1.1076  0.5334
10392TIP3   OH252590   1.231   0.078   6.674 -0.3139 -0.1914  0.3761
10392TIP3    H152591   1.273   0.101   6.592  0.3718 -1.6974  0.2788
10392TIP3    H252592   1.233  -0.018   6.677 -0.2343 -0.1766  2.1874
10393TIP3   OH252593   3.353   6.474   3.552 -0.5123 -0.3652 -0.1451
10393TIP3    H152594   3.337   6.427   3.470 -0.7123  1.2180 -1.0600
10393TIP3    H252595   3.448   6.487   3.555 -0.6634  1.4150 -1.2609
10394TIP3   OH252596   4.077   2.484  13.345  0.0400  0.5302  0.4276
10394TIP3    H152597   4.035   2.402  13.372 -0.7106  0.7482 -0.0405
10394TIP3    H252598   4.132   2.459  13.271  0.6463  0.2673  0.9572
10395TIP3   OH252599   3.418   4.308   3.014  0.0689 -0.3676  0.0959
10395TIP3    H152600   3.409   4.396   3.049  0.5254 -0.3910  0.2716
10395TIP3    H252601   3.460   4.320   2.929 -0.1344 -0.3973 -0.0120
10396TIP3   OH252602   0.634   1.805  14.581  0.0782  0.0257  0.2539
10396TIP3    H152603   0.728   1.810  14.600  0.5707  0.0905 -1.9275
10396TIP3    H252604   0.599   1.748  14.650  1.8990 -0.8758  0.5031
10397TIP3   OH252605   2.721   1.184  12.485 -0.6229  0.1874 -0.2495
10397TIP3    H152606   2.658   1.150  12.421 -0.1736  0.5790 -0.9231
10397TIP3    H252607   2.793   1.217  12.431  0.1845 -0.2935  0.5062
10398TIP3   OH252608   5.682   2.956  12.607  0.1598  0.0506 -0.0498
10398TIP3    H152609   5.657   2.873  12.566 -0.3701  0.3645 -0.3577
10398TIP3    H252610   5.671   2.940  12.701 -1.7101  0.3450 -0.1984
10399TIP3   OH252611   0.520   2.616  13.569 -0.2654 -0.1206  0.1318
10399TIP3    H152612   0.565   2.700  13.579  0.1170 -0.4251  1.1533
10399TIP3    H252613   0.460   2.629  13.496 -0.2443  1.0599  0.3048
10400TIP3   OH252614   0.000   4.703  11.962  0.3310  0.1485  0.1653
10400TIP3    H152615   0.001   4.775  11.899 -0.2771 -1.4811 -1.8212
10400TIP3    H252616  -0.087   4.707  12.000 -1.1268 -1.5895 -2.6200
10401TIP3   OH252617   6.731   1.730  11.179 -0.4101 -0.7582  0.5082
10401TIP3    H152618   6.659   1.744  11.117 -0.3366 -0.9804  0.3730
10401TIP3    H252619   6.808   1.764  11.134 -0.3338 -1.0418  0.4230
10402TIP3   OH252620   6.583   0.017   0.167  0.4152 -0.2504 -0.6418
10402TIP3    H152621   6.499   0.003   0.212 -0.0359 -0.6459 -1.5803
10402TIP3    H252622   6.649  -0.010   0.230 -0.1777 -0.1979  0.0090
10403TIP3   OH252623   2.276   1.562  13.952  0.0547  0.1303  0.6444
10403TIP3    H152624   2.197   1.601  13.988  0.1896 -0.5520  1.7252
10403TIP3    H252625   2.277   1.590  13.861 -1.8571 -0.4940  0.3831
10404TIP3   OH252626   1.632   2.632  15.814 -0.0347  0.2452  0.5255
10404TIP3    H152627   1.605   2.691  15.744 -1.0763  1.2082  1.6913
10404TIP3    H252628   1.695   2.573  15.772  0.0939  1.3755 -0.9801
10405TIP3   OH252629   0.645   6.413   6.205 -0.2537 -0.2068 -0.2248
10405TIP3    H152630   0.728   6.457   6.189 -0.4340  0.6184  0.9718
10405TIP3    H252631   0.597   6.472   6.262 -1.7712 -0.5658 -1.0638
10406TIP3   OH252632   4.056   4.038   3.893  0.1254 -0.1968  0.5454
10406TIP3    H152633   4.116   4.085   3.951 -1.1536  1.4202  0.5908
10406TIP3    H252634   4.002   3.986   3.952 -0.7247  0.9286  0.7841
10407TIP3   OH252635   0.655   5.239   4.632 -0.8923 -0.2581  0.0630
10407TIP3    H152636   0.690   5.168   4.578 -0.1500 -0.3745  0.6699
10407TIP3    H252637   0.625   5.304   4.569 -0.2647 -0.4946 -0.5006
10408TIP3   OH252638   3.359   2.115  12.707  0.6737 -0.6649  0.5251
10408TIP3    H152639   3.318   2.074  12.631 -0.7842  0.0008  0.9071
10408TIP3    H252640   3.350   2.051  12.777 -0.6463 -0.1780  0.8489
10409TIP3   OH252641   3.250   3.938  16.732  0.0587  0.0990  0.6401
10409TIP3    H152642   3.214   4.017  16.771 -0.4653 -0.4804  1.3462
10409TIP3    H252643   3.221   3.867  16.789  1.2471 -0.5207  0.5080
10410TIP3   OH252644   5.181   0.929   1.333 -0.0711  0.0834  0.3048
10410TIP3    H152645   5.216   0.984   1.403  2.1756 -0.2528 -0.4500
10410TIP3    H252646   5.233   0.849   1.337 -2.9647 -1.9108  1.0929
10411TIP3   OH252647   5.617   5.746  11.362 -0.0610 -0.0993  0.1264
10411TIP3    H152648   5.677   5.672  11.375 -0.7145 -0.7532 -0.4866
10411TIP3    H252649   5.545   5.710  11.311 -0.7368  0.7998  0.4121
10412TIP3   OH252650   2.417   1.999  15.590 -0.2567  0.1113 -0.5000
10412TIP3    H152651   2.474   1.975  15.517  0.9328 -2.6193  1.1681
10412TIP3    H252652   2.345   1.937  15.585 -0.5070  0.3334  0.2573
10413TIP3   OH252653   5.548   4.518  14.742 -0.2226  0.5425 -0.2505
10413TIP3    H152654   5.626   4.567  14.718  0.3844 -0.4714 -0.3796
10413TIP3    H252655   5.477   4.561  14.693  0.3472  1.0625 -0.6370
10414TIP3   OH252656   1.888   4.285   4.277 -0.5665 -0.0329 -0.2370
10414TIP3    H152657   1.944   4.349   4.320  0.2660 -0.6971 -0.2918
10414TIP3    H252658   1.846   4.238   4.349  0.2473 -0.6427 -0.1436
10415TIP3   OH252659   2.177   1.038  12.866 -0.0842  0.4672 -0.1412
10415TIP3    H152660   2.140   0.950  12.868 -0.7886  0.7746  0.9002
10415TIP3    H252661   2.127   1.083  12.798  0.0015  0.1999 -0.3874
10416TIP3   OH252662   3.960   4.354   3.501 -0.3174  0.4391 -0.1277
10416TIP3    H152663   4.015   4.362   3.423 -1.3345 -0.1561 -0.9463
10416TIP3    H252664   3.996   4.279   3.548  1.3823  1.8602  0.9177
10417TIP3   OH252665   2.332   5.622   4.711 -0.2115 -0.4610  0.0225
10417TIP3    H152666   2.291   5.675   4.779  1.0494  0.1991  0.2980
10417TIP3    H252667   2.375   5.551   4.759 -0.0531 -0.4938 -0.1666
10418TIP3   OH252668   3.641   5.131   3.586  0.6441 -0.3760  0.0592
10418TIP3    H152669   3.651   5.048   3.539  3.6452 -1.1850  1.8630
10418TIP3    H252670   3.658   5.109   3.677 -1.2796  1.8041  1.0528
10419TIP3   OH252671   5.353   4.863  13.788  0.0385  0.1271 -0.2379
10419TIP3    H152672   5.447   4.863  13.769 -0.0855 -2.4205 -1.2930
10419TIP3    H252673   5.315   4.918  13.719  0.5788 -0.8354 -1.3500
10420TIP3   OH252674   1.719   1.503   1.212 -0.1853  0.5143  0.1058
10420TIP3    H152675   1.758   1.417   1.196 -0.6286  0.4637 -0.7424
10420TIP3    H252676   1.703   1.504   1.307 -1.9552 -1.1227 -0.1097
10421TIP3   OH252677   5.543   3.939  12.423  0.1844 -0.4634 -0.3902
10421TIP3    H152678   5.524   3.937  12.517 -0.6563 -1.6716 -0.5660
10421TIP3    H252679   5.487   4.007  12.388  0.0981 -0.3848 -0.0956
10422TIP3   OH252680   2.550   3.505  15.384  0.1048 -0.5103 -0.0965
10422TIP3    H152681   2.463   3.465  15.379  0.4920 -1.4260  0.1153
10422TIP3    H252682   2.606   3.443  15.337  0.2618  1.2783 -2.4591
10423TIP3   OH252683   4.026   3.219  12.292  0.5888  0.0251  0.4028
10423TIP3    H152684   3.941   3.256  12.317  1.2696  2.1099 -0.1846
10423TIP3    H252685   4.022   3.213  12.197  0.8115 -0.6774  0.4308
10424TIP3   OH252686   3.792   4.698  15.506  0.0511  0.7452 -0.0193
10424TIP3    H152687   3.852   4.623  15.511  1.2258  1.5386 -1.3405
10424TIP3    H252688   3.832   4.756  15.441  0.9823  4.0743  3.1597
10425TIP3   OH252689   4.439   1.858  14.356 -0.0724  0.0037 -0.8150
10425TIP3    H152690   4.358   1.808  14.352 -0.4693  0.6253 -0.5610
10425TIP3    H252691   4.508   1.791  14.357 -0.6131 -0.5732  0.3066
10426TIP3   OH252692   6.412   5.256   5.683 -0.6425 -0.9053 -0.2120
10426TIP3    H152693   6.395   5.168   5.717  0.9306 -0.5873  1.6017
10426TIP3    H252694   6.507   5.259   5.672 -0.5831  0.7821  0.4630
10427TIP3   OH252695   5.720   5.569   0.341 -0.6061  0.4790 -0.6871
10427TIP3    H152696   5.750   5.549   0.253 -0.4921  0.4674 -0.6452
10427TIP3    H252697   5.694   5.485   0.378  0.6547  0.2755 -0.2133
10428TIP3   OH252698   2.453   3.864   2.026  0.1879  0.1324  0.5463
10428TIP3    H152699   2.407   3.914   1.958  1.1498  0.5693  0.1932
10428TIP3    H252700   2.410   3.888   2.107 -0.5232  0.1505  0.1736
10429TIP3   OH252701   6.570   3.836   0.280  0.0966  0.4783 -0.0584
10429TIP3    H152702   6.534   3.819   0.193  0.3656 -0.8608  0.0686
10429TIP3    H252703   6.660   3.803   0.275 -0.2073 -0.5816  1.0202
10430TIP3   OH252704   6.090   4.974  14.503  0.2055  0.2849  0.0225
10430TIP3    H152705   6.168   4.948  14.553 -0.2587  1.3231  1.3532
10430TIP3    H252706   6.124   5.033  14.436  0.5892  0.6508  0.5285
10431TIP3   OH252707   0.329   1.980  14.019 -0.1771 -0.0967 -1.0050
10431TIP3    H152708   0.261   1.925  13.980 -0.3468 -0.6983  0.0878
10431TIP3    H252709   0.364   2.031  13.946 -0.7139 -0.9245 -1.8599
10432TIP3   OH252710   4.517   2.451  16.257  0.5247 -0.7150 -0.2128
10432TIP3    H152711   4.567   2.376  16.224  0.4283 -0.6078 -0.6033
10432TIP3    H252712   4.428   2.417  16.266  1.0984 -1.7337  3.0655
10433TIP3   OH252713   0.735   0.986   5.727  0.8201  0.3093  0.2055
10433TIP3    H152714   0.774   0.928   5.793  0.0317  1.9194  2.1871
10433TIP3    H252715   0.790   1.064   5.728  1.1458  0.1473 -1.5479
10434TIP3   OH252716   2.918   1.440  13.102  0.6651 -0.2770 -0.0419
10434TIP3    H152717   2.908   1.419  13.009 -0.5141 -1.0213  0.2284
10434TIP3    H252718   2.981   1.512  13.104 -0.7043  1.0423 -1.5901
10435TIP3   OH252719   1.774   4.938  16.510  0.1791 -0.0354  0.2754
10435TIP3    H152720   1.788   4.846  16.488 -1.3342  0.1220 -1.6836
10435TIP3    H252721   1.857   4.981  16.491  0.3632 -0.7293 -0.5093
10436TIP3   OH252722   4.178   5.874   2.297  0.1840  0.0402  0.7159
10436TIP3    H152723   4.152   5.822   2.221 -1.4542 -1.4863  2.2073
10436TIP3    H252724   4.182   5.964   2.265  0.7359 -0.6892 -1.4230
10437TIP3   OH252725   4.256   1.660   5.550 -0.2300 -0.1591  0.3098
10437TIP3    H152726   4.290   1.748   5.563 -0.6610  0.1757 -0.7157
10437TIP3    H252727   4.313   1.622   5.483 -1.2578  0.0741 -0.7295
10438TIP3   OH252728   2.732   0.888  12.654  0.6817 -0.1275  0.2269
10438TIP3    H152729   2.677   0.912  12.579  0.8877  0.2393  0.1924
10438TIP3    H252730   2.689   0.810  12.691  0.6181 -0.3547 -0.3092
10439TIP3   OH252731   1.490   5.639   4.469 -0.1055  0.4448  0.0647
10439TIP3    H152732   1.472   5.640   4.563  0.1721  0.3870  0.1183
10439TIP3    H252733   1.419   5.691   4.430 -1.4947 -1.3469  0.0895
10440TIP3   OH252734   4.049   3.867  14.366  0.2021 -0.1288 -0.1135
10440TIP3    H152735   4.065   3.816  14.446  0.6063 -2.0355 -1.3340
10440TIP3    H252736   4.084   3.954  14.386  2.7284 -1.2740  0.9182
10441TIP3   OH252737   0.186   0.862  12.985 -0.1591  0.1060 -0.4830
10441TIP3    H152738   0.236   0.786  12.958  0.8260  0.6373 -0.1980
10441TIP3    H252739   0.106   0.825  13.025  0.5143 -0.7932  0.0797
10442TIP3   OH252740   5.253   2.213  15.659 -0.3409 -0.0544 -0.0834
10442TIP3    H152741   5.322   2.147  15.669  0.3605  0.7246  0.4157
10442TIP3    H252742   5.193   2.195  15.731  0.5982  0.7076  0.9250
10443TIP3   OH252743   5.172   6.709   4.127 -0.4625 -0.2934 -0.4309
10443TIP3    H152744   5.161   6.616   4.145 -1.0224 -0.2025 -0.2754
10443TIP3    H252745   5.086   6.738   4.097 -1.0552  0.7212  1.9692
10444TIP3   OH252746   1.645   5.963  11.564 -0.1316  0.3303  0.0950
10444TIP3    H152747   1.736   5.990  11.552 -0.4750  0.4635 -3.1779
10444TIP3    H252748   1.598   6.045  11.577 -0.0515  0.4827 -0.5446
10445TIP3   OH252749   4.361   0.990   2.973  0.0987  0.1468  0.0377
10445TIP3    H152750   4.328   1.059   3.030 -1.6489 -0.9133  0.3714
10445TIP3    H252751   4.350   0.909   3.023  2.7922 -0.3920 -0.0382
10446TIP3   OH252752   2.336   0.052  15.572  0.1436 -0.3250  0.5902
10446TIP3    H152753   2.323   0.124  15.634  2.7668 -0.4573  1.4363
10446TIP3    H252754   2.287   0.078  15.494 -1.7364  0.7433  2.0444
10447TIP3   OH252755   6.639   3.693  17.189  0.1871  0.4024 -0.0644
10447TIP3    H152756   6.713   3.708  17.248  1.6326  0.9975 -1.9290
10447TIP3    H252757   6.632   3.598  17.183  0.2360  0.3367  0.7550
10448TIP3   OH252758   1.507   0.878   0.203  0.0511  0.1751 -0.1166
10448TIP3    H152759   1.465   0.959   0.235 -1.4412  0.0666 -1.6311
10448TIP3    H252760   1.444   0.842   0.140  1.0714 -1.7329 -0.1146
10449TIP3   OH252761   4.830   3.347   5.014 -0.2320 -0.8198  0.1128
10449TIP3    H152762   4.898   3.380   4.956  0.9240 -1.5438  1.0214
10449TIP3    H252763   4.831   3.405   5.090 -1.3986 -0.1786 -0.3246
10450TIP3   OH252764   3.087   1.292  13.552  0.4512  0.1560  0.7759
10450TIP3    H152765   3.157   1.228  13.539 -0.0437 -1.4859  4.6491
10450TIP3    H252766   3.018   1.265  13.492  1.5339 -0.8097 -0.0800
10451TIP3   OH252767   4.036   5.044  15.432 -0.3364  0.0373  0.0776
10451TIP3    H152768   3.973   5.076  15.367 -0.7974 -0.6185  0.1941
10451TIP3    H252769   3.982   5.019  15.507  0.0433 -0.7191  0.1014
10452TIP3   OH252770   6.260   0.466   5.033  0.1488  0.0725  0.5186
10452TIP3    H152771   6.232   0.374   5.033  0.6678 -0.0902 -0.0134
10452TIP3    H252772   6.222   0.502   5.113 -0.7615 -0.3865  0.3129
10453TIP3   OH252773   1.812   4.453   2.101 -0.0554  0.0907  0.5188
10453TIP3    H152774   1.827   4.361   2.121  2.9997  0.1197 -1.1148
10453TIP3    H252775   1.768   4.452   2.016  1.6037  0.0956 -0.3737
10454TIP3   OH252776   2.219   4.491   0.551 -0.1692  0.1230  0.1142
10454TIP3    H152777   2.175   4.543   0.618 -0.0040 -1.1239  1.2419
10454TIP3    H252778   2.150   4.432   0.519 -0.0707  0.2402 -0.3154
10455TIP3   OH252779   1.085   0.342  14.204 -0.3249  0.4190  0.1407
10455TIP3    H152780   1.056   0.255  14.230 -0.1607 -0.1806 -1.5572
10455TIP3    H252781   1.011   0.400  14.224  0.1817  0.2512  2.8934
10456TIP3   OH252782   5.014   3.072  12.872 -0.0960 -0.8034 -0.2643
10456TIP3    H152783   4.964   3.153  12.860 -0.7838 -1.0251  0.9132
10456TIP3    H252784   5.079   3.073  12.802 -1.5853 -0.3852 -1.7015
10457TIP3   OH252785   4.911   5.153  17.020 -0.1896 -0.0790  0.1446
10457TIP3    H152786   4.861   5.081  17.059  1.0978 -0.2080  1.6307
10457TIP3    H252787   4.927   5.125  16.930 -0.8318 -1.0512  0.3220
10458TIP3   OH252788   3.708   3.437   2.502 -0.3682  0.0492 -0.8034
10458TIP3    H152789   3.742   3.356   2.539 -0.5933 -0.8701 -2.5290
10458TIP3    H252790   3.650   3.409   2.431 -1.3917  1.6949 -0.6766
10459TIP3   OH252791   0.911   5.780  11.581  0.2439  0.3603 -0.5871
10459TIP3    H152792   0.841   5.794  11.645  0.9352  0.1431  0.2377
10459TIP3    H252793   0.865   5.753  11.501 -0.7137  1.6762 -0.5247
10460TIP3   OH252794   2.345   4.271  10.580 -0.5476 -0.2056  0.1683
10460TIP3    H152795   2.337   4.237  10.490 -1.2043 -1.9401  0.8374
10460TIP3    H252796   2.301   4.356  10.577  0.8167  0.5013 -1.4989
10461TIP3   OH252797   5.063   3.184  14.500  0.0152 -0.5288 -0.0296
10461TIP3    H152798   5.084   3.256  14.559  0.4848 -0.8449  0.1943
10461TIP3    H252799   4.968   3.177  14.503  0.0129 -0.3062  0.4143
10462TIP3   OH252800   4.170   2.543   5.654  0.4146 -0.2608  0.1224
10462TIP3    H152801   4.172   2.449   5.671  0.6314 -0.1900  0.5069
10462TIP3    H252802   4.257   2.574   5.681 -0.0220  0.2180  1.0323
10463TIP3   OH252803   1.408   0.482  13.682  0.2776  0.2460 -0.1863
10463TIP3    H152804   1.341   0.423  13.647 -0.7985  1.2630  0.1070
10463TIP3    H252805   1.359   0.553  13.724  1.5311  0.5538  0.8504
10464TIP3   OH252806   4.715   3.303   3.818  0.2198 -0.4988  0.2621
10464TIP3    H152807   4.805   3.324   3.791 -0.1877  0.4511 -0.4020
10464TIP3    H252808   4.723   3.221   3.865  1.3168 -0.9140 -0.6068
10465TIP3   OH252809   1.760   1.995   2.926 -0.1823 -0.6032  0.4141
10465TIP3    H152810   1.674   2.023   2.956 -0.4892 -1.3976  0.2824
10465TIP3    H252811   1.817   2.071   2.943 -1.1789  0.4680 -0.8058
10466TIP3   OH252812   6.246   0.719  11.518 -0.0487  0.1957  0.1428
10466TIP3    H152813   6.254   0.813  11.505  0.5052  0.0185 -0.8695
10466TIP3    H252814   6.264   0.706  11.611 -1.8885  1.2667  0.6991
10467TIP3   OH252815   0.802   6.191  11.380 -0.2543  0.4381 -0.0341
10467TIP3    H152816   0.826   6.104  11.350 -0.2769 -0.1534  1.5706
10467TIP3    H252817   0.736   6.177  11.448  1.4628  1.4936  2.0054
10468TIP3   OH252818   6.055   0.952   3.188  0.2207  0.2029  0.6154
10468TIP3    H152819   5.989   0.940   3.120  1.7332  0.1697 -0.9125
10468TIP3    H252820   6.056   0.868   3.234 -1.8136  0.6887  1.6805
10469TIP3   OH252821   6.732   1.036   5.227 -0.6962 -0.7748  0.6029
10469TIP3    H152822   6.652   1.087   5.220 -1.4265 -1.9847 -0.1262
10469TIP3    H252823   6.770   1.038   5.140 -0.6737 -1.3678  0.5938
10470TIP3   OH252824   4.728   3.123   5.609 -0.3236 -0.4856 -0.4919
10470TIP3    H152825   4.643   3.093   5.576  0.3764 -0.8562 -1.9796
10470TIP3    H252826   4.791   3.059   5.578  0.4602 -0.5504  1.1264
10471TIP3   OH252827   1.923   3.861   0.364 -0.3961  0.1284 -0.4136
10471TIP3    H152828   1.917   3.933   0.427 -1.9907 -1.7756  1.7956
10471TIP3    H252829   1.999   3.810   0.393 -0.4276 -0.1211 -0.7651
10472TIP3   OH252830   5.353   4.584  13.274 -0.3758  0.5584 -0.1528
10472TIP3    H152831   5.395   4.627  13.349 -2.4202  1.6722  0.4173
10472TIP3    H252832   5.371   4.642  13.200 -0.6592  0.8882  0.0343
10473TIP3   OH252833   3.837   3.737  14.713  0.2740 -0.2891  0.4471
10473TIP3    H152834   3.768   3.696  14.661  0.9670 -0.7692 -0.1257
10473TIP3    H252835   3.833   3.829  14.690  0.5643 -0.4960 -0.4671
10474TIP3   OH252836   5.866   4.532   2.731 -0.2498  0.0996 -0.2974
10474TIP3    H152837   5.829   4.444   2.735 -2.0492  0.8308 -0.2014
10474TIP3    H252838   5.953   4.523   2.771 -0.2985 -1.6716 -0.5277
10475TIP3   OH252839   2.009   3.617   1.748  0.1573  0.1536 -0.1136
10475TIP3    H152840   1.941   3.593   1.811 -0.2770  1.6264  0.0164
10475TIP3    H252841   2.053   3.692   1.788 -0.7497  1.7531 -1.9380
10476TIP3   OH252842   0.307   0.546  16.966 -0.4500  0.0624 -0.2978
10476TIP3    H152843   0.362   0.530  16.889 -1.8405  0.3265 -1.3754
10476TIP3    H252844   0.221   0.566  16.930 -1.5362 -1.3666  1.3948
10477TIP3   OH252845   2.953   3.252  16.099 -0.6482  0.4735  0.1205
10477TIP3    H152846   2.944   3.335  16.051  0.7658  0.7369  0.2655
10477TIP3    H252847   2.998   3.194  16.038 -0.7731  0.1196  0.3622
10478TIP3   OH252848   3.511   6.189   1.957  0.0380 -1.0736  0.1633
10478TIP3    H152849   3.435   6.131   1.957  0.1240 -1.2851  2.3593
10478TIP3    H252850   3.505   6.237   2.040  0.4826  1.4267 -1.1369
10479TIP3   OH252851   5.727   4.643   3.382 -0.0102  0.5372  0.4742
10479TIP3    H152852   5.667   4.642   3.456 -0.7278  0.9635 -0.0905
10479TIP3    H252853   5.672   4.624   3.306  0.5490  0.9932 -0.0593
10480TIP3   OH252854   4.713   4.474  14.343 -0.1259  0.1114 -0.2913
10480TIP3    H152855   4.746   4.530  14.414  0.7979  0.5920 -1.0799
10480TIP3    H252856   4.650   4.529  14.297  1.6128  0.9672 -1.7621
10481TIP3   OH252857   0.676   0.836   4.043 -0.0347 -0.4794 -0.1935
10481TIP3    H152858   0.593   0.788   4.041  0.7388 -1.9184  0.2942
10481TIP3    H252859   0.742   0.768   4.062  1.0977  0.8180  0.6974
10482TIP3   OH252860   6.514   0.377  15.090  0.0561 -0.6254 -0.1081
10482TIP3    H152861   6.436   0.366  15.035  0.6812  0.2534 -1.1988
10482TIP3    H252862   6.587   0.363  15.030  0.7507 -0.2355  0.6411
10483TIP3   OH252863   0.213   4.019   0.798  0.6279  1.1122 -0.0368
10483TIP3    H152864   0.134   3.995   0.748  0.9688  2.0420 -1.0640
10483TIP3    H252865   0.286   3.990   0.743  1.0295  0.0185  1.0277
10484TIP3   OH252866   0.776   2.752  11.469  0.3038 -0.3090  0.9284
10484TIP3    H152867   0.759   2.846  11.473  1.7309 -0.0426  1.9053
10484TIP3    H252868   0.715   2.719  11.404 -0.4296  1.2467  0.7683
10485TIP3   OH252869   2.352   6.467  12.079 -0.1665 -0.0413  0.3207
10485TIP3    H152870   2.263   6.443  12.053 -0.6753  1.7312  0.3388
10485TIP3    H252871   2.407   6.436  12.007 -0.8647 -0.4762 -0.0435
10486TIP3   OH252872   4.252   1.023  16.302 -0.4696  0.0148 -0.2394
10486TIP3    H152873   4.216   1.087  16.240 -0.2601  0.7389  0.3776
10486TIP3    H252874   4.347   1.034  16.296 -0.3457 -1.2241 -1.1517
10487TIP3   OH252875   1.500   1.996  11.506 -0.5492  0.0840 -0.1737
10487TIP3    H152876   1.582   2.000  11.457 -1.0915 -0.3334 -1.1469
10487TIP3    H252877   1.448   2.069  11.472 -1.2176 -0.6528 -0.7730
10488TIP3   OH252878   1.694   5.292  14.939 -0.2373  0.4323  0.5705
10488TIP3    H152879   1.644   5.332  15.010 -1.0123 -0.5581  0.6054
10488TIP3    H252880   1.658   5.203  14.931 -0.3954  0.6118 -1.2482
10489TIP3   OH252881   0.537   0.563   0.248 -0.1641  0.3746 -0.5885
10489TIP3    H152882   0.609   0.537   0.305 -0.8400 -0.2218  0.0179
10489TIP3    H252883   0.535   0.658   0.253 -0.3859  0.3218  0.6235
10490TIP3   OH252884   6.196   3.733  14.981  0.4043 -0.5250  0.2458
10490TIP3    H152885   6.259   3.802  14.961  0.4606 -0.3218  1.0920
10490TIP3    H252886   6.114   3.780  14.996  0.3425 -0.6756  0.3840
10491TIP3   OH252887   1.467   3.830   4.700  0.1694  0.6779  0.1035
10491TIP3    H152888   1.510   3.857   4.781  1.5559  0.0576 -0.3983
10491TIP3    H252889   1.454   3.735   4.710 -1.7955  0.9386  0.5396
10492TIP3   OH252890   4.220   5.657  14.273  0.9114  0.2314  0.1222
10492TIP3    H152891   4.144   5.682  14.326 -0.2160  1.4024 -1.9387
10492TIP3    H252892   4.275   5.606  14.333 -0.6111  0.8939  2.1905
10493TIP3   OH252893   2.103   4.746  11.104  0.1300 -0.4874  0.0448
10493TIP3    H152894   2.192   4.782  11.103  0.6378 -1.7114 -0.2141
10493TIP3    H252895   2.074   4.756  11.194  0.7124 -0.5143  0.2387
10494TIP3   OH252896   5.734   0.650  15.155 -0.0827  0.2376 -0.4029
10494TIP3    H152897   5.812   0.597  15.169  0.7389  1.8358  1.4958
10494TIP3    H252898   5.767   0.733  15.120 -1.0129  0.6706 -0.2794
10495TIP3   OH252899   6.679   1.580   1.190 -0.2894 -0.2721 -0.6167
10495TIP3    H152900   6.663   1.591   1.284 -1.3390  1.7475 -0.9817
10495TIP3    H252901   6.726   1.497   1.184 -3.0502 -2.1797  1.3846
10496TIP3   OH252902   4.229   6.136   5.139 -0.2074  0.3982  0.1371
10496TIP3    H152903   4.134   6.139   5.128 -0.2608 -0.2268  0.3903
10496TIP3    H252904   4.249   6.043   5.143  0.5724  0.4754 -1.2819
10497TIP3   OH252905   5.169   3.315  14.712 -0.0422 -0.0214 -0.8530
10497TIP3    H152906   5.134   3.395  14.752 -0.8247 -0.1200 -1.3308
10497TIP3    H252907   5.254   3.341  14.677  2.4079 -0.6885  3.7856
10498TIP3   OH252908   6.047   6.732   0.991  0.5195  0.2496  0.2340
10498TIP3    H152909   6.127   6.781   0.974 -0.4646  1.8975  0.1712
10498TIP3    H252910   6.069   6.677   1.067  2.5546 -1.4915 -1.4827
10499TIP3   OH252911   3.374   3.998   0.560 -0.2977 -0.1769  0.1923
10499TIP3    H152912   3.441   4.015   0.493  1.0488 -0.8888  1.3114
10499TIP3    H252913   3.314   3.937   0.518  1.4354 -1.9285  0.1186
10500TIP3   OH252914   3.557   2.483   0.859 -0.0297 -0.0512 -0.3033
10500TIP3    H152915   3.499   2.520   0.925  0.1010 -0.5286  0.0872
10500TIP3    H252916   3.567   2.552   0.793 -0.3655  0.3328  0.0488
10501TIP3   OH252917   6.576   2.986   4.853  0.5042  0.2934 -0.2212
10501TIP3    H152918   6.660   3.022   4.882  1.8474 -2.0745 -0.8870
10501TIP3    H252919   6.582   2.985   4.757 -0.5961  0.6993 -0.3149
10502TIP3   OH252920   0.967   0.254   3.605  0.0839 -0.6007 -0.3037
10502TIP3    H152921   1.027   0.211   3.665  1.0725 -0.0355 -0.8635
10502TIP3    H252922   1.023   0.307   3.548 -0.9160 -0.2969 -1.0414
10503TIP3   OH252923   6.610   1.146   0.957 -0.4752 -1.1275  0.0085
10503TIP3    H152924   6.624   1.067   1.010 -1.3980 -1.2016  0.1467
10503TIP3    H252925   6.532   1.126   0.905  0.0177 -0.7833 -0.8765
10504TIP3   OH252926   0.221   5.152  15.758  0.1215  0.2259 -0.6114
10504TIP3    H152927   0.238   5.134  15.666 -0.4356  2.5993 -1.2457
10504TIP3    H252928   0.251   5.242  15.771  1.0626 -0.3620  1.7811
10505TIP3   OH252929   1.570   1.496  16.051 -0.0893  0.4885 -0.0835
10505TIP3    H152930   1.480   1.472  16.074 -0.3548 -1.4360 -2.7001
10505TIP3    H252931   1.563   1.587  16.020 -1.3019  0.1551 -0.8713
10506TIP3   OH252932   1.962   3.039   2.064 -0.0282 -0.0322  0.4351
10506TIP3    H152933   1.952   3.109   2.000 -0.5461 -0.9058 -0.4627
10506TIP3    H252934   2.053   3.047   2.095  0.0217  0.7990  0.0898
10507TIP3   OH252935   3.321   2.344   5.546 -0.3567  0.4532 -0.1203
10507TIP3    H152936   3.314   2.434   5.512  0.4975  0.4249 -0.4136
10507TIP3    H252937   3.374   2.353   5.625 -0.4829  0.2340 -0.0113
10508TIP3   OH252938   0.964   0.217  14.456 -0.0318  0.4074 -0.5357
10508TIP3    H152939   0.906   0.185  14.524 -0.0115  0.5317 -0.4611
10508TIP3    H252940   0.962   0.312  14.464 -1.2186  0.5048 -1.6822
10509TIP3   OH252941   5.415   5.798  15.268 -0.1891 -0.4343 -0.0318
10509TIP3    H152942   5.469   5.810  15.347 -1.0077 -0.7072  0.5823
10509TIP3    H252943   5.416   5.703  15.253 -0.0695 -0.3867 -0.3268
10510TIP3   OH252944   6.539   4.766  12.669  0.5281  0.3097  0.1666
10510TIP3    H152945   6.558   4.672  12.666  1.2990  0.4641  0.0922
10510TIP3    H252946   6.472   4.774  12.738  0.9801 -0.2064  0.6830
10511TIP3   OH252947   4.446   5.731   4.195  0.3187 -0.0118  0.0633
10511TIP3    H152948   4.410   5.816   4.170  0.0073 -0.3531 -0.6953
10511TIP3    H252949   4.523   5.751   4.247 -0.8687  0.7556  1.6261
10512TIP3   OH252950   6.338   0.804   0.004  0.1044  0.2816  0.3019
10512TIP3    H152951   6.384   0.825  -0.077 -0.6929 -0.1055 -0.2757
10512TIP3    H252952   6.384   0.728   0.039 -0.4956 -0.5316 -0.6312
10513TIP3   OH252953   0.254   0.449   6.120  0.1824 -0.7394 -0.3651
10513TIP3    H152954   0.270   0.390   6.193  0.3093  0.0624  0.2672
10513TIP3    H252955   0.270   0.537   6.155 -0.7558 -0.2611 -1.0602
10514TIP3   OH252956   2.691   6.459   1.629 -0.1162 -0.3903  0.2432
10514TIP3    H152957   2.629   6.468   1.702  1.2284 -1.2823  1.5578
10514TIP3    H252958   2.675   6.536   1.575 -1.6686 -0.0719  1.0722
10515TIP3   OH252959   3.587   1.776  10.409  0.8231 -0.4571  0.0487
10515TIP3    H152960   3.499   1.804  10.435  0.2040  0.2165 -2.4154
10515TIP3    H252961   3.642   1.853  10.422  0.4048  0.0501 -1.0453
10516TIP3   OH252962   6.322   4.872  14.620  0.1409  0.4629  0.2031
10516TIP3    H152963   6.381   4.825  14.561 -3.6540 -1.8880 -2.0769
10516TIP3    H252964   6.313   4.814  14.696  0.2300  0.4884  0.2331
10517TIP3   OH252965   5.621   0.998  13.208 -0.3775  0.3824  0.0417
10517TIP3    H152966   5.562   1.070  13.229  0.7510  1.8933 -1.6425
10517TIP3    H252967   5.688   1.001  13.276 -1.2340 -0.1915  0.9320
10518TIP3   OH252968   2.670   5.850  11.059  0.4218 -0.5484 -0.6288
10518TIP3    H152969   2.731   5.914  11.096 -0.2092 -0.5950  0.5503
10518TIP3    H252970   2.710   5.823  10.977  1.8156 -0.3357 -0.0414
10519TIP3   OH252971   4.557   0.052   5.124 -0.2560 -0.1475 -0.0644
10519TIP3    H152972   4.490   0.116   5.100 -0.0159  0.0982 -0.0910
10519TIP3    H252973   4.529  -0.029   5.082 -1.9488 -0.7550  2.0446
10520TIP3   OH252974   2.545   2.233   3.203 -0.5532 -0.0061  0.8640
10520TIP3    H152975   2.514   2.161   3.258  1.6553 -1.6604  0.0798
10520TIP3    H252976   2.588   2.294   3.263  2.2402 -2.0104  1.0883
10521TIP3   OH252977   2.471   5.911  12.558  0.4493 -0.1220 -0.3262
10521TIP3    H152978   2.552   5.918  12.608  0.8397 -0.6205 -0.8784
10521TIP3    H252979   2.499   5.915  12.466 -0.1778 -0.0116 -0.5168
10522TIP3   OH252980   5.440   6.291  16.104  0.1330  0.0070 -0.0342
10522TIP3    H152981   5.475   6.352  16.040 -3.1509  3.8164  1.3887
10522TIP3    H252982   5.470   6.324  16.188 -0.3111 -1.4319  0.7207
10523TIP3   OH252983   3.339   5.450  14.196  0.4779  0.0881  0.3522
10523TIP3    H152984   3.372   5.530  14.155  0.2851  0.3043  0.6124
10523TIP3    H252985   3.288   5.481  14.271 -1.6164 -0.1589 -0.9120
10524TIP3   OH252986   4.296   5.452  10.968 -0.3180 -0.5559 -0.9604
10524TIP3    H152987   4.331   5.431  10.881 -0.2073  1.3572 -1.4070
10524TIP3    H252988   4.217   5.503  10.951  0.8114  1.6443  0.0078
10525TIP3   OH252989   4.913   0.677  15.013 -0.5026  0.4651  0.8670
10525TIP3    H152990   5.006   0.669  15.033 -0.1513 -0.2106 -0.8815
10525TIP3    H252991   4.880   0.739  15.078  0.8066 -0.4957  2.5315
10526TIP3   OH252992   3.413   2.844  15.338  0.5436  0.5158 -0.0030
10526TIP3    H152993   3.424   2.843  15.243  1.0616  1.3621  0.0363
10526TIP3    H252994   3.318   2.840  15.352  0.3405  2.4327 -0.6181
10527TIP3   OH252995   3.268   5.511   1.285  0.0733  0.3624  0.7557
10527TIP3    H152996   3.219   5.431   1.302  1.1518  0.1457  3.2315
10527TIP3    H252997   3.210   5.581   1.314 -0.6719  0.5153 -0.9562
10528TIP3   OH252998   4.460   3.888   2.324 -0.0906  0.2779  0.0093
10528TIP3    H152999   4.522   3.816   2.315  0.3380  0.5146  1.0110
10528TIP3    H253000   4.392   3.855   2.382  0.7954  1.0903  1.5820
10529TIP3   OH253001   1.932   3.484  13.419  0.4116 -0.1763 -0.3437
10529TIP3    H153002   1.982   3.406  13.398  0.5563  0.0939 -1.0206
10529TIP3    H253003   1.911   3.523  13.335 -0.5253 -0.0199 -0.0504
10530TIP3   OH253004   3.959   2.236   0.591 -0.1978 -0.1096 -0.0084
10530TIP3    H153005   3.980   2.302   0.526  2.4945 -0.6598  0.1656
10530TIP3    H253006   3.953   2.284   0.673 -3.3188  0.5426 -0.5072
10531TIP3   OH253007   1.435   3.887  13.736 -0.0057  0.2330 -0.0877
10531TIP3    H153008   1.444   3.980  13.753  1.3733 -0.1438  1.5695
10531TIP3    H253009   1.366   3.858  13.796 -0.5540  0.2069 -0.7216
10532TIP3   OH253010   5.464   0.726   1.763 -0.1460  0.1986  0.4612
10532TIP3    H153011   5.425   0.655   1.813  0.0861  0.7492  1.4408
10532TIP3    H253012   5.505   0.682   1.688  0.3606 -0.7641  1.2719
10533TIP3   OH253013   3.736   4.059  17.040  0.1284 -0.4099 -0.3136
10533TIP3    H153014   3.798   4.037  16.971 -0.1721  1.2317 -1.1672
10533TIP3    H253015   3.747   3.990  17.105  0.4742 -1.9734 -1.9456
10534TIP3   OH253016   0.690   1.273   5.102  0.6135  0.2691 -0.4667
10534TIP3    H153017   0.723   1.202   5.157 -1.0582 -1.1230 -1.1583
10534TIP3    H253018   0.625   1.231   5.045  1.0680  1.9759 -2.3491
10535TIP3   OH253019   4.289   0.767   3.135  0.3195 -0.1632 -0.1578
10535TIP3    H153020   4.208   0.720   3.116 -0.5375  0.1704  2.3294
10535TIP3    H253021   4.353   0.699   3.155  0.1626 -0.3778 -0.3906
10536TIP3   OH253022   4.344   2.741   4.679  0.6493 -0.4772  0.8927
10536TIP3    H153023   4.262   2.694   4.698 -0.7303  1.3296 -0.2602
10536TIP3    H253024   4.409   2.671   4.670 -1.5578 -2.4418 -2.1505
10537TIP3   OH253025   3.589   3.828   4.082 -0.2889 -0.1405 -0.0544
10537TIP3    H153026   3.624   3.873   4.006 -0.4259  3.8441  1.9665
10537TIP3    H253027   3.660   3.828   4.146 -0.8769 -1.2640  0.6549
10538TIP3   OH253028   3.694   6.478   4.259  0.2423 -0.1656  0.2550
10538TIP3    H153029   3.640   6.412   4.216  1.3392  0.2728 -1.9518
10538TIP3    H253030   3.695   6.452   4.351  0.6092 -3.2467 -0.5016
10539TIP3   OH253031   1.036   3.990  12.861  0.8243 -0.3508 -0.0841
10539TIP3    H153032   0.943   4.008  12.846  1.3671  1.6215 -1.5302
10539TIP3    H253033   1.052   4.021  12.950  0.1472 -0.5060  0.0983
10540TIP3   OH253034   1.785   4.565   3.732  0.3807  0.3287 -0.3128
10540TIP3    H153035   1.693   4.542   3.745  0.6488 -0.2874  0.5390
10540TIP3    H253036   1.813   4.602   3.815  2.1782 -3.8727  1.2239
10541TIP3   OH253037   6.413   2.913   4.042  0.2822 -0.0713  0.1501
10541TIP3    H153038   6.345   2.940   4.103 -0.9776  0.3923 -1.3703
10541TIP3    H253039   6.378   2.938   3.956  3.3422  2.3657 -0.5610
10542TIP3   OH253040   1.656   3.069  12.832 -0.0065 -0.5198 -0.7965
10542TIP3    H153041   1.622   3.066  12.742  0.0507  0.4221 -0.8567
10542TIP3    H253042   1.750   3.080  12.822 -0.1564  1.1463 -0.6435
10543TIP3   OH253043   4.426   2.581  16.833 -0.1426 -0.3840  0.0538
10543TIP3    H153044   4.478   2.501  16.831 -1.3015 -1.2718  2.1357
10543TIP3    H253045   4.416   2.601  16.926 -0.7913  1.5876 -0.3927
10544TIP3   OH253046   1.332   3.736   5.122  0.6370  0.0651 -0.1078
10544TIP3    H153047   1.320   3.752   5.216  0.4236 -1.6427  0.1842
10544TIP3    H253048   1.252   3.693   5.094  0.3215  1.3353 -1.3086
10545TIP3   OH253049   3.414   4.330  15.530  0.3177  0.2956  0.5296
10545TIP3    H153050   3.398   4.238  15.555  0.4462  0.4533  1.2289
10545TIP3    H253051   3.353   4.380  15.584  0.7644  0.6678  0.7006
10546TIP3   OH253052   5.590   0.944   4.004 -0.1120  0.2394  0.0624
10546TIP3    H153053   5.672   0.926   3.958 -1.5466 -1.4349 -2.0437
10546TIP3    H253054   5.594   1.038   4.023  1.2306  0.7424 -2.2442
10547TIP3   OH253055   6.547   4.175   4.528  0.3155 -0.3550  0.5725
10547TIP3    H153056   6.547   4.222   4.611 -0.9106 -0.1244  0.4624
10547TIP3    H253057   6.607   4.225   4.472 -1.3926  1.4782  0.2662
10548TIP3   OH253058   2.302   4.530   2.253 -0.4401 -0.6718 -0.5371
10548TIP3    H153059   2.396   4.529   2.235  0.0806  1.0627  1.5816
10548TIP3    H253060   2.261   4.550   2.169  1.3341  1.5268 -0.9757
10549TIP3   OH253061   3.406   3.585   3.679 -0.0864  0.6685 -0.3007
10549TIP3    H153062   3.332   3.551   3.729  0.7326 -0.3062  0.3100
10549TIP3    H253063   3.483   3.556   3.729  0.8032 -0.8669 -2.4056
10550TIP3   OH253064   5.076   1.786  11.116  0.1027 -0.2645 -0.5631
10550TIP3    H153065   5.008   1.720  11.099  0.5137 -1.0059  0.5427
10550TIP3    H253066   5.157   1.736  11.124  0.2805  0.2348  1.2366
10551TIP3   OH253067   4.756   6.575  12.564 -0.1725 -0.1933  0.0543
10551TIP3    H153068   4.818   6.501  12.567 -0.5513 -0.5109  0.1544
10551TIP3    H253069   4.673   6.537  12.591 -0.4382  0.2119 -0.1882
10552TIP3   OH253070   6.409   6.671  16.020  0.0027  0.2336 -0.1937
10552TIP3    H153071   6.478   6.737  16.028 -1.0168  1.1338  2.2728
10552TIP3    H253072   6.434   6.603  16.081 -0.1284 -0.6039 -1.0477
10553TIP3   OH253073   4.762   0.003  15.285  0.3016 -0.3977  0.3497
10553TIP3    H153074   4.813   0.059  15.344  0.8791 -0.0179 -0.4840
10553TIP3    H253075   4.768  -0.084  15.323  2.8853 -0.6730 -0.5205
10554TIP3   OH253076   0.620   3.182  17.095  0.4065 -0.8947 -0.4008
10554TIP3    H153077   0.637   3.264  17.142  0.6290 -1.0324 -0.2358
10554TIP3    H253078   0.569   3.129  17.157  1.7350 -1.5588  0.1884
10555TIP3   OH253079   1.917   2.401  12.946  0.1861  0.2414  0.0334
10555TIP3    H153080   1.846   2.428  12.887  0.2134  0.1058 -0.0631
10555TIP3    H253081   1.921   2.470  13.012  1.0339  1.0881 -0.8599
10556TIP3   OH253082   2.802   0.416  14.544 -0.0297 -0.3654  0.2565
10556TIP3    H153083   2.765   0.378  14.464 -2.2940  0.4076  0.8882
10556TIP3    H253084   2.742   0.390  14.613  0.2559  1.4663  1.2516
10557TIP3   OH253085   3.201   3.154  15.550 -0.2196 -0.2620 -0.3729
10557TIP3    H153086   3.110   3.168  15.574 -0.1814 -1.4178  0.5574
10557TIP3    H253087   3.238   3.104  15.623  0.2028 -3.0146 -2.3325
10558TIP3   OH253088   1.148   6.071   4.940  0.3637 -0.3602 -0.3237
10558TIP3    H153089   1.134   6.021   5.020  1.7302  0.2759  0.3594
10558TIP3    H253090   1.061   6.097   4.911 -0.1509 -0.7185  0.8752
10559TIP3   OH253091   4.237   0.455   4.748 -0.2890  0.3334  0.0991
10559TIP3    H153092   4.187   0.374   4.762 -0.9313  0.5837 -0.6917
10559TIP3    H253093   4.282   0.469   4.831  0.0166 -0.9578  0.1780
10560TIP3   OH253094   1.463   5.930  11.143  0.4971  0.3894 -0.3448
10560TIP3    H153095   1.407   5.984  11.087  1.2281  2.3834  0.7398
10560TIP3    H253096   1.482   5.852  11.091 -1.5027  0.6316 -1.5640
10561TIP3   OH253097   6.323   4.324  16.060 -0.0914 -0.0429 -0.3897
10561TIP3    H153098   6.353   4.246  16.014  0.1296  0.3405 -0.8992
10561TIP3    H253099   6.254   4.360  16.004 -0.2179  0.1079 -0.1412
10562TIP3   OH253100   4.662   4.049   0.698  0.1275  0.7465  0.3459
10562TIP3    H153101   4.690   4.025   0.610 -0.3719 -0.6927  0.5447
10562TIP3    H253102   4.699   3.981   0.754 -0.4898  1.0130  1.0947
10563TIP3   OH253103   1.333   5.232   0.360 -0.3377 -0.0579  1.0168
10563TIP3    H153104   1.332   5.138   0.344 -0.6428 -0.4290  2.9472
10563TIP3    H253105   1.250   5.250   0.404 -0.0585  1.0190  1.1415
10564TIP3   OH253106   6.767   4.154   5.533  0.2638  0.4524  0.1071
10564TIP3    H153107   6.766   4.196   5.619  0.8647 -1.7872  1.3159
10564TIP3    H253108   6.843   4.095   5.537 -0.6703 -0.9170 -1.3385
10565TIP3   OH253109   1.307   3.097   2.267  0.0369 -0.4192  0.8293
10565TIP3    H153110   1.223   3.053   2.279 -0.5056  0.1497 -0.6434
10565TIP3    H253111   1.328   3.131   2.354 -2.7072  1.8812  0.7826
10566TIP3   OH253112   6.125   4.067  14.916 -0.2771  0.1297  0.0632
10566TIP3    H153113   6.158   4.153  14.890  1.7610 -0.9564 -1.1730
10566TIP3    H253114   6.051   4.051  14.858  1.4942 -0.3642 -2.1928
10567TIP3   OH253115   0.091   5.968  17.192  0.4111 -0.0223 -0.3892
10567TIP3    H153116   0.153   6.022  17.142  1.3772  0.0045  0.8104
10567TIP3    H253117   0.049   5.913  17.126  1.6807 -0.0138 -1.2442
10568TIP3   OH253118   5.042   5.446   2.754  0.3128  0.2279  0.3330
10568TIP3    H153119   4.987   5.370   2.776  2.3218 -0.5767  3.1862
10568TIP3    H253120   4.983   5.505   2.708 -2.1975 -1.7147  0.8142
10569TIP3   OH253121   0.337   3.343   2.594  0.3388  0.1024  0.5596
10569TIP3    H153122   0.255   3.381   2.562  0.4639  0.0337  0.1413
10569TIP3    H253123   0.316   3.252   2.613 -0.0387  0.4506  1.8658
10570TIP3   OH253124   5.718   2.049  17.227 -0.0229 -0.0561  0.1073
10570TIP3    H153125   5.717   2.123  17.288  3.7240  0.3052 -0.0440
10570TIP3    H253126   5.747   1.975  17.280 -0.6328 -0.6873 -0.4291
10571TIP3   OH253127   1.216   4.836  12.352 -0.0119  0.2989 -0.1419
10571TIP3    H153128   1.270   4.783  12.411 -0.1086 -0.4571 -0.7251
10571TIP3    H253129   1.244   4.926  12.369 -0.6678  0.2048  1.7245
10572TIP3   OH253130   2.186   5.081   1.006  0.7958 -0.1963  0.4672
10572TIP3    H153131   2.160   5.117   1.091  1.2149 -1.0362  0.9635
10572TIP3    H253132   2.164   5.150   0.944  0.6434  0.5111  1.2729
10573TIP3   OH253133   3.434   2.167  14.117  0.1432 -0.0222 -0.0276
10573TIP3    H153134   3.472   2.151  14.204  0.2028  0.4131  0.0298
10573TIP3    H253135   3.403   2.082  14.088  0.0588 -0.1606  0.4569
10574TIP3   OH253136   4.981   0.958   2.114 -0.1856  0.0119 -0.1873
10574TIP3    H153137   5.061   0.906   2.117  0.2053  0.5600 -0.9331
10574TIP3    H253138   4.971   0.992   2.203 -1.0651 -2.2234  0.6597
10575TIP3   OH253139   2.049   1.890  16.473 -0.1467 -0.5130 -0.3353
10575TIP3    H153140   2.089   1.816  16.429 -0.3197 -2.0092  1.8537
10575TIP3    H253141   2.101   1.966  16.446  1.2652 -1.7157 -1.1082
10576TIP3   OH253142   5.867   2.140   2.226  0.0215 -0.0120 -0.7028
10576TIP3    H153143   5.939   2.163   2.285  0.3812  1.0241 -1.5111
10576TIP3    H253144   5.905   2.076   2.166 -0.0787 -0.3669 -0.3897
10577TIP3   OH253145   4.541   1.479  13.528  0.1901 -0.4061  0.0789
10577TIP3    H153146   4.550   1.538  13.603 -1.9231  0.2086 -0.1033
10577TIP3    H253147   4.557   1.535  13.452 -0.9607 -0.2594 -0.0592
10578TIP3   OH253148   0.723   0.455   2.186 -0.8062  0.6380 -0.0867
10578TIP3    H153149   0.628   0.442   2.181 -0.5058 -1.7493 -1.1856
10578TIP3    H253150   0.756   0.376   2.227  0.8070  0.8941 -0.7972
10579TIP3   OH253151   2.662   5.023   6.795 -0.1041  0.6879 -0.3620
10579TIP3    H153152   2.701   4.936   6.801 -1.3492  0.1911  1.4473
10579TIP3    H253153   2.588   5.012   6.735 -0.6535  0.3015  0.3627
10580TIP3   OH253154   4.882   0.605  15.608  0.0534  0.0761 -0.0651
10580TIP3    H153155   4.788   0.612  15.593 -0.0858 -0.2517  0.6181
10580TIP3    H253156   4.897   0.653  15.690  0.0561 -2.0879  1.2623
10581TIP3   OH253157   3.166   1.074  10.667  0.1846  0.9128 -0.5216
10581TIP3    H153158   3.128   0.994  10.632  0.4461 -0.4677  2.0490
10581TIP3    H253159   3.255   1.076  10.633  0.4497 -0.3932  0.0578
10582TIP3   OH253160   0.382   5.993   0.846  0.2842 -0.0964 -0.1459
10582TIP3    H153161   0.399   5.926   0.913  2.8798 -0.0865 -0.6962
10582TIP3    H253162   0.463   5.996   0.795 -0.4485  2.1910 -1.2665
10583TIP3   OH253163   6.327   6.315   2.555  0.0787 -0.3801  0.2584
10583TIP3    H153164   6.381   6.381   2.511 -0.0227 -0.2625  0.3059
10583TIP3    H253165   6.295   6.259   2.485 -1.0080  0.4829  0.0285
10584TIP3   OH253166   2.489   1.334   0.518 -0.3153  0.1681  0.3504
10584TIP3    H153167   2.564   1.322   0.577  0.1563  0.0821 -0.2477
10584TIP3    H253168   2.511   1.281   0.442 -1.0790 -0.0008  0.2417
10585TIP3   OH253169   0.389   0.319   0.376 -0.5144  0.1139  0.2477
10585TIP3    H153170   0.296   0.326   0.397 -0.9498  0.2714 -1.5874
10585TIP3    H253171   0.393   0.331   0.281  1.4865  1.1046  0.4153
10586TIP3   OH253172   1.955   3.114  11.887 -0.2000  0.3319  0.4457
10586TIP3    H153173   1.987   3.122  11.977  0.4298 -0.1634  0.2774
10586TIP3    H253174   1.861   3.098  11.896  0.0965 -1.2832  1.1002
10587TIP3   OH253175   0.616   6.458   3.742  0.0821 -0.1733  0.0234
10587TIP3    H153176   0.678   6.510   3.792 -0.3188 -1.2139  1.6688
10587TIP3    H253177   0.531   6.498   3.761  0.0530  0.2711 -0.9650
10588TIP3   OH253178   5.088   1.750   3.738 -0.1688  0.3283 -0.2555
10588TIP3    H153179   5.164   1.769   3.794 -1.5338  0.0918  1.8117
10588TIP3    H253180   5.069   1.833   3.695  1.8189  0.1448 -1.6065
10589TIP3   OH253181   6.510   2.559   5.905  0.4639  0.4109 -0.0531
10589TIP3    H153182   6.550   2.473   5.887  0.1365  0.0003  1.1142
10589TIP3    H253183   6.418   2.539   5.924  0.1681  1.1318 -0.6557
10590TIP3   OH253184   2.219   3.605   5.009  0.2803  0.3439 -0.3133
10590TIP3    H153185   2.165   3.609   5.088  0.5911 -0.5737 -0.0467
10590TIP3    H253186   2.239   3.697   4.989  0.5592  0.5660  0.9248
10591TIP3   OH253187   5.844   6.112   4.825 -0.4097 -0.3089  0.1938
10591TIP3    H153188   5.839   6.075   4.914 -4.1204  1.3467  0.8407
10591TIP3    H253189   5.843   6.206   4.838 -1.4914 -0.0329 -1.5910
10592TIP3   OH253190   5.027   4.076  13.397  0.3484  0.5900  0.3940
10592TIP3    H153191   5.035   4.170  13.417  0.5298  0.6097  0.2264
10592TIP3    H253192   4.948   4.049  13.443  0.7251  0.6502  1.1005
10593TIP3   OH253193   1.662   6.737   1.204 -0.7363  0.3258 -0.0388
10593TIP3    H153194   1.596   6.757   1.271 -0.9921  1.2941 -0.5568
10593TIP3    H253195   1.618   6.758   1.122  0.6919  2.4396 -0.3391
10594TIP3   OH253196   1.657   1.566   3.009  0.0882  0.1647  0.0491
10594TIP3    H153197   1.603   1.489   2.990 -1.5797  0.6152  2.6254
10594TIP3    H253198   1.653   1.576   3.104  2.6421  1.7889  0.0888
10595TIP3   OH253199   3.950   6.699   5.764  0.7377 -0.4801  0.0564
10595TIP3    H153200   3.920   6.611   5.788 -1.5288  0.5447  1.2839
10595TIP3    H253201   3.951   6.747   5.847 -0.0141  1.1886 -0.8627
10596TIP3   OH253202   2.074   0.455   3.955 -0.0268 -0.6033 -0.1371
10596TIP3    H153203   1.988   0.418   3.931 -0.7605  0.7779  0.2990
10596TIP3    H253204   2.053   0.536   4.000  1.5208 -0.4970  0.4137
10597TIP3   OH253205   0.774   5.692  11.933 -0.1107  0.0581 -0.1083
10597TIP3    H153206   0.683   5.699  11.904 -1.2558 -0.7172  2.9104
10597TIP3    H253207   0.794   5.598  11.924  0.1472  0.1108 -0.0852
10598TIP3   OH253208   4.311   2.600  14.949 -0.3556  0.0783  0.4410
10598TIP3    H153209   4.350   2.679  14.986 -0.3230  1.2868 -1.9566
10598TIP3    H253210   4.359   2.586  14.867 -0.6961 -2.1725  0.5697
10599TIP3   OH253211   6.291   0.105   4.796  0.0901 -0.2832 -0.0397
10599TIP3    H153212   6.314   0.179   4.740  0.3144  0.5732  1.1300
10599TIP3    H253213   6.250   0.146   4.873 -1.8530 -1.5289 -0.3507
10600TIP3   OH253214   6.737   1.841  15.620 -0.2367  0.1410  0.0939
10600TIP3    H153215   6.706   1.766  15.569  1.7402  0.0776 -1.0717
10600TIP3    H253216   6.698   1.917  15.577  2.2377  0.1848 -2.2941
10601TIP3   OH253217   3.237   0.283   1.985 -0.1561  0.2651  0.2094
10601TIP3    H153218   3.245   0.319   2.073 -0.5914 -1.5674  1.0387
10601TIP3    H253219   3.237   0.188   1.997 -0.0073 -0.0356 -1.7910
10602TIP3   OH253220   4.108   3.130   5.935 -0.0157 -0.1641  0.3233
10602TIP3    H153221   4.131   3.039   5.953 -0.4634 -0.4909 -0.6964
10602TIP3    H253222   4.191   3.178   5.939  0.6957 -1.0801 -1.8818
10603TIP3   OH253223   0.021   4.805   5.602  0.8208 -0.5000 -0.2573
10603TIP3    H153224   0.058   4.878   5.652 -0.4328 -0.0183  0.0102
10603TIP3    H253225  -0.064   4.789   5.642  1.1894 -2.3255 -0.1332
10604TIP3   OH253226   4.510   4.735  15.703  0.2242 -0.3436 -0.7403
10604TIP3    H153227   4.492   4.661  15.761  1.1196  1.2101  1.7078
10604TIP3    H253228   4.423   4.773  15.687 -0.0714 -0.9469 -0.6130
10605TIP3   OH253229   1.696   4.665  12.618 -0.0065  0.4333  0.4619
10605TIP3    H153230   1.711   4.755  12.650 -1.6642  0.1841  2.0924
10605TIP3    H253231   1.627   4.674  12.553  0.3859  0.4199  0.0385
10606TIP3   OH253232   1.684   1.477   1.486 -0.7762  0.1511 -0.4011
10606TIP3    H153233   1.720   1.411   1.545 -0.8247 -0.1789 -0.7363
10606TIP3    H253234   1.589   1.468   1.494 -0.8154  1.4181  0.9253
10607TIP3   OH253235   4.508   4.836  12.162  0.0273 -0.2034  0.3552
10607TIP3    H153236   4.572   4.781  12.206  1.7244  2.4158  1.4038
10607TIP3    H253237   4.464   4.883  12.232  1.3131  2.4969 -0.4922
10608TIP3   OH253238   1.498   5.244   1.936 -0.3377 -1.0522 -0.5781
10608TIP3    H153239   1.502   5.328   1.890 -0.2282 -0.4276  0.5257
10608TIP3    H253240   1.583   5.204   1.919 -0.5792 -1.1765 -1.5322
10609TIP3   OH253241   0.397   6.349   4.332 -0.3230  0.0404 -0.2800
10609TIP3    H153242   0.404   6.310   4.419 -2.6874  2.6808  1.2855
10609TIP3    H253243   0.329   6.298   4.288 -0.2103 -0.3854  0.0362
10610TIP3   OH253244   4.346   0.982   3.348 -0.1773  0.4045  0.5995
10610TIP3    H153245   4.343   0.948   3.258 -3.2205  0.7017  0.5008
10610TIP3    H253246   4.313   0.911   3.402  0.8811  0.5103  1.4165
10611TIP3   OH253247   1.840   0.906   2.812 -0.0612  0.0680 -0.3075
10611TIP3    H153248   1.859   0.988   2.858 -0.8103 -0.5205  1.1077
10611TIP3    H253249   1.916   0.892   2.755  1.2694  0.4505  1.2990
10612TIP3   OH253250   3.196   1.106  14.333  0.1934 -0.3971 -0.3104
10612TIP3    H153251   3.133   1.179  14.330  3.2101  2.5449  1.0270
10612TIP3    H253252   3.174   1.060  14.414 -0.4217  0.4375  0.0185
10613TIP3   OH253253   3.299   0.281  12.136  0.2759 -0.2024  0.1010
10613TIP3    H153254   3.247   0.360  12.119  1.5987  0.7648  0.3505
10613TIP3    H253255   3.307   0.278  12.232  0.2583 -0.6251  0.0908
10614TIP3   OH253256   0.921   5.900  13.577 -0.6202 -0.0978 -0.2018
10614TIP3    H153257   0.946   5.980  13.624  0.4107 -0.7700  0.4287
10614TIP3    H253258   0.976   5.832  13.615  0.6158 -0.6066 -2.6869
10615TIP3   OH253259   5.722   5.136   6.148 -0.4024  0.1733 -0.2547
10615TIP3    H153260   5.718   5.043   6.170  0.1201  0.0451 -0.6749
10615TIP3    H253261   5.657   5.177   6.205  0.3150 -0.2594  0.9058
10616TIP3   OH253262   4.320   3.694  14.189 -0.6798  0.2486 -0.2548
10616TIP3    H153263   4.321   3.788  14.172  1.0892  0.5230  1.0266
10616TIP3    H253264   4.266   3.684  14.267  2.6477  0.9052  2.3934
10617TIP3   OH253265   1.688   2.228   4.747 -0.4802  0.1579  0.7895
10617TIP3    H153266   1.772   2.248   4.706  0.4653 -0.7159  2.2216
10617TIP3    H253267   1.647   2.313   4.761 -0.1397  0.5578 -0.5140
10618TIP3   OH253268   4.569   1.586  10.514 -0.0287  0.0906  0.2845
10618TIP3    H153269   4.519   1.587  10.432 -0.3995  0.8309  0.5111
10618TIP3    H253270   4.607   1.674  10.520  0.2319 -0.0518  0.7674
10619TIP3   OH253271   1.634   2.413   0.412  0.7178  0.3818  0.8377
10619TIP3    H153272   1.542   2.428   0.433 -0.0552  0.4462 -2.1047
10619TIP3    H253273   1.666   2.356   0.483 -1.2774  1.1424  2.4468
10620TIP3   OH253274   2.856   5.524   2.983  0.0632 -0.1423 -0.0763
10620TIP3    H153275   2.843   5.439   3.024  0.3584  0.3438  1.0750
10620TIP3    H253276   2.781   5.534   2.924 -2.0813  0.3527  2.5395
10621TIP3   OH253277   4.958   1.130   2.819 -0.0571  0.0297 -0.3845
10621TIP3    H153278   5.045   1.101   2.847 -0.8240 -1.1331  0.9433
10621TIP3    H253279   4.946   1.215   2.860  0.5175  0.2737 -0.7163
10622TIP3   OH253280   1.575   1.210  13.129  0.1799 -0.0720 -0.0753
10622TIP3    H153281   1.537   1.207  13.216  0.5433  0.9468  0.1351
10622TIP3    H253282   1.637   1.283  13.132 -0.7711  0.8351 -1.5675
10623TIP3   OH253283   0.731   5.647  13.055 -0.5080 -0.4575  1.0347
10623TIP3    H153284   0.800   5.696  13.010  0.0273 -0.8827  1.3804
10623TIP3    H253285   0.651   5.668  13.007  0.2156 -1.8470 -0.9061
10624TIP3   OH253286   0.759   0.227   6.656  0.7019 -0.2023 -0.1612
10624TIP3    H153287   0.852   0.247   6.648  0.5038  1.2822  0.8088
10624TIP3    H253288   0.737   0.251   6.746 -0.7472  0.0921 -0.5678
10625TIP3   OH253289   3.877   4.659   2.775 -0.0614 -0.3351 -0.5150
10625TIP3    H153290   3.810   4.724   2.796  0.1027 -0.1291 -0.6249
10625TIP3    H253291   3.948   4.678   2.836  0.5768  0.5172 -1.5010
10626TIP3   OH253292   4.911   6.555  16.131  0.4666  0.4253  0.3924
10626TIP3    H153293   4.904   6.459  16.130 -0.2840  0.4769  0.6494
10626TIP3    H253294   4.988   6.573  16.186 -0.2252  0.0161  1.5169
10627TIP3   OH253295   4.809   0.618  13.328 -0.1788  0.4647 -0.4858
10627TIP3    H153296   4.823   0.711  13.348 -0.3500  0.1140  1.4848
10627TIP3    H253297   4.717   0.602  13.350  0.1603 -0.4229  0.3600
10628TIP3   OH253298   1.621   2.392  14.323  0.1022  0.2617  0.3124
10628TIP3    H153299   1.692   2.377  14.260  0.4907 -2.2293  1.2642
10628TIP3    H253300   1.625   2.487  14.339  2.7535  0.3335 -0.2030
10629TIP3   OH253301   5.565   2.543  12.696  0.2450  0.2838 -0.0609
10629TIP3    H153302   5.533   2.457  12.667 -2.0675  0.4383  1.7748
10629TIP3    H253303   5.638   2.523  12.755  1.0192 -0.2949 -1.1925
10630TIP3   OH253304   4.674   5.154   4.989  0.6355 -0.1460 -0.2797
10630TIP3    H153305   4.609   5.200   4.936 -0.3484  0.9294  1.7273
10630TIP3    H253306   4.642   5.162   5.079  3.0730 -0.4025  0.7032
10631TIP3   OH253307   1.587   2.345  13.842  0.0146  0.1104 -0.0430
10631TIP3    H153308   1.591   2.273  13.906 -0.0437 -1.1097 -1.3596
10631TIP3    H253309   1.521   2.316  13.779 -0.3035  1.5337 -0.3805
10632TIP3   OH253310   4.265   6.058   5.726  0.2849  0.4771  0.0407
10632TIP3    H153311   4.236   5.983   5.779  0.4684 -0.3633 -1.0157
10632TIP3    H253312   4.189   6.115   5.721 -0.1753 -0.1266  0.0321
10633TIP3   OH253313   2.361   2.476   3.317  0.5690 -0.4098  0.3288
10633TIP3    H153314   2.449   2.515   3.312 -0.0978  1.0492 -0.3314
10633TIP3    H253315   2.369   2.395   3.266  1.5808 -0.3969  0.4325
10634TIP3   OH253316   2.359   3.479   3.488  0.4750 -0.3272 -0.2464
10634TIP3    H153317   2.301   3.477   3.563 -1.2896 -0.8240 -1.5627
10634TIP3    H253318   2.447   3.483   3.526 -0.4032  2.5146  1.8209
10635TIP3   OH253319   0.693   3.743   4.901  0.7215  0.0184 -0.0975
10635TIP3    H153320   0.641   3.822   4.916  0.5675 -0.1719  0.3441
10635TIP3    H253321   0.775   3.777   4.863  1.1607  0.5027  1.2410
10636TIP3   OH253322   4.963   1.709   0.860  0.1528 -0.2762 -0.1367
10636TIP3    H153323   4.892   1.652   0.830  2.0815 -2.9940  0.0997
10636TIP3    H253324   4.965   1.697   0.955 -1.8557  3.3725  0.5467
10637TIP3   OH253325   0.471   2.728   6.565  0.1368 -0.3883  0.7050
10637TIP3    H153326   0.539   2.695   6.624 -1.0813 -1.4499  1.5854
10637TIP3    H253327   0.470   2.822   6.581  1.7562 -0.2556  0.2578
10638TIP3   OH253328   5.790   4.818   4.319 -0.6184  0.4475  0.3286
10638TIP3    H153329   5.699   4.790   4.330 -0.3040  0.0351  2.2901
10638TIP3    H253330   5.820   4.773   4.240 -2.5917  2.0158 -1.4753
10639TIP3   OH253331   3.427   4.982   3.336  0.0858 -0.3716 -0.6645
10639TIP3    H153332   3.373   4.917   3.291 -1.9313  0.9347 -0.2753
10639TIP3    H253333   3.381   4.997   3.419  1.6314  0.0768  0.1471
10640TIP3   OH253334   4.086   1.174  11.945 -0.1838 -0.4887  0.0001
10640TIP3    H153335   4.064   1.119  11.870  1.2356  0.2335 -0.9870
10640TIP3    H253336   4.167   1.136  11.980  0.2092  0.3124 -0.0188
10641TIP3   OH253337   5.180   6.683   2.601  0.1463  0.0623 -0.6003
10641TIP3    H153338   5.135   6.643   2.527 -0.2990  2.2298 -1.5767
10641TIP3    H253339   5.163   6.624   2.674 -0.2868 -1.5980 -1.9788
10642TIP3   OH253340   6.089   0.045  14.100  0.1421 -0.4211 -0.2071
10642TIP3    H153341   6.156   0.016  14.038  0.8550 -0.5409  0.5953
10642TIP3    H253342   6.137   0.096  14.165 -0.6468  0.0252  0.0418
10643TIP3   OH253343   6.113   3.052   2.760 -0.0925 -0.1558 -0.1076
10643TIP3    H153344   6.101   3.091   2.846 -0.8730 -0.7392  0.0670
10643TIP3    H253345   6.103   3.125   2.699  0.5030  0.2685  0.2925
10644TIP3   OH253346   0.258   5.456   4.337  0.0335 -0.0137  0.2322
10644TIP3    H153347   0.299   5.519   4.395  1.3105 -0.9963  0.4341
10644TIP3    H253348   0.317   5.381   4.336 -0.4026 -0.3933 -1.6296
10645TIP3   OH253349   2.237   4.396  16.703  0.1063  0.7067 -0.1285
10645TIP3    H153350   2.273   4.343  16.632  2.6300  1.1271  0.7318
10645TIP3    H253351   2.196   4.332  16.762 -1.3221  0.2867 -1.5230
10646TIP3   OH253352   4.854   2.518  12.048  0.2173 -0.0543  0.0727
10646TIP3    H153353   4.836   2.607  12.078  0.7828  0.6913 -1.6823
10646TIP3    H253354   4.826   2.462  12.121 -1.3427  1.4722  0.7224
10647TIP3   OH253355   4.233   0.887  10.693  0.3608 -0.2078  0.4999
10647TIP3    H153356   4.289   0.955  10.654 -1.0915  0.6676 -0.1433
10647TIP3    H253357   4.262   0.806  10.651  1.8936  0.0462  1.0199
10648TIP3   OH253358   4.942   0.830   2.593 -0.1101 -0.2275 -0.2934
10648TIP3    H153359   4.884   0.757   2.615  0.7252 -1.1573 -1.0482
10648TIP3    H253360   5.029   0.800   2.618  0.2190  0.6001 -0.4167
10649TIP3   OH253361   4.925   6.002  14.370  0.4449  0.3994 -0.4397
10649TIP3    H153362   5.020   5.994  14.377  0.6123  1.2790 -1.3767
10649TIP3    H253363   4.908   6.004  14.276 -0.3520  1.6377 -0.2956
10650TIP3   OH253364   6.099   4.408  15.911  0.4489  0.4046 -0.3786
10650TIP3    H153365   6.020   4.460  15.927  0.0769 -1.0355  3.6045
10650TIP3    H253366   6.076   4.352  15.837 -1.2421  1.8313 -1.0115
10651TIP3   OH253367   2.316   1.807   6.000 -0.3979  0.7952 -0.4367
10651TIP3    H153368   2.227   1.833   6.021 -0.7928 -0.8482  0.0769
10651TIP3    H253369   2.361   1.803   6.085 -0.3321 -0.0645 -0.5029
10652TIP3   OH253370   3.680   5.794   1.745  0.5883 -0.5740  0.7204
10652TIP3    H153371   3.591   5.769   1.767 -0.5739 -0.7209 -3.4286
10652TIP3    H253372   3.689   5.884   1.776 -2.5636  0.9502 -2.2353
10653TIP3   OH253373   5.513   6.142  14.396 -0.1564 -0.3503  0.1136
10653TIP3    H153374   5.500   6.139  14.301  1.2740 -1.0453 -0.0919
10653TIP3    H253375   5.437   6.188  14.430 -1.3940 -1.3178 -1.2437
10654TIP3   OH253376   2.498   1.711   4.028  0.4490 -0.5626 -0.9843
10654TIP3    H153377   2.505   1.646   4.098 -1.9667 -0.3688 -0.4533
10654TIP3    H253378   2.530   1.665   3.950 -0.2895 -2.0884 -0.4409
10655TIP3   OH253379   0.192   0.951  13.789 -0.4505 -0.1015 -0.2618
10655TIP3    H153380   0.238   1.023  13.746 -0.5509  0.1841  0.1021
10655TIP3    H253381   0.262   0.892  13.818 -0.4285 -1.6759 -3.1026
10656TIP3   OH253382   4.527   5.368  15.531 -0.3823  0.0306  0.7310
10656TIP3    H153383   4.542   5.349  15.438  0.0616 -1.7709  1.1276
10656TIP3    H253384   4.442   5.328  15.550  0.9613 -2.5448  1.8015
10657TIP3   OH253385   5.353   2.019   3.947 -0.4122  0.0142 -0.0188
10657TIP3    H153386   5.360   2.096   3.892  1.1765  0.7996  1.1664
10657TIP3    H253387   5.265   2.021   3.983 -0.0732  1.9106  0.8084
10658TIP3   OH253388   1.342   2.882  14.658  0.3691 -0.8681 -0.3018
10658TIP3    H153389   1.396   2.932  14.719 -1.2677 -1.2156  1.5628
10658TIP3    H253390   1.401   2.815  14.624  1.9116  0.6958 -0.8469
10659TIP3   OH253391   6.468   3.460   0.579  0.2254 -0.1115  0.4121
10659TIP3    H153392   6.543   3.500   0.623  0.7146 -1.3766  0.7498
10659TIP3    H253393   6.395   3.519   0.599  1.5079  2.4753 -1.8787
10660TIP3   OH253394   2.464   4.194   3.888 -0.0286 -0.4552 -0.1366
10660TIP3    H153395   2.377   4.158   3.871 -0.2704 -0.1763  0.4889
10660TIP3    H253396   2.509   4.126   3.938  0.0355 -0.5027 -0.2579
10661TIP3   OH253397   3.991   4.946  17.016  0.7411  0.2753  0.3540
10661TIP3    H153398   3.907   4.951  16.972  1.3636  0.7639 -0.8222
10661TIP3    H253399   3.969   4.943  17.110 -0.5730  0.1474  0.0571
10662TIP3   OH253400   0.220   6.540   4.632  0.1546 -0.1631 -0.7126
10662TIP3    H153401   0.292   6.487   4.665  0.0282  0.0903 -0.0100
10662TIP3    H253402   0.173   6.568   4.711  0.4658  1.3307 -1.0272
10663TIP3   OH253403   2.946   4.783  16.595  0.2959 -0.6984  0.2750
10663TIP3    H153404   3.005   4.763  16.522  1.1120  0.1283  0.6908
10663TIP3    H253405   2.858   4.775  16.558  0.6670 -1.5006 -0.4729
10664TIP3   OH253406   2.827   4.476   2.846  0.2604 -0.5600  0.0818
10664TIP3    H153407   2.819   4.479   2.942  0.4730  0.2981  0.0841
10664TIP3    H253408   2.919   4.500   2.830 -0.0860  0.5283 -0.3746
10665TIP3   OH253409   1.088   1.357   1.662  0.2759 -0.3504  0.1019
10665TIP3    H153410   0.998   1.325   1.663  0.1543 -0.0092  0.5983
10665TIP3    H253411   1.137   1.289   1.615 -0.5770  0.4220 -2.0490
10666TIP3   OH253412   1.330   2.916   5.310 -0.7305  0.0123 -1.0448
10666TIP3    H153413   1.304   2.879   5.395  1.6521 -1.6541 -0.9455
10666TIP3    H253414   1.425   2.927   5.317 -0.9020  3.4484 -2.2197
10667TIP3   OH253415   0.789   6.767   0.067 -0.2084 -0.1564  0.4995
10667TIP3    H153416   0.866   6.712   0.079  1.4792  1.5283 -1.8196
10667TIP3    H253417   0.786   6.784  -0.027  0.4842  5.1216  1.1690
10668TIP3   OH253418   1.843   1.969   3.472 -0.3537 -0.1980 -1.1351
10668TIP3    H153419   1.855   1.976   3.567  3.3211  0.7372 -1.5231
10668TIP3    H253420   1.808   1.881   3.459  0.4464 -0.8878  0.9993
10669TIP3   OH253421   1.660   1.163   3.127  0.1882 -0.4438  0.2688
10669TIP3    H153422   1.608   1.214   3.065 -1.2012 -1.9224  0.1432
10669TIP3    H253423   1.670   1.221   3.203 -0.9381  0.2020 -0.0455
10670TIP3   OH253424   0.185   2.602  13.908 -0.4179  0.1052 -0.0874
10670TIP3    H153425   0.183   2.674  13.845 -0.9761 -0.7859 -1.1173
10670TIP3    H253426   0.255   2.625  13.969  1.1760  0.2753 -1.8945
10671TIP3   OH253427   1.366   4.045  15.532 -0.2475 -0.1899  0.0843
10671TIP3    H153428   1.286   4.097  15.539  1.0244  1.9110 -0.2310
10671TIP3    H253429   1.397   4.036  15.623  0.5322  1.3267  0.0011
10672TIP3   OH253430   6.107   1.196  15.652 -0.0184  0.0809  0.3503
10672TIP3    H153431   6.093   1.287  15.624  0.7089  0.7515  2.0162
10672TIP3    H253432   6.179   1.164  15.598  0.3058  0.7981  0.3479
10673TIP3   OH253433   5.445   2.620   2.046  0.2091 -0.6321 -0.2283
10673TIP3    H153434   5.461   2.567   1.968  0.2355  0.4519 -0.9962
10673TIP3    H253435   5.521   2.679   2.050 -0.8252  0.7769 -0.6511
10674TIP3   OH253436   4.706   3.093  13.996  0.2123  0.1207 -0.1172
10674TIP3    H153437   4.722   3.149  13.920  4.0579 -1.3866 -0.6449
10674TIP3    H253438   4.720   3.150  14.071  1.1081  0.6107 -0.6325
10675TIP3   OH253439   1.235   0.740  13.133  0.5457  0.1774 -0.2806
10675TIP3    H153440   1.239   0.774  13.223  0.9778 -1.7070  0.4726
10675TIP3    H253441   1.325   0.744  13.102  0.7973 -1.1839  0.2075
10676TIP3   OH253442   1.631   3.692  10.890  0.4412  0.2687  0.1705
10676TIP3    H153443   1.711   3.744  10.881 -0.7952  2.4266  0.9273
10676TIP3    H253444   1.593   3.693  10.802  1.1153 -0.5979 -0.1467
10677TIP3   OH253445   1.346   3.805  15.384 -0.0905 -0.6920  0.5106
10677TIP3    H153446   1.361   3.897  15.405  1.6938 -0.6283 -0.8477
10677TIP3    H253447   1.291   3.807  15.305  2.4466 -0.6455 -1.3683
10678TIP3   OH253448   3.695   0.182   3.989 -0.0768 -0.1672  0.8214
10678TIP3    H153449   3.663   0.131   4.063 -0.1173 -1.4398 -0.0420
10678TIP3    H253450   3.769   0.132   3.955 -0.6238 -0.0958 -0.5394
10679TIP3   OH253451   2.473   5.649  11.098  0.4323 -0.2969 -0.0010
10679TIP3    H153452   2.451   5.642  11.005 -1.7764  0.9465  0.3652
10679TIP3    H253453   2.545   5.712  11.101 -2.2288  3.0588 -0.6691
10680TIP3   OH253454   4.769   3.268  13.789 -0.3835  0.1316 -0.1840
10680TIP3    H153455   4.833   3.239  13.724 -0.9281 -2.4641  0.3314
10680TIP3    H253456   4.712   3.329  13.741 -0.7318 -1.6491 -2.1737
10681TIP3   OH253457   1.705   4.118  11.374 -0.4000 -0.0337  0.3394
10681TIP3    H153458   1.651   4.121  11.295 -0.0898  1.3750  0.1516
10681TIP3    H253459   1.644   4.129  11.446 -0.5390 -0.0378  0.2230
10682TIP3   OH253460   5.837   4.011  13.429  0.1519  0.5214 -1.0118
10682TIP3    H153461   5.789   3.929  13.417  1.1309  0.0253 -1.6109
10682TIP3    H253462   5.769   4.079  13.424 -0.7345 -0.2624 -0.0626
10683TIP3   OH253463   0.046   2.209  13.566  0.3208  0.0514  0.0683
10683TIP3    H153464  -0.040   2.221  13.526 -0.5341  3.7349  2.4897
10683TIP3    H253465   0.091   2.293  13.553  3.0773 -1.3225  0.0475
10684TIP3   OH253466   2.743   2.149  17.003 -0.5228  0.7126 -0.1882
10684TIP3    H153467   2.782   2.109  16.926  2.1041 -2.0449  2.2816
10684TIP3    H253468   2.650   2.129  16.997  0.0984 -2.3108 -1.1392
10685TIP3   OH253469   2.439   0.134  13.524  0.4264  0.4573  0.0807
10685TIP3    H153470   2.392   0.079  13.461 -0.0295  0.8523  0.0709
10685TIP3    H253471   2.448   0.079  13.602 -1.0433  0.7390  0.4873
10686TIP3   OH253472   3.655   4.784  16.183 -0.7509  0.0310  0.1930
10686TIP3    H153473   3.653   4.709  16.242 -0.8374  0.4760  0.7591
10686TIP3    H253474   3.725   4.763  16.121 -0.8544 -0.5703  0.2739
10687TIP3   OH253475   3.308   2.105  11.830  0.1624 -0.0187  0.0513
10687TIP3    H153476   3.290   2.020  11.790  1.1050 -0.3130  0.2260
10687TIP3    H253477   3.282   2.168  11.763  0.2361 -0.4701 -0.4107
10688TIP3   OH253478   2.725   3.474   5.190 -0.4689 -0.0807  0.1549
10688TIP3    H153479   2.748   3.384   5.168  2.0723  0.5361  0.0500
10688TIP3    H253480   2.791   3.502   5.254  0.0081  2.3008 -1.2285
10689TIP3   OH253481   5.367   1.671   3.341  0.2388 -0.0420 -0.3591
10689TIP3    H153482   5.447   1.651   3.391  0.5408 -0.7388 -1.1059
10689TIP3    H253483   5.367   1.608   3.270 -0.6654  0.3615 -0.7248
10690TIP3   OH253484   1.365   6.173  14.487  0.6927 -0.6316  0.0399
10690TIP3    H153485   1.343   6.081  14.501 -0.1120 -0.7881 -2.0411
10690TIP3    H253486   1.285   6.212  14.453  0.7385  1.0923  1.7067
10691TIP3   OH253487   4.473   0.482  16.853 -0.0430 -0.3906  0.5520
10691TIP3    H153488   4.405   0.534  16.897  0.1484  0.6122 -0.3014
10691TIP3    H253489   4.429   0.441  16.780 -0.3200 -1.9219  1.5306
10692TIP3   OH253490   6.439   6.235   0.426 -0.0048  0.1591  0.4709
10692TIP3    H153491   6.466   6.273   0.510 -0.7622  2.4758 -0.2578
10692TIP3    H253492   6.347   6.259   0.418  0.4169  1.3591 -1.6650
10693TIP3   OH253493   2.055   5.236   4.658 -0.1652  0.2860  0.2360
10693TIP3    H153494   2.080   5.190   4.578 -1.0868  0.2985 -0.0720
10693TIP3    H253495   2.072   5.329   4.639  0.1467  0.2373  0.2664
10694TIP3   OH253496   6.256   1.163  15.425  0.3058 -0.6342 -0.4546
10694TIP3    H153497   6.225   1.128  15.342 -0.0637  3.2409 -2.1989
10694TIP3    H253498   6.330   1.219  15.401  0.2458  0.5461  1.8050
10695TIP3   OH253499   0.598   4.506   5.198  0.2794  0.1487  0.4635
10695TIP3    H153500   0.507   4.477   5.205  0.6169 -0.6254  2.3238
10695TIP3    H253501   0.627   4.515   5.289  2.2252 -0.1322 -0.0827
10696TIP3   OH253502   3.156   5.751  15.103  0.3222  0.0919  0.0926
10696TIP3    H153503   3.122   5.662  15.117  0.2489  0.0597 -0.2777
10696TIP3    H253504   3.162   5.788  15.191 -0.6462  0.0931  0.1681
10697TIP3   OH253505   4.446   1.856   1.692  0.5306  0.8216  0.0845
10697TIP3    H153506   4.427   1.833   1.601  0.4071 -2.3845  0.8020
10697TIP3    H253507   4.541   1.873   1.693  0.4932  1.1025 -0.6655
10698TIP3   OH253508   6.241   1.710  17.315 -0.1487  0.2408 -0.3736
10698TIP3    H153509   6.234   1.757  17.232  0.7530 -0.7662 -1.0463
10698TIP3    H253510   6.331   1.678  17.317 -0.1284  0.3162  1.0452
10699TIP3   OH253511   6.055   4.297  14.180  0.1210 -0.5905 -0.7673
10699TIP3    H153512   6.082   4.345  14.103 -0.6431  0.2679 -0.5161
10699TIP3    H253513   5.965   4.270  14.162 -0.0456 -0.4313 -0.2110
10700TIP3   OH253514   3.952   0.639  17.266 -0.1603 -0.2948 -0.5150
10700TIP3    H153515   3.988   0.686  17.190 -0.4101 -0.5494 -0.7949
10700TIP3    H253516   3.967   0.546  17.245 -2.0664 -0.4898 -1.2120
10701TIP3   OH253517   5.689   3.681  12.612 -0.2919  0.0565 -0.2389
10701TIP3    H153518   5.693   3.589  12.637  0.4230  0.1348 -0.0427
10701TIP3    H253519   5.780   3.706  12.599 -0.5176  0.5897 -0.8432
10702TIP3   OH253520   1.693   6.764  16.244  0.2991  0.8500 -0.1447
10702TIP3    H153521   1.690   6.752  16.339 -1.1558  0.3514 -0.2297
10702TIP3    H253522   1.612   6.725  16.212 -0.4229  3.1291 -1.3513
10703TIP3   OH253523   0.648   4.017   0.913  0.4720  0.4845 -0.6499
10703TIP3    H153524   0.644   4.072   0.992 -0.3419 -0.9793  0.3674
10703TIP3    H253525   0.594   4.063   0.850  0.8686  1.5173 -0.2660
10704TIP3   OH253526   4.999   4.736   4.332 -0.4215 -0.2612 -0.4775
10704TIP3    H153527   5.056   4.775   4.399 -1.4750 -0.6477  0.6808
10704TIP3    H253528   5.053   4.669   4.291  0.5641  0.6413 -0.7012
10705TIP3   OH253529   2.966   2.914  14.494  0.9268 -0.1124  0.0044
10705TIP3    H153530   3.033   2.920  14.562  1.0477  0.9203 -0.2015
10705TIP3    H253531   2.886   2.893  14.543  1.1348 -0.0184  0.3942
10706TIP3   OH253532   5.170   6.239  16.195 -0.3836  0.3356  0.0317
10706TIP3    H153533   5.157   6.300  16.267  0.5661 -0.2113  0.6924
10706TIP3    H253534   5.261   6.252  16.169  0.7036 -2.5373  1.9127
10707TIP3   OH253535   2.080   6.289  14.967  0.1948 -0.0980 -0.1612
10707TIP3    H153536   2.075   6.195  14.983 -0.7982 -0.2164 -1.0616
10707TIP3    H253537   2.158   6.299  14.912  0.7458 -0.2910  0.5759
10708TIP3   OH253538   0.675   6.602   0.753  0.0012 -0.0025 -0.5459
10708TIP3    H153539   0.760   6.570   0.721 -0.7693 -1.7972 -0.8973
10708TIP3    H253540   0.638   6.649   0.678 -0.5663 -1.7565 -1.4139
10709TIP3   OH253541   4.917   3.268  15.525  0.0454  0.2423  0.3287
10709TIP3    H153542   4.827   3.297  15.538  0.1532  1.1800 -0.8751
10709TIP3    H253543   4.962   3.345  15.490  0.8627 -0.7571 -0.9067
10710TIP3   OH253544   4.518   3.746  16.978  0.3731 -0.0603  0.0094
10710TIP3    H153545   4.588   3.694  17.019 -0.0136 -0.8383 -0.2902
10710TIP3    H253546   4.438   3.701  17.004 -0.0341  0.9004  0.4526
10711TIP3   OH253547   4.413   6.649   3.976  0.2448  0.1526  0.9349
10711TIP3    H153548   4.441   6.737   3.950 -1.8662  0.7966  0.5966
10711TIP3    H253549   4.348   6.624   3.911  1.0467 -1.8494  0.8294
10712TIP3   OH253550   4.747   3.593  16.381 -0.5504  0.1052 -0.0154
10712TIP3    H153551   4.784   3.627  16.463  0.8773  0.3477 -0.7349
10712TIP3    H253552   4.750   3.667  16.321 -1.0541 -0.2259 -0.4535
10713TIP3   OH253553   3.713   4.443  11.212  0.0707 -0.0385  0.1409
10713TIP3    H153554   3.676   4.365  11.170  0.4278  0.4587 -1.1537
10713TIP3    H253555   3.726   4.504  11.140 -0.1162  1.1920  1.1297
10714TIP3   OH253556   6.089   1.133  12.941  0.2404 -0.1483  0.3773
10714TIP3    H153557   6.083   1.218  12.985 -0.0876  0.9651 -1.6636
10714TIP3    H253558   6.009   1.127  12.889  0.1046 -1.8960  0.7135
10715TIP3   OH253559   5.531   2.785  13.347  0.2707 -0.1836  0.4237
10715TIP3    H153560   5.598   2.835  13.393 -0.5799  1.0710  0.3607
10715TIP3    H253561   5.570   2.699  13.331  1.0824 -0.1845  2.2561
10716TIP3   OH253562   6.287   4.225  17.071  0.0380 -0.4739  0.1312
10716TIP3    H153563   6.212   4.257  17.020  1.0598  0.8397 -0.6200
10716TIP3    H253564   6.343   4.302  17.080  0.0609 -0.7441  3.0203
10717TIP3   OH253565   1.614   1.111  12.787 -0.0260 -0.4441 -0.2523
10717TIP3    H153566   1.676   1.137  12.855 -1.1962 -0.2302  0.7646
10717TIP3    H253567   1.581   1.193  12.752 -1.8391 -0.4973  1.2089
10718TIP3   OH253568   1.495   0.270  16.181  0.3582  0.3110 -0.7589
10718TIP3    H153569   1.540   0.354  16.193 -1.3601  1.0867  0.6698
10718TIP3    H253570   1.495   0.230  16.268 -3.0703  1.1085 -0.2775
10719TIP3   OH253571   6.729   3.068  14.437 -0.0866  0.2880 -0.0615
10719TIP3    H153572   6.660   3.023  14.388  0.6582 -0.9708 -0.0068
10719TIP3    H253573   6.763   3.001  14.496  2.0695  0.4826 -1.0131
10720TIP3   OH253574   1.355   5.995  15.913 -0.6323  0.9435  0.0576
10720TIP3    H153575   1.424   6.061  15.910 -0.6281  1.0332  1.3829
10720TIP3    H253576   1.305   6.008  15.832  1.0484  0.6880 -1.0668
10721TIP3   OH253577   1.839   0.734   6.667 -0.0932 -0.2294 -0.4049
10721TIP3    H153578   1.789   0.653   6.665 -0.2425 -0.1227 -1.4779
10721TIP3    H253579   1.880   0.735   6.754 -1.0837 -0.8342  0.0821
10722TIP3   OH253580   1.360   1.654   0.449  0.2066 -0.1188  0.5711
10722TIP3    H153581   1.345   1.665   0.543  1.5688  0.4678  0.7423
10722TIP3    H253582   1.413   1.729   0.424  1.3780 -1.1808 -0.2984
10723TIP3   OH253583   2.644   6.248   4.413 -0.4029  0.4709  0.5535
10723TIP3    H153584   2.666   6.332   4.372  0.1619  0.4342  0.7748
10723TIP3    H253585   2.591   6.272   4.489 -1.9428  0.5118 -0.4909
10724TIP3   OH253586   3.868   1.516  12.910  0.4341 -0.0642 -0.8565
10724TIP3    H153587   3.879   1.425  12.937 -2.0493 -0.1280  0.2980
10724TIP3    H253588   3.774   1.525  12.894  0.4851  2.4556 -0.2276
10725TIP3   OH253589   0.083   6.609   5.760 -0.1473 -0.0988 -0.6660
10725TIP3    H153590   0.097   6.556   5.839 -0.8613 -0.4398 -0.7583
10725TIP3    H253591   0.141   6.684   5.771  0.1807 -0.4293 -0.0841
10726TIP3   OH253592   1.985   3.707  16.845 -0.2292  0.4605  0.2962
10726TIP3    H153593   1.918   3.685  16.779  0.9135  0.7274 -1.0087
10726TIP3    H253594   2.041   3.629  16.848  0.3520  0.8655  0.1340
10727TIP3   OH253595   0.924   1.217  13.966 -1.1271 -0.1094 -0.4428
10727TIP3    H153596   0.839   1.261  13.970 -0.1724  1.8905 -1.2795
10727TIP3    H253597   0.939   1.187  14.056 -1.8989  1.0977  0.1119
10728TIP3   OH253598   3.138   5.950   1.740 -0.2670  0.0584  0.2086
10728TIP3    H153599   3.111   5.876   1.794  0.9546 -0.2537  0.4330
10728TIP3    H253600   3.166   5.910   1.658  0.8185  0.2030  0.4897
10729TIP3   OH253601   3.403   2.070   5.101  0.0561  0.5533  0.2657
10729TIP3    H153602   3.451   1.988   5.108 -0.9784  0.0082  1.4258
10729TIP3    H253603   3.379   2.092   5.191 -0.9659  1.3240 -0.1672
10730TIP3   OH253604   2.990   3.749  13.916  0.4546 -0.1551  0.4502
10730TIP3    H153605   2.965   3.738  14.008 -0.4909  1.9232  0.4966
10730TIP3    H253606   2.910   3.777  13.872  1.6896  2.7445 -0.1972
10731TIP3   OH253607   5.830   3.497   1.980  0.0002  0.0138 -0.1018
10731TIP3    H153608   5.892   3.568   1.968 -0.7497  0.8353  0.7437
10731TIP3    H253609   5.884   3.419   1.994  0.8274  0.5603 -0.2278
10732TIP3   OH253610   1.996   4.236  12.157  0.3209 -0.0453 -0.7229
10732TIP3    H153611   2.020   4.322  12.192 -2.0150  0.2307  0.3484
10732TIP3    H253612   2.074   4.182  12.172  1.6519  1.7212 -0.9735
10733TIP3   OH253613   0.663   1.787   5.177 -0.5849 -0.0113  0.4102
10733TIP3    H153614   0.757   1.805   5.170 -0.4814  0.2506  1.9586
10733TIP3    H253615   0.644   1.726   5.106  0.2714  1.7016 -1.3747
10734TIP3   OH253616   5.320   3.340   3.598  0.2643  0.0100 -0.0590
10734TIP3    H153617   5.387   3.285   3.638  0.9923  0.7967 -0.1754
10734TIP3    H253618   5.246   3.280   3.583  1.4263 -1.1960 -1.2151
10735TIP3   OH253619   6.701   1.880   2.703 -0.4118  0.2783  0.5059
10735TIP3    H153620   6.659   1.943   2.645 -0.5469 -1.1507 -1.0299
10735TIP3    H253621   6.678   1.795   2.666  3.1493 -0.6189 -0.0192
10736TIP3   OH253622   0.352   3.977  11.185  0.3904 -0.4347 -0.0143
10736TIP3    H153623   0.446   3.996  11.176  0.1880 -0.0708 -1.5260
10736TIP3    H253624   0.348   3.882  11.197  1.2195 -0.1111  4.7826
10737TIP3   OH253625   4.923   4.311  15.530  0.5118 -0.1672 -0.3541
10737TIP3    H153626   4.976   4.332  15.608 -1.2153 -1.7771  1.3759
10737TIP3    H253627   4.874   4.390  15.512 -0.1148 -0.1821  1.1321
10738TIP3   OH253628   3.874   4.428   1.764 -0.2243 -0.0317 -0.4822
10738TIP3    H153629   3.884   4.389   1.678 -0.6691 -0.3841 -0.3789
10738TIP3    H253630   3.781   4.451   1.770 -0.8454 -2.4918  0.9091
10739TIP3   OH253631   3.106   6.202  16.252  0.3632  0.0989  0.0244
10739TIP3    H153632   3.138   6.278  16.202  1.5031 -1.4740 -1.7539
10739TIP3    H253633   3.181   6.144  16.258 -1.0700 -1.9257 -0.7060
10740TIP3   OH253634   1.167   6.293   5.476 -0.0442 -0.6381 -0.2171
10740TIP3    H153635   1.082   6.328   5.504 -0.4151 -0.9211 -0.9761
10740TIP3    H253636   1.146   6.237   5.402  0.4466 -2.9048  1.2475
10741TIP3   OH253637   0.702   1.464   2.433  0.0083  0.2968  0.1314
10741TIP3    H153638   0.671   1.503   2.351  1.1674  1.2566  0.1231
10741TIP3    H253639   0.632   1.405   2.460 -0.1712 -0.4477 -1.8350
10742TIP3   OH253640   6.408   0.648  13.372  0.1147  0.1982  0.4183
10742TIP3    H153641   6.480   0.673  13.430  0.7083 -0.2753 -0.1052
10742TIP3    H253642   6.329   0.668  13.423  0.6167 -0.1025  1.3466
10743TIP3   OH253643   5.127   0.414   2.390 -0.1742  0.2591  0.3572
10743TIP3    H153644   5.167   0.418   2.303  0.4745  2.2516  0.6794
10743TIP3    H253645   5.073   0.493   2.395 -0.0283  0.2979  1.8122
10744TIP3   OH253646   5.949   3.350  16.184 -0.5937 -0.0291  0.1867
10744TIP3    H153647   5.967   3.276  16.125  0.5393  1.6904 -1.7447
10744TIP3    H253648   5.938   3.309  16.270  0.4456 -2.4052 -0.7122
10745TIP3   OH253649   4.623   4.373  15.295 -0.2780 -0.2096 -0.0905
10745TIP3    H153650   4.666   4.359  15.211 -0.0847  0.7732 -0.1605
10745TIP3    H253651   4.693   4.397  15.355 -0.6762  1.2162 -0.1638
10746TIP3   OH253652   0.625   2.939   5.630  0.2416 -0.2360 -0.7217
10746TIP3    H153653   0.674   2.878   5.685  0.4177  0.5020 -0.0417
10746TIP3    H253654   0.666   3.024   5.646  0.5999 -0.0768 -2.3615
10747TIP3   OH253655   4.626   3.564  11.144  0.2033 -0.6175  0.7706
10747TIP3    H153656   4.694   3.631  11.150 -1.5777  1.8873 -3.1172
10747TIP3    H253657   4.642   3.521  11.060 -2.9128  0.1073 -0.3226
10748TIP3   OH253658   5.687   0.511  11.749 -0.2226  0.4226 -0.1096
10748TIP3    H153659   5.684   0.607  11.754  0.6046  0.4591 -0.2545
10748TIP3    H253660   5.665   0.491  11.658 -2.1140  0.3746  0.3091
10749TIP3   OH253661   6.634   3.995   6.545 -0.2522  0.0728 -0.2319
10749TIP3    H153662   6.693   4.065   6.570  0.6665 -0.7704  0.0028
10749TIP3    H253663   6.650   3.983   6.451 -0.4202  0.1785 -0.2750
10750TIP3   OH253664   2.771   6.340   6.012  0.2265  0.1274  0.5891
10750TIP3    H153665   2.866   6.332   6.010  0.1192 -2.1741  1.4484
10750TIP3    H253666   2.751   6.381   6.096  0.4000 -1.4039  1.3984
10751TIP3   OH253667   3.050   2.691  14.016 -0.8067 -0.3174 -0.5780
10751TIP3    H153668   3.042   2.616  14.075 -0.4401  0.3767  0.3798
10751TIP3    H253669   3.018   2.765  14.067 -0.4154  0.3151 -1.2331
10752TIP3   OH253670   1.092   3.716  14.957 -0.1730 -0.1171 -0.4835
10752TIP3    H153671   1.021   3.665  14.996 -1.0051  0.3846 -1.3121
10752TIP3    H253672   1.059   3.742  14.872  0.3199  1.6165 -0.1828
10753TIP3   OH253673   6.607   5.286   5.093  0.0380  0.0856  0.0558
10753TIP3    H153674   6.565   5.315   5.174  1.8228 -2.7855  2.2081
10753TIP3    H253675   6.677   5.350   5.077  0.3195  0.1344  1.3966
10754TIP3   OH253676   3.249   2.606   4.271 -0.1991  0.0280 -0.1707
10754TIP3    H153677   3.313   2.570   4.333 -1.4197 -1.3544  0.3565
10754TIP3    H253678   3.274   2.569   4.187  0.1024  0.0595 -0.0987
10755TIP3   OH253679   4.949   1.569   5.457  0.5183 -0.0155  0.0397
10755TIP3    H153680   5.036   1.534   5.439 -1.0429 -2.6466 -3.8191
10755TIP3    H253681   4.897   1.493   5.482 -0.9124  1.3248  1.3202
10756TIP3   OH253682   6.184   5.475  17.004 -0.2769 -0.4166  0.8660
10756TIP3    H153683   6.131   5.397  17.022  0.1430 -0.2246  3.4316
10756TIP3    H253684   6.121   5.546  16.997 -0.6215 -0.8542 -0.8645
10757TIP3   OH253685   3.509   4.716   0.362 -0.0948  0.1110  0.0236
10757TIP3    H153686   3.588   4.671   0.330 -0.8833 -1.5125  0.2512
10757TIP3    H253687   3.436   4.666   0.325 -1.0221  0.9280  0.7031
10758TIP3   OH253688   3.848   5.625   4.286  0.1795 -0.5236 -0.3711
10758TIP3    H153689   3.929   5.632   4.236 -0.9276 -0.5091 -2.2529
10758TIP3    H253690   3.796   5.700   4.259 -1.4724 -1.8813 -1.2037
10759TIP3   OH253691   3.091   1.770  11.101 -0.3462 -0.0111  0.1671
10759TIP3    H153692   3.176   1.738  11.071  0.9025  3.1621 -0.1055
10759TIP3    H253693   3.027   1.729  11.042  1.1444 -1.1229 -0.7417
10760TIP3   OH253694   6.701   5.048  11.279  0.3043  0.7823 -0.1503
10760TIP3    H153695   6.634   4.979  11.279  0.8468  0.2347  1.1068
10760TIP3    H253696   6.671   5.110  11.346  1.1519  0.4307  0.5618
10761TIP3   OH253697   3.482   5.364   3.675  0.0122 -0.1878 -0.4495
10761TIP3    H153698   3.412   5.377   3.610  0.9026 -0.3813 -1.4740
10761TIP3    H253699   3.532   5.289   3.642  0.2386 -0.5480  0.6899
10762TIP3   OH253700   1.677   5.276  15.985  0.3345 -0.0088 -0.2380
10762TIP3    H153701   1.584   5.283  16.008  0.5521 -2.0564  1.7070
10762TIP3    H253702   1.681   5.203  15.923  0.6117  0.3297 -0.6207
10763TIP3   OH253703   0.877   2.096  11.486  0.1009 -0.1015  0.2239
10763TIP3    H153704   0.886   2.004  11.461  3.3129  0.8871 -3.1215
10763TIP3    H253705   0.966   2.123  11.511 -0.3439  2.5341 -0.7455
10764TIP3   OH253706   2.449   4.692   2.836  0.6314 -0.1347  0.3240
10764TIP3    H153707   2.481   4.782   2.849 -1.8931  1.1683 -1.5479
10764TIP3    H253708   2.406   4.671   2.919 -0.8766  1.4552  0.0272
10765TIP3   OH253709   2.466   5.636  15.685  0.0098  0.3774 -0.0777
10765TIP3    H153710   2.433   5.641  15.595  0.8096  1.4223 -0.3308
10765TIP3    H253711   2.524   5.712  15.694  0.2003  0.1062  1.2201
10766TIP3   OH253712   4.257   2.978   2.304 -0.0394  0.1498  0.5436
10766TIP3    H153713   4.163   2.990   2.317  0.2170  0.1147  2.8249
10766TIP3    H253714   4.276   3.025   2.223 -1.5324  2.7818  1.6013
10767TIP3   OH253715   5.287   5.889   5.040  0.1146  0.1324  0.1211
10767TIP3    H153716   5.221   5.877   5.108  1.4811 -0.0116  1.4709
10767TIP3    H253717   5.365   5.843   5.073  1.8047  2.6665 -0.0676
10768TIP3   OH253718   1.305   1.105   2.477  0.1082 -0.0605  0.1617
10768TIP3    H153719   1.250   1.116   2.554 -0.6874 -1.4639 -0.1559
10768TIP3    H253720   1.281   1.177   2.420 -1.0200 -0.3201  0.2725
10769TIP3   OH253721   0.550   2.022  13.513  0.4083  0.4705 -0.1794
10769TIP3    H153722   0.469   2.065  13.485  0.7077  1.4880  0.4650
10769TIP3    H253723   0.522   1.935  13.543 -0.0243 -0.3838 -2.8161
10770TIP3   OH253724   1.399   2.178  14.052 -0.7281  0.1976 -0.2405
10770TIP3    H153725   1.398   2.139  14.139  1.7864  0.6630  0.0676
10770TIP3    H253726   1.457   2.122  14.001  0.5175  1.7738 -0.6339
10771TIP3   OH253727   1.512   4.098  12.219  0.0319 -0.7651 -0.0578
10771TIP3    H153728   1.510   4.011  12.258  2.1687 -0.9641 -0.2526
10771TIP3    H253729   1.537   4.156  12.290 -0.3497 -0.4769 -0.1594
10772TIP3   OH253730   3.194   3.670  15.346  0.3325 -0.2481 -0.1898
10772TIP3    H153731   3.207   3.687  15.252  0.6871 -1.8997 -0.4671
10772TIP3    H253732   3.117   3.613  15.349 -0.5448  0.9256  0.6651
10773TIP3   OH253733   2.598   5.031   6.368 -0.8250 -0.3256 -0.6615
10773TIP3    H153734   2.612   4.975   6.444 -0.7788  2.3836  1.4607
10773TIP3    H253735   2.505   5.054   6.372 -0.6153  0.6043 -0.8259
10774TIP3   OH253736   1.214   5.116  16.403  0.0551  0.1449  0.0225
10774TIP3    H153737   1.229   5.138  16.311 -1.8492  2.8814  0.2362
10774TIP3    H253738   1.275   5.172  16.451 -0.7112  0.6192  0.4664
10775TIP3   OH253739   3.980   2.546   5.405  0.4510  0.4739 -0.8058
10775TIP3    H153740   4.051   2.526   5.466  1.2214  0.0010 -1.8231
10775TIP3    H253741   4.021   2.600   5.337 -0.7204  2.2377 -0.1811
10776TIP3   OH253742   5.951   3.032   1.950  0.0970  0.1446  0.5415
10776TIP3    H153743   5.906   3.033   1.866  1.2662 -0.9352 -0.1403
10776TIP3    H253744   6.016   2.962   1.941 -0.3509 -0.6302  2.6585
10777TIP3   OH253745   1.367   3.705  12.808 -0.0824 -0.1687  0.6913
10777TIP3    H153746   1.329   3.766  12.745  0.1858  0.0134  0.7038
10777TIP3    H253747   1.291   3.665  12.852 -0.2526  0.6797  1.1900
10778TIP3   OH253748   5.478   0.904   5.712  0.0324 -0.4345 -0.2039
10778TIP3    H153749   5.477   0.922   5.806  2.3835  0.0563 -0.2039
10778TIP3    H253750   5.504   0.987   5.672 -1.2743 -0.5473 -1.3406
10779TIP3   OH253751   2.571   5.961   6.413 -0.5085 -0.1677 -0.1990
10779TIP3    H153752   2.557   5.972   6.319 -0.4718  0.0607 -0.1784
10779TIP3    H253753   2.556   6.048   6.450  0.3439 -0.0638 -0.0950
10780TIP3   OH253754   5.276   5.105   5.844 -0.1098  0.3229  0.0264
10780TIP3    H153755   5.341   5.093   5.775  0.5827 -0.6558  0.8134
10780TIP3    H253756   5.317   5.068   5.922 -0.0191  3.2165  1.4923
10781TIP3   OH253757   5.571   5.717  13.991  0.4963  0.4054 -0.5487
10781TIP3    H153758   5.601   5.799  13.953 -0.1356  0.4229 -1.0246
10781TIP3    H253759   5.480   5.733  14.014  0.9411  0.4796  1.2556
10782TIP3   OH253760   4.719   4.987   2.021  0.1513  0.3302 -0.3552
10782TIP3    H153761   4.658   4.974   2.093 -1.2958  1.0885 -1.3955
10782TIP3    H253762   4.799   5.021   2.062 -1.1056  2.0874  0.7749
10783TIP3   OH253763   6.665   2.028  14.468 -0.2383  0.7037  0.1598
10783TIP3    H153764   6.687   2.019  14.376 -0.9393 -1.6015  0.1652
10783TIP3    H253765   6.585   2.081  14.469  0.2695  1.5009 -0.4572
10784TIP3   OH253766   4.097   5.340  14.300  0.4504 -0.2441  0.0613
10784TIP3    H153767   4.035   5.333  14.373 -0.0766 -0.5461 -0.4102
10784TIP3    H253768   4.153   5.414  14.324 -0.1704  0.1199  0.4361
10785TIP3   OH253769   5.011   1.842  15.982  0.8797 -0.3943 -0.4222
10785TIP3    H153770   5.031   1.793  15.902  1.5786 -0.4932 -0.1890
10785TIP3    H253771   4.977   1.776  16.043  0.7668 -0.3961 -0.4878
10786TIP3   OH253772   4.763   3.044   3.162 -0.0532  0.4026  0.1233
10786TIP3    H153773   4.781   3.046   3.068 -1.9535 -3.4680 -0.5069
10786TIP3    H253774   4.844   3.011   3.201 -0.3832 -1.4367 -0.6648
10787TIP3   OH253775   3.990   3.378   2.069  0.4496 -0.3317 -0.3330
10787TIP3    H153776   3.945   3.389   2.153  0.7374 -1.2458 -0.0502
10787TIP3    H253777   3.959   3.452   2.016 -1.4346 -0.9442 -0.1739
10788TIP3   OH253778   4.103   4.594  16.022 -0.2494  0.3678  0.0961
10788TIP3    H153779   4.063   4.530  16.080  4.0938 -1.4767  1.4833
10788TIP3    H253780   4.106   4.675  16.074  0.1456 -0.2005  0.9759
10789TIP3   OH253781   5.445   6.335   0.967  0.1457  0.3905 -0.1419
10789TIP3    H153782   5.501   6.311   1.041 -1.2521 -0.1379  0.7806
10789TIP3    H253783   5.416   6.424   0.987  0.4517  0.5716 -0.4957
10790TIP3   OH253784   4.865   4.531  14.040 -0.3299 -0.3142  0.4750
10790TIP3    H153785   4.941   4.563  13.992 -0.1669 -0.5377  0.5801
10790TIP3    H253786   4.791   4.579  14.003 -0.1796 -0.3384  0.1385
10791TIP3   OH253787   1.398   0.198   2.037  0.0050 -0.1700  0.2948
10791TIP3    H153788   1.381   0.104   2.025  0.3118 -0.0342 -1.5996
10791TIP3    H253789   1.311   0.236   2.051 -0.1381 -0.7009  0.9118
10792TIP3   OH253790   6.331   2.554  14.621  0.0043  1.0778  0.1143
10792TIP3    H153791   6.391   2.546  14.695 -2.2298  0.1130  1.9520
10792TIP3    H253792   6.364   2.628  14.571  2.4810  0.8081  1.2017
10793TIP3   OH253793   3.482   6.140   1.688  0.8616 -0.0883  0.3532
10793TIP3    H153794   3.434   6.063   1.718 -1.0453  1.0537  0.3722
10793TIP3    H253795   3.522   6.176   1.768  1.9861 -1.1456  0.3057
10794TIP3   OH253796   1.525   5.706   2.862 -0.5514 -0.0030  0.2584
10794TIP3    H153797   1.525   5.795   2.826 -2.2365  0.8786  2.2644
10794TIP3    H253798   1.601   5.704   2.920 -0.6476  0.2078  0.3935
10795TIP3   OH253799   0.093   2.494   2.822  0.5100 -0.3208 -0.5076
10795TIP3    H153800   0.133   2.486   2.908 -0.2596  0.9355  0.0015
10795TIP3    H253801   0.015   2.548   2.837 -0.2061 -0.9464 -1.8150
10796TIP3   OH253802   6.135   6.110  16.735 -0.1760 -1.1761  0.0680
10796TIP3    H153803   6.077   6.098  16.811 -0.5787 -1.9926 -0.3635
10796TIP3    H253804   6.104   6.047  16.670  0.1114 -0.4273 -0.8186
10797TIP3   OH253805   2.871   3.974   3.153 -0.4705 -0.0050 -0.8953
10797TIP3    H153806   2.899   3.886   3.129  1.1410  0.3293 -0.3615
10797TIP3    H253807   2.879   4.025   3.071  0.2404  0.0142 -0.8220
10798TIP3   OH253808   6.539   5.421  12.014  0.2532  0.3611 -0.2412
10798TIP3    H153809   6.605   5.444  11.948 -1.2915  1.8464 -1.3698
10798TIP3    H253810   6.492   5.503  12.030 -1.5824 -0.7156  0.1906
10799TIP3   OH253811   2.162   2.712  14.219 -0.2343 -0.1229  0.1313
10799TIP3    H153812   2.155   2.675  14.307 -0.5684  1.4676  0.8135
10799TIP3    H253813   2.237   2.771  14.224  1.8608 -2.4035 -1.6236
10800TIP3   OH253814   3.375   2.878   5.653 -0.1468 -0.3033 -0.2810
10800TIP3    H153815   3.342   2.790   5.634  0.0637 -0.0736 -1.9196
10800TIP3    H253816   3.297   2.929   5.676 -0.5471 -0.4692 -1.2333
10801TIP3   OH253817   0.794   2.687   0.899  0.0607 -0.3803 -0.1159
10801TIP3    H153818   0.741   2.765   0.912  1.2892  0.6527 -1.0780
10801TIP3    H253819   0.879   2.720   0.868  0.5990 -2.0913 -0.5749
10802TIP3   OH253820   2.660   0.587   3.202 -0.1812 -0.1604  0.3562
10802TIP3    H153821   2.655   0.549   3.114 -0.6041 -1.7067  1.0140
10802TIP3    H253822   2.633   0.678   3.190  1.0462  0.0478 -1.3183
10803TIP3   OH253823   6.521   5.996   3.949 -0.0466  0.1434 -0.2217
10803TIP3    H153824   6.432   5.977   3.921  0.0829 -0.9407  0.0627
10803TIP3    H253825   6.539   5.933   4.019  1.0322  0.1596 -0.4628
10804TIP3   OH253826   3.154   1.137  15.650  0.2824 -0.0663  0.1019
10804TIP3    H153827   3.219   1.072  15.678  0.5279  0.7033  1.4275
10804TIP3    H253828   3.189   1.172  15.569  0.8060 -0.6719  0.0540
10805TIP3   OH253829   6.769   1.108   2.676  0.3116  0.1600  0.5770
10805TIP3    H153830   6.746   1.100   2.583 -0.8563 -0.0903  0.8716
10805TIP3    H253831   6.699   1.160   2.713  0.3022 -0.4870  1.4978
10806TIP3   OH253832   1.713   5.815   5.855  0.3432 -0.6428 -0.4309
10806TIP3    H153833   1.696   5.826   5.949  1.1445  0.1515 -0.3688
10806TIP3    H253834   1.642   5.864   5.813 -0.2435 -1.3217 -0.2594
10807TIP3   OH253835   3.818   6.561   4.628 -0.3331  0.0297 -0.1543
10807TIP3    H153836   3.893   6.575   4.685 -1.5552 -1.7109  2.0564
10807TIP3    H253837   3.746   6.608   4.670 -0.7776  0.6511 -1.5584
10808TIP3   OH253838   4.974   3.003   6.376 -0.4218  0.0008  0.0341
10808TIP3    H153839   4.889   3.035   6.346 -1.4607 -3.0745 -0.6245
10808TIP3    H253840   5.034   3.024   6.304 -1.4923 -1.2247 -1.2933
10809TIP3   OH253841   4.830   5.647   2.174  0.2083  0.3366 -0.0035
10809TIP3    H153842   4.837   5.738   2.201  0.8879  0.3085 -0.0731
10809TIP3    H253843   4.788   5.651   2.088  0.9050  0.6453 -0.3393
10810TIP3   OH253844   1.974   0.784  13.620  0.3549 -0.0680 -0.1572
10810TIP3    H153845   1.952   0.857  13.678 -0.2574  0.5601 -1.1444
10810TIP3    H253846   1.896   0.774  13.565 -0.1085 -2.3234  0.7913
10811TIP3   OH253847   5.285   3.819  15.606  0.7448 -0.1262  0.5106
10811TIP3    H153848   5.357   3.759  15.585  0.7905  0.3289 -0.6991
10811TIP3    H253849   5.215   3.762  15.639  1.1815 -0.7218  0.4121
10812TIP3   OH253850   1.272   4.484  14.938 -0.9464 -1.0083 -0.5841
10812TIP3    H153851   1.247   4.442  14.856 -2.1563 -1.1805 -0.1527
10812TIP3    H253852   1.274   4.577  14.918 -0.6402 -1.0945 -0.9589
10813TIP3   OH253853   0.129   0.532  16.043 -0.0061 -0.1622  0.0150
10813TIP3    H153854   0.219   0.508  16.020  0.6266  0.8109  1.3495
10813TIP3    H253855   0.096   0.577  15.965  0.9111  0.0938 -0.2424
10814TIP3   OH253856   6.579   4.056  16.280 -0.6721  0.1588 -0.1221
10814TIP3    H153857   6.596   4.141  16.321  0.0305  0.5608 -1.1775
10814TIP3    H253858   6.642   4.052  16.208 -1.4765 -0.7616 -0.7972
10815TIP3   OH253859   5.016   0.135  16.888  0.2189  0.3969 -0.8533
10815TIP3    H153860   5.086   0.106  16.830  0.3185  0.3901 -0.7285
10815TIP3    H253861   4.970   0.203  16.838  0.2590  0.3404 -0.9674
10816TIP3   OH253862   4.730   1.831   3.179  0.0547 -0.6329  0.1446
10816TIP3    H153863   4.713   1.841   3.273  1.4776 -1.0196  0.4693
10816TIP3    H253864   4.665   1.767   3.150 -2.0086  1.2461  0.3057
10817TIP3   OH253865   4.181   6.013  14.447 -0.0503  0.6328  0.5033
10817TIP3    H153866   4.250   5.950  14.469 -0.6369  0.0408  0.6777
10817TIP3    H253867   4.211   6.095  14.485 -0.2436 -0.0008  2.1328
10818TIP3   OH253868   5.178   6.177   1.056 -0.2617 -0.6456  0.2197
10818TIP3    H153869   5.190   6.198   1.149 -0.4203 -2.0156  0.5664
10818TIP3    H253870   5.249   6.224   1.012 -0.1654 -0.0001  1.0319
10819TIP3   OH253871   5.348   3.634  11.730 -0.4988 -0.3949  0.3776
10819TIP3    H153872   5.305   3.685  11.799  0.9533 -0.3709  1.3088
10819TIP3    H253873   5.335   3.543  11.756 -1.7850 -0.4776 -0.4796
10820TIP3   OH253874   6.770   0.468  13.853 -0.2056  0.4169  0.5004
10820TIP3    H153875   6.784   0.455  13.760  0.3438 -1.1491  0.7633
10820TIP3    H253876   6.857   0.488  13.888 -0.4597  1.3024  0.6370
10821TIP3   OH253877   3.504   4.148   5.124 -0.0778 -0.1969  0.1907
10821TIP3    H153878   3.463   4.132   5.039  0.6125  1.7362 -0.5555
10821TIP3    H253879   3.439   4.198   5.173 -0.1908 -0.6917  0.5569
10822TIP3   OH253880   5.661   4.030  11.785 -0.0421  0.0692  0.7888
10822TIP3    H153881   5.663   4.032  11.689  3.1041 -0.2867  0.7386
10822TIP3    H253882   5.622   4.114  11.810 -0.4113  0.4077 -0.8109
10823TIP3   OH253883   3.280   6.716  16.964 -0.0915 -0.2375 -0.0606
10823TIP3    H153884   3.253   6.760  17.045 -0.4252  1.2396 -0.9352
10823TIP3    H253885   3.253   6.775  16.895  0.5131 -1.3088 -1.2531
10824TIP3   OH253886   5.687   4.718   1.445 -0.1665 -0.4527 -0.9384
10824TIP3    H153887   5.596   4.715   1.415 -1.2059  2.0495  1.5378
10824TIP3    H253888   5.721   4.800   1.410 -0.0214  0.3071  0.8518
10825TIP3   OH253889   1.188   1.518   0.146 -0.2288  0.6033  0.1651
10825TIP3    H153890   1.255   1.576   0.111  1.3963 -1.6366 -0.6363
10825TIP3    H253891   1.149   1.477   0.069 -0.2657 -0.5051  0.7574
10826TIP3   OH253892   0.908   3.931  15.270  0.5583  0.0566 -0.1614
10826TIP3    H153893   0.822   3.968  15.249  1.1671  0.7406 -1.5431
10826TIP3    H253894   0.931   3.972  15.354 -0.0635  0.5681 -0.2287
10827TIP3   OH253895   3.175   1.862   0.221  0.2954 -0.1573  0.1789
10827TIP3    H153896   3.220   1.806   0.158  1.1902  2.0250 -1.2340
10827TIP3    H253897   3.088   1.876   0.184  0.0794 -0.5592  0.5212
10828TIP3   OH253898   3.084   1.698   6.443 -0.2189 -0.8282 -0.4918
10828TIP3    H153899   3.092   1.793   6.433  1.4954 -0.7420  1.1330
10828TIP3    H253900   3.168   1.663   6.413  0.2417 -1.5372  1.4642
10829TIP3   OH253901   4.189   2.039   3.667  0.1889 -0.5897 -0.2300
10829TIP3    H153902   4.218   1.993   3.746 -1.8437  0.2930  1.1226
10829TIP3    H253903   4.159   1.969   3.609 -3.0942 -1.1589  1.8823
10830TIP3   OH253904   6.473   1.709  15.477  0.0356 -0.2715 -0.0238
10830TIP3    H153905   6.550   1.652  15.475 -0.6732 -1.2350 -0.4931
10830TIP3    H253906   6.476   1.756  15.395 -0.5461 -1.2412 -0.6200
10831TIP3   OH253907   3.896   2.258  15.129 -0.0237  0.1804  0.4932
10831TIP3    H153908   3.808   2.249  15.166 -0.5776  0.1494 -0.7554
10831TIP3    H253909   3.924   2.168  15.112 -0.3057  0.2407 -0.3217
10832TIP3   OH253910   5.901   4.562   0.489  0.0695 -0.4998  0.3006
10832TIP3    H153911   5.990   4.575   0.521  0.1514 -2.4719  1.0495
10832TIP3    H253912   5.904   4.479   0.441 -1.0478  0.1791 -1.0431
10833TIP3   OH253913   0.130   2.571   4.102 -0.3252 -0.6265  0.3053
10833TIP3    H153914   0.145   2.485   4.140 -0.1871 -1.0163 -0.6197
10833TIP3    H253915   0.036   2.586   4.114 -0.3178 -0.8248  0.6256
10834TIP3   OH253916   6.065   1.778   5.127 -0.5809  0.1370  0.1814
10834TIP3    H153917   6.052   1.704   5.067 -0.9975 -0.6745  1.2482
10834TIP3    H253918   6.047   1.743   5.214  1.2296  0.9767  0.9486
10835TIP3   OH253919   3.027   3.966  14.877 -0.1336 -0.1415 -0.1832
10835TIP3    H153920   3.084   4.021  14.823  0.5068 -2.6484 -2.2654
10835TIP3    H253921   3.086   3.905  14.920 -0.8910  0.2186  1.4620
10836TIP3   OH253922   3.620   3.483  15.715  0.0133  0.2144 -0.3379
10836TIP3    H153923   3.628   3.575  15.739 -1.6126  0.4303 -0.5299
10836TIP3    H253924   3.534   3.476  15.673  1.8174 -0.4984 -4.4215
10837TIP3   OH253925   5.144   6.370   1.948  0.2384  0.0164  0.0899
10837TIP3    H153926   5.191   6.296   1.910  1.7370  0.5424  0.8557
10837TIP3    H253927   5.197   6.397   2.022 -0.8217  1.2197  0.4496
10838TIP3   OH253928   3.070   2.038  11.129 -0.2194  0.1013  0.0781
10838TIP3    H153929   3.082   1.945  11.108  0.6195  0.0039  0.9437
10838TIP3    H253930   3.133   2.056  11.199  0.3076  1.5668 -0.7230
10839TIP3   OH253931   3.879   2.168  16.920 -0.4521  0.5061  0.0615
10839TIP3    H153932   3.787   2.146  16.935 -0.2992  0.4164  0.9495
10839TIP3    H253933   3.902   2.228  16.991  0.1408  0.6425 -0.2333
10840TIP3   OH253934   4.733   6.011  14.999 -0.1174  1.0101  0.4664
10840TIP3    H153935   4.645   6.009  15.038 -0.3405  0.4188 -0.0345
10840TIP3    H253936   4.783   5.949  15.052 -0.0815  1.1352  0.5787
10841TIP3   OH253937   1.883   2.448  12.677  0.0889 -0.1041 -0.4798
10841TIP3    H153938   1.893   2.353  12.688  0.7930  0.1387  1.2666
10841TIP3    H253939   1.792   2.459  12.648  0.1766 -1.3307 -1.3094
10842TIP3   OH253940   2.459   2.149  16.341 -0.0426 -0.0439  0.2168
10842TIP3    H153941   2.485   2.142  16.249 -0.5990 -1.5134  0.1501
10842TIP3    H253942   2.537   2.181  16.386  0.6567 -0.6216 -0.5671
10843TIP3   OH253943   6.466   2.409  11.611  0.1999 -0.9352 -0.0172
10843TIP3    H153944   6.430   2.496  11.591  4.4377  1.2363  0.6626
10843TIP3    H253945   6.453   2.359  11.531  0.4485  1.4539 -1.6736
10844TIP3   OH253946   5.102   4.040  14.322 -0.1214 -0.1362  0.3098
10844TIP3    H153947   5.113   3.947  14.302  1.9401 -0.3645  2.1023
10844TIP3    H253948   5.159   4.055  14.397  0.7622  2.9036 -0.8236
10845TIP3   OH253949   4.236   3.228  11.720 -0.3242 -0.5880  0.1175
10845TIP3    H153950   4.293   3.304  11.716  0.1043 -0.8451  0.9438
10845TIP3    H253951   4.167   3.253  11.781  0.4683 -1.2514  1.3363
10846TIP3   OH253952   6.108   1.149  16.537  0.1423  0.1584 -0.1623
10846TIP3    H153953   6.097   1.055  16.556  0.4740 -0.0078 -0.7686
10846TIP3    H253954   6.027   1.189  16.567 -0.3955 -0.4575 -0.7606
10847TIP3   OH253955   6.079   3.429  13.218 -0.2545  0.3286 -0.4441
10847TIP3    H153956   6.064   3.508  13.166 -0.3615  0.0973 -0.7684
10847TIP3    H253957   6.172   3.433  13.240 -0.3845  0.8403  0.0395
10848TIP3   OH253958   3.161   3.665  16.368 -0.6409 -0.4951 -0.7478
10848TIP3    H153959   3.190   3.753  16.391  1.9047 -2.0442  3.0557
10848TIP3    H253960   3.066   3.672  16.361 -0.5966  2.3737  0.2489
10849TIP3   OH253961   6.389   5.048  12.812 -0.1650  0.1173  0.0173
10849TIP3    H153962   6.436   5.080  12.735 -0.1935 -1.6917 -0.7863
10849TIP3    H253963   6.325   4.986  12.778 -0.5812 -0.2810  1.4500
10850TIP3   OH253964   4.454   4.529  11.000 -0.4275  0.1360 -0.5447
10850TIP3    H153965   4.481   4.573  11.081 -0.7980  0.7904 -0.7648
10850TIP3    H253966   4.497   4.444  11.003  0.0649  0.3995  0.0419
10851TIP3   OH253967   6.138   1.085   0.731 -0.2875  0.2090 -0.2159
10851TIP3    H153968   6.057   1.035   0.742 -0.1979  0.3991  1.6367
10851TIP3    H253969   6.183   1.041   0.659 -0.6794 -1.7559  0.6749
10852TIP3   OH253970   0.159   3.311  16.901 -0.1441  0.5198 -0.5142
10852TIP3    H153971   0.070   3.285  16.877  0.6405 -2.3307 -0.6866
10852TIP3    H253972   0.185   3.248  16.969  1.1158  2.4605  0.9084
10853TIP3   OH253973   2.471   3.159  13.728  0.3591  0.8789 -0.7655
10853TIP3    H153974   2.567   3.149  13.733  0.2012 -1.8286 -1.4946
10853TIP3    H253975   2.437   3.074  13.756 -1.7513  0.9878 -2.7422
10854TIP3   OH253976   4.001   4.161   1.638  0.1411 -0.5720 -0.6728
10854TIP3    H153977   3.935   4.142   1.571 -1.0259  0.5927  0.1065
10854TIP3    H253978   4.033   4.075   1.666  0.0191 -1.1057 -2.0869
10855TIP3   OH253979   1.475   2.912  12.687 -0.0824 -0.0821 -0.2143
10855TIP3    H153980   1.540   2.869  12.743 -0.2695 -0.4147 -0.2448
10855TIP3    H253981   1.391   2.883  12.723 -0.2139  0.3598 -0.1630
10856TIP3   OH253982   3.760   0.251  15.659 -0.2027  0.5589 -0.1995
10856TIP3    H153983   3.834   0.236  15.718 -0.2402 -0.2502 -0.3471
10856TIP3    H253984   3.720   0.332  15.691  0.0851  0.4086  0.5652
10857TIP3   OH253985   0.292   0.859   1.187 -0.0210  0.0628 -0.0899
10857TIP3    H153986   0.332   0.941   1.215  0.7173 -0.0386 -0.8276
10857TIP3    H253987   0.342   0.791   1.232  1.6837 -0.1470 -2.1377
10858TIP3   OH253988   6.394   0.017  11.105  0.2466 -0.3416 -0.0113
10858TIP3    H153989   6.488   0.023  11.119  0.3075  1.1003 -0.7892
10858TIP3    H253990   6.383   0.035  11.012 -0.6127 -3.1704 -0.5398
10859TIP3   OH253991   0.395   1.340  14.125  0.1982 -0.2222 -0.1595
10859TIP3    H153992   0.392   1.331  14.221 -3.0044  0.6808 -0.0613
10859TIP3    H253993   0.354   1.260  14.092  1.4766 -0.6287 -0.8611
10860TIP3   OH253994   2.813   6.196  14.885  0.0325 -0.4366  0.0951
10860TIP3    H153995   2.893   6.181  14.935 -0.4868 -1.1690  0.7263
10860TIP3    H253996   2.743   6.201  14.951 -0.6259 -1.1669 -0.5209
10861TIP3   OH253997   5.167   0.325   4.721  0.1255  0.1316 -0.0846
10861TIP3    H153998   5.248   0.319   4.670  0.4447 -0.3602  0.4625
10861TIP3    H253999   5.106   0.265   4.677  0.9361 -1.6111  1.0546
10862TIP3   OH254000   6.683   2.914   3.183 -0.0916 -0.5944 -0.3079
10862TIP3    H154001   6.757   2.943   3.237 -0.0164 -1.0619 -0.1556
10862TIP3    H254002   6.605   2.943   3.230 -0.0229 -0.9132  0.0023
10863TIP3   OH254003   1.767   5.929  13.076  0.2401 -0.1484 -0.7183
10863TIP3    H154004   1.781   5.847  13.124  1.9592  1.1829  1.2074
10863TIP3    H254005   1.733   5.990  13.142  2.2484  1.6251 -1.2042
10864TIP3   OH254006   4.396   4.595  16.495 -0.0788 -0.4533  0.5812
10864TIP3    H154007   4.423   4.665  16.435  0.2775 -1.0777  0.0078
10864TIP3    H254008   4.320   4.631  16.541 -0.1757  0.1408 -0.0302
10865TIP3   OH254009   2.602   5.240   6.182  0.3260 -0.5990 -0.0266
10865TIP3    H154010   2.540   5.287   6.238  1.2179  0.9294 -0.2750
10865TIP3    H254011   2.620   5.159   6.230  0.3262  0.2262  1.4368
10866TIP3   OH254012   4.511   3.638   4.780  0.2281  0.2639  0.7963
10866TIP3    H154013   4.570   3.712   4.765  0.2120  0.0074 -0.7033
10866TIP3    H254014   4.424   3.677   4.783  0.0577  0.2173 -1.4956
10867TIP3   OH254015   4.648   3.148   2.286 -0.1065 -0.2485 -0.3454
10867TIP3    H154016   4.707   3.155   2.211 -1.2294 -0.6693 -1.3028
10867TIP3    H254017   4.667   3.063   2.325 -0.3247 -0.5468 -0.8783
10868TIP3   OH254018   3.102   5.043  16.682  0.2200  1.5127  0.8823
10868TIP3    H154019   3.144   5.115  16.635 -0.0324  1.5891  0.7719
10868TIP3    H254020   3.103   4.970  16.621 -0.5345  1.7481  0.5754
10869TIP3   OH254021   3.892   3.698  13.781  0.1996  0.1273  0.4783
10869TIP3    H154022   3.906   3.609  13.812 -0.9521 -0.3019 -0.1711
10869TIP3    H254023   3.852   3.743  13.856  0.5563  0.0356  0.7272
10870TIP3   OH254024   0.763   1.813   2.068 -0.0090  0.0202  0.4395
10870TIP3    H154025   0.834   1.873   2.091  1.1007 -1.2334  0.4084
10870TIP3    H254026   0.687   1.869   2.058  0.8535  1.3469  1.0115
10871TIP3   OH254027   6.093   1.528  15.022 -0.0306  0.0319 -0.1936
10871TIP3    H154028   6.033   1.502  14.952  0.7323 -0.5080 -0.6550
10871TIP3    H254029   6.180   1.508  14.989  0.3568 -0.0970  0.8534
10872TIP3   OH254030   0.108   6.538   6.270  1.1050  0.5496  0.5180
10872TIP3    H154031   0.161   6.593   6.212  1.9417 -0.3358  0.4223
10872TIP3    H254032   0.067   6.600   6.331  0.4969  1.4672 -0.7607
10873TIP3   OH254033   4.547   2.065   4.702 -0.4433 -0.3454  0.2127
10873TIP3    H154034   4.634   2.024   4.702 -0.2756 -0.0069 -0.1193
10873TIP3    H254035   4.558   2.143   4.756  0.3439  1.4393 -2.3255
10874TIP3   OH254036   5.671   5.298   3.385  0.3648 -0.3640  0.0015
10874TIP3    H154037   5.585   5.333   3.360 -0.3155 -1.1538  1.1652
10874TIP3    H254038   5.694   5.238   3.314 -0.4623 -0.8103  0.0973
10875TIP3   OH254039   1.592   5.319   2.331  0.1983  0.3921 -0.2287
10875TIP3    H154040   1.585   5.404   2.287  0.7200  1.3070  1.3296
10875TIP3    H254041   1.511   5.312   2.382  0.2302  0.0473 -0.2255
10876TIP3   OH254042   0.762   4.080  12.858  0.6833  0.1344 -0.0527
10876TIP3    H154043   0.695   4.135  12.817  0.8701 -0.1689 -0.7808
10876TIP3    H254044   0.762   4.107  12.950  0.4008  0.9747 -0.2890
10877TIP3   OH254045   4.071   2.914  15.645 -0.1235 -0.1360 -0.1859
10877TIP3    H154046   3.993   2.968  15.657  0.3877  0.8419 -1.0731
10877TIP3    H254047   4.098   2.930  15.554  1.3868 -0.0311  0.2470
10878TIP3   OH254048   0.854   0.884   1.988  0.1294  0.7615  0.0052
10878TIP3    H154049   0.767   0.867   1.952  1.0197 -0.2585 -1.7948
10878TIP3    H254050   0.863   0.979   1.984 -0.6435  0.8262 -0.4568
10879TIP3   OH254051   5.538   4.637   6.105 -0.3973 -0.1767  0.1121
10879TIP3    H154052   5.549   4.542   6.110 -2.4238 -0.4803 -0.3702
10879TIP3    H254053   5.449   4.653   6.138  0.4944  1.7525  1.8213
10880TIP3   OH254054   6.032   5.749   3.220 -0.2126 -0.8341  0.3135
10880TIP3    H154055   5.957   5.753   3.279  0.4536  1.1050  1.1032
10880TIP3    H254056   6.063   5.839   3.214  1.6321 -1.4742 -0.5489
10881TIP3   OH254057   2.730   0.958  15.589  0.4236 -0.2680 -0.0167
10881TIP3    H154058   2.644   0.977  15.626  0.4079  0.6774 -0.4925
10881TIP3    H254059   2.793   0.992  15.653  0.4013  0.9169 -0.5890
10882TIP3   OH254060   5.091   3.062  16.760  0.5481 -0.7978  0.1411
10882TIP3    H154061   5.046   3.117  16.825  0.1298 -0.5881 -0.3164
10882TIP3    H254062   5.048   2.977  16.767  0.8895 -0.9398  0.5355
10883TIP3   OH254063   3.489   1.889   6.472  0.1399  0.3339  0.3717
10883TIP3    H154064   3.414   1.908   6.530 -2.1290  0.2858 -2.3347
10883TIP3    H254065   3.469   1.802   6.437  2.2597 -0.2981  0.6417
10884TIP3   OH254066   2.987   2.755   0.969 -0.2250 -0.0958 -0.0885
10884TIP3    H154067   3.051   2.794   1.029  1.0238 -1.0987 -0.7226
10884TIP3    H254068   3.039   2.720   0.898 -1.6174  0.2907 -1.3569
10885TIP3   OH254069   5.562   1.223   4.065 -0.1958  0.3556 -0.1036
10885TIP3    H154070   5.601   1.298   4.021  2.0060 -1.0535 -0.7526
10885TIP3    H254071   5.577   1.239   4.158  2.8766 -0.4752 -0.3422
10886TIP3   OH254072   4.511   3.744   0.689  0.1630 -0.1883  0.0738
10886TIP3    H154073   4.452   3.675   0.659  1.4272 -0.5384 -1.7615
10886TIP3    H254074   4.565   3.702   0.756  0.3253 -0.7182 -0.3892
10887TIP3   OH254075   2.391   1.168   6.044 -0.1670 -0.6138  0.1519
10887TIP3    H154076   2.379   1.075   6.062  1.7289 -0.8476  0.4146
10887TIP3    H254077   2.401   1.208   6.130  0.9832 -0.4936 -0.0210
10888TIP3   OH254078   2.240   6.450   5.476  0.0175 -0.3647 -0.1739
10888TIP3    H154079   2.217   6.357   5.476  2.2506 -0.9894  1.1424
10888TIP3    H254080   2.304   6.458   5.547  1.2408  1.8229 -1.4407
10889TIP3   OH254081   5.157   2.955  15.405  0.1137 -0.0498  0.8855
10889TIP3    H154082   5.178   3.027  15.345 -0.1136 -0.3505  0.4355
10889TIP3    H254083   5.229   2.954  15.467  1.1090 -0.6408 -0.2351
10890TIP3   OH254084   5.809   4.790  15.190 -0.2074 -0.2351  0.1255
10890TIP3    H154085   5.757   4.864  15.221 -1.4173 -0.3654 -1.4259
10890TIP3    H254086   5.761   4.713  15.222 -0.9618 -0.3541 -1.2029
10891TIP3   OH254087   4.817   2.902   1.934  0.0961 -0.0453  0.4832
10891TIP3    H154088   4.739   2.872   1.981 -1.3723 -0.9877 -2.2964
10891TIP3    H254089   4.783   2.950   1.859  2.2883  1.3544  0.2980
10892TIP3   OH254090   3.878   6.632   2.364  0.3256 -0.3987  0.4838
10892TIP3    H154091   3.938   6.648   2.437 -0.7798  1.8158  1.0163
10892TIP3    H254092   3.912   6.685   2.292 -1.2816  1.4773  1.0190
10893TIP3   OH254093   1.089   5.387  15.522  0.0468 -0.1845  0.0044
10893TIP3    H154094   1.127   5.352  15.602 -0.4297 -1.4767 -0.3062
10893TIP3    H254095   1.051   5.471  15.547 -0.0846 -0.5673  1.1289
10894TIP3   OH254096   5.772   5.932   3.855 -0.0470  0.0595 -0.4892
10894TIP3    H154097   5.727   5.904   3.775 -0.5404  0.4713 -0.3572
10894TIP3    H254098   5.756   5.862   3.918  0.8456 -0.5562 -0.9227
10895TIP3   OH254099   4.875   3.439  17.005 -0.5242  0.0089 -0.7844
10895TIP3    H154100   4.907   3.357  16.968  0.9382  0.2085 -0.0459
10895TIP3    H254101   4.950   3.499  16.997 -1.1425  0.8833 -0.1285
10896TIP3   OH254102   6.273   4.082  16.638  0.0345 -0.3405 -0.5394
10896TIP3    H154103   6.367   4.065  16.628  0.3599  0.5659  0.6722
10896TIP3    H254104   6.241   4.009  16.692  0.9091  1.2997  2.4670
10897TIP3   OH254105   5.328   4.810  17.212  0.0802  0.0314  0.1413
10897TIP3    H154106   5.404   4.776  17.165  0.1298  0.5731 -0.1815
10897TIP3    H254107   5.365   4.846  17.293  0.5358  2.4328 -1.0491
10898TIP3   OH254108   2.726   5.621   5.286 -0.1787  0.1292  0.0952
10898TIP3    H154109   2.778   5.551   5.327 -0.7942 -0.3160  0.1262
10898TIP3    H254110   2.783   5.655   5.216 -0.7943 -2.1266 -1.6144
10899TIP3   OH254111   1.210   2.923  15.183  0.1263 -0.0427  0.1556
10899TIP3    H154112   1.194   3.018  15.188 -3.8443 -0.5619  0.5644
10899TIP3    H254113   1.191   2.891  15.270 -1.9717 -1.5212 -0.7701
10900TIP3   OH254114   6.558   5.370   1.794 -0.3583  0.2263  0.5187
10900TIP3    H154115   6.584   5.340   1.881 -1.7401  1.0200  1.2436
10900TIP3    H254116   6.481   5.425   1.810  0.5124  2.0032 -0.9985
10901TIP3   OH254117   3.684   6.089   2.908  0.2488 -0.2678 -0.1715
10901TIP3    H154118   3.755   6.028   2.927  0.4866  0.1771  0.3957
10901TIP3    H254119   3.727   6.163   2.864 -0.3092 -1.3537 -2.7284
10902TIP3   OH254120   5.017   2.614   0.754 -0.1992  0.6229 -0.6149
10902TIP3    H154121   4.969   2.651   0.679 -2.8485 -0.0320  0.6293
10902TIP3    H254122   4.952   2.561   0.800  2.3677 -2.2774 -0.0168
10903TIP3   OH254123   1.373   4.518   3.656 -0.5158  0.4064  0.2311
10903TIP3    H154124   1.450   4.463   3.672  0.0647  0.8869 -0.7803
10903TIP3    H254125   1.372   4.580   3.729  0.2521  0.5966  0.0885
10904TIP3   OH254126   0.826   6.485  11.026 -0.0677 -0.5812  0.7057
10904TIP3    H154127   0.851   6.421  11.094 -1.1239  0.1258  1.7869
10904TIP3    H254128   0.855   6.569  11.061  0.3682 -0.3262 -0.2412
10905TIP3   OH254129   5.467   5.454   3.298  0.3409  0.4607  0.4248
10905TIP3    H154130   5.462   5.487   3.208  1.4343  0.8598  0.4932
10905TIP3    H254131   5.407   5.511   3.347  0.8824  1.2394  0.2165
10906TIP3   OH254132   3.928   2.800   3.642 -0.2169  0.1883  0.5799
10906TIP3    H154133   3.866   2.867   3.614  1.5438  2.1028  1.0034
10906TIP3    H254134   3.916   2.793   3.736  0.4885  0.9094  0.7351
10907TIP3   OH254135   4.829   2.897  11.887  0.3883  0.0090  0.4813
10907TIP3    H154136   4.823   2.834  11.959  1.3887 -1.0933 -0.3630
10907TIP3    H254137   4.743   2.895  11.846 -0.3986  1.0915  1.9526
10908TIP3   OH254138   6.240   5.152   4.111  0.0147  0.0014 -0.1202
10908TIP3    H154139   6.306   5.143   4.180 -0.3116  0.3524  0.2424
10908TIP3    H254140   6.191   5.070   4.114  2.0116 -1.3740 -2.0910
10909TIP3   OH254141   5.767   0.115  12.303  0.3206  0.1080  0.5609
10909TIP3    H154142   5.845   0.111  12.247  0.5705 -0.5662  0.9437
10909TIP3    H254143   5.781   0.192  12.358  1.2180 -0.5769  1.3275
10910TIP3   OH254144   5.843   3.999   2.269  0.1679 -0.6311  0.3675
10910TIP3    H154145   5.801   4.026   2.187  1.0379 -1.1673 -0.2805
10910TIP3    H254146   5.937   4.010   2.252  0.6386 -4.0342 -0.0167
10911TIP3   OH254147   6.366   1.383  16.299 -0.3138 -0.0850 -0.9624
10911TIP3    H154148   6.451   1.401  16.338  0.0215 -1.5064 -1.0012
10911TIP3    H254149   6.366   1.289  16.283 -2.1035 -0.2137 -0.4371
10912TIP3   OH254150   5.731   6.139  16.912  0.0789  0.0300 -0.7290
10912TIP3    H154151   5.671   6.179  16.849 -2.6432 -2.2166  0.2307
10912TIP3    H254152   5.675   6.094  16.974  2.6464  1.2169  2.8158
10913TIP3   OH254153   6.607   5.113  14.792  0.0698 -0.0772 -0.0171
10913TIP3    H154154   6.686   5.059  14.804  0.6604  0.5066 -1.0955
10913TIP3    H254155   6.552   5.092  14.867  1.3914 -0.2590  0.9386
10914TIP3   OH254156   4.124   2.611  15.793 -0.0788 -0.4422 -0.7431
10914TIP3    H154157   4.080   2.628  15.710 -0.9422  1.5845  0.0657
10914TIP3    H254158   4.160   2.523  15.783  1.7540  0.5217 -4.0479
10915TIP3   OH254159   1.851   1.405   3.810  0.2629  0.7348  0.0825
10915TIP3    H154160   1.888   1.458   3.740  0.2200  0.1626 -0.3867
10915TIP3    H254161   1.779   1.458   3.845  0.7463  1.3319  0.1879
10916TIP3   OH254162   4.689   5.818  11.824 -0.2406 -0.1364 -0.6629
10916TIP3    H154163   4.610   5.863  11.795  1.5548  2.9458 -1.2048
10916TIP3    H254164   4.733   5.792  11.743  0.3358  0.1373 -0.4448
10917TIP3   OH254165   2.423   1.656   5.399 -0.3471  0.0767 -0.6218
10917TIP3    H154166   2.417   1.561   5.395 -0.1177  0.1088 -3.8350
10917TIP3    H254167   2.366   1.688   5.329 -1.5086  2.4256  1.2283
10918TIP3   OH254168   0.389   0.663   1.372 -0.3850 -0.3091  0.3803
10918TIP3    H154169   0.480   0.639   1.355 -1.1259 -2.1219 -1.3723
10918TIP3    H254170   0.390   0.695   1.463  2.1027  0.5077  0.1405
10919TIP3   OH254171   2.783   0.770  13.270  0.9758 -0.0443 -0.6046
10919TIP3    H154172   2.806   0.759  13.178 -0.0433 -0.5803 -0.8100
10919TIP3    H254173   2.689   0.789  13.270  0.5625 -1.7811  0.3973
10920TIP3   OH254174   0.801   2.942  12.986  0.4452  0.0761  0.2202
10920TIP3    H154175   0.859   2.880  12.942  0.0336 -0.4080  0.3578
10920TIP3    H254176   0.719   2.894  12.997  0.5231  0.2142  1.4585
10921TIP3   OH254177   4.762   1.919   2.120  0.6055 -0.0274 -0.0537
10921TIP3    H154178   4.705   1.941   2.193 -1.0122  0.1657 -1.3073
10921TIP3    H254179   4.779   2.003   2.077  1.8659 -0.0825  0.2846
10922TIP3   OH254180   3.192   4.967  15.420  0.0892  0.3315 -0.3103
10922TIP3    H154181   3.216   4.877  15.397  2.8767  0.9948 -0.3240
10922TIP3    H254182   3.206   4.971  15.515  1.2918  1.0731 -0.4992
10923TIP3   OH254183   6.316   3.317   4.019 -0.1387 -0.6546  0.0936
10923TIP3    H154184   6.265   3.351   4.093 -0.3729  0.5427 -0.5852
10923TIP3    H254185   6.252   3.269   3.966 -0.4252  0.2523 -0.3954
10924TIP3   OH254186   5.418   6.241   0.518 -0.3559 -0.3063 -0.3672
10924TIP3    H154187   5.472   6.235   0.439  0.4264  0.0504  0.1191
10924TIP3    H254188   5.446   6.165   0.570 -1.1934 -0.7966 -0.6213
10925TIP3   OH254189   5.981   1.806   3.936  0.4791  0.2388 -0.1259
10925TIP3    H154190   5.949   1.896   3.945 -1.0019 -0.1619 -0.9969
10925TIP3    H254191   5.974   1.788   3.842 -0.2302 -1.1072  0.1663
10926TIP3   OH254192   5.684   4.368  10.355 -0.4574  0.2601 -0.3746
10926TIP3    H154193   5.615   4.308  10.386  0.4100 -0.0688  1.0033
10926TIP3    H254194   5.639   4.451  10.343 -1.1064  0.0544  0.5219
10927TIP3   OH254195   0.630   3.419   2.208 -0.0722  0.1767 -0.0061
10927TIP3    H154196   0.617   3.505   2.246 -0.7054 -0.5779  1.5723
10927TIP3    H254197   0.567   3.363   2.253 -0.6708 -0.8524 -1.9855
10928TIP3   OH254198   3.590   4.954   2.615 -0.1371  0.2721 -0.2562
10928TIP3    H154199   3.639   4.938   2.534 -0.1336  0.3811 -0.2757
10928TIP3    H254200   3.498   4.951   2.588 -0.1370  0.2533 -0.2542
10929TIP3   OH254201   3.794   1.952   6.331 -0.0749 -0.1661  0.1121
10929TIP3    H154202   3.740   2.029   6.314 -1.2428 -0.8040  0.8065
10929TIP3    H254203   3.768   1.889   6.263 -1.3446 -1.0171  1.3368
10930TIP3   OH254204   2.243   2.212   3.808 -0.6124  0.2105  0.5020
10930TIP3    H154205   2.276   2.300   3.791 -2.2454  0.6864 -0.4660
10930TIP3    H254206   2.208   2.216   3.897  1.3248 -0.1584  1.3455
10931TIP3   OH254207   2.956   0.649  14.944 -0.4380  0.2949  0.6341
10931TIP3    H154208   2.930   0.739  14.963 -2.0130 -0.3406  1.7657
10931TIP3    H254209   3.050   0.646  14.962  0.2062  2.2668 -1.8210
10932TIP3   OH254210   1.324   4.020   0.946  0.1971  0.1646 -0.4570
10932TIP3    H154211   1.384   3.964   0.896 -0.5934  0.5074 -1.8470
10932TIP3    H254212   1.274   3.959   1.001  0.8262 -0.2578 -0.3397
10933TIP3   OH254213   5.988   6.298  11.870  0.2800  0.3279 -0.3835
10933TIP3    H154214   5.905   6.254  11.850  0.8787 -0.9553 -0.1674
10933TIP3    H254215   6.033   6.303  11.786  0.6863 -0.5402 -0.2356
10934TIP3   OH254216   6.758   1.694  15.202  0.3109 -0.1682 -0.3132
10934TIP3    H154217   6.760   1.636  15.278 -1.0302  1.9039  1.4214
10934TIP3    H254218   6.676   1.743  15.211  1.8408  2.7723 -1.0401
10935TIP3   OH254219   2.539   5.419  14.617 -0.2539  0.1287  0.1973
10935TIP3    H154220   2.626   5.437  14.654  0.6754  0.9684 -2.2311
10935TIP3    H254221   2.499   5.506  14.609 -1.1061 -0.2032  0.7188
10936TIP3   OH254222   3.460   0.764  15.370 -0.3442  0.1282 -0.6664
10936TIP3    H154223   3.469   0.730  15.281 -1.9278 -0.3822 -0.6669
10936TIP3    H254224   3.398   0.705  15.412 -0.4526  0.9957  0.4466
10937TIP3   OH254225   3.907   0.194  11.416 -0.2925 -0.2020  0.4077
10937TIP3    H154226   3.822   0.198  11.460 -0.8837  1.4697 -0.7806
10937TIP3    H254227   3.897   0.125  11.351 -2.0819  2.2611 -2.1686
10938TIP3   OH254228   0.193   5.144  11.332 -0.2224  0.0969  0.1450
10938TIP3    H154229   0.242   5.139  11.250  0.5850 -0.1659  0.6247
10938TIP3    H254230   0.106   5.109  11.311 -0.0225  0.0290 -0.5901
10939TIP3   OH254231   0.538   5.354  15.242 -1.1179 -0.1701 -0.1459
10939TIP3    H154232   0.524   5.403  15.323 -2.7771 -0.9605  0.1046
10939TIP3    H254233   0.574   5.417  15.180 -0.3876  0.5909  1.0302
10940TIP3   OH254234   2.889   6.740  15.208 -0.1729  0.3379 -0.1277
10940TIP3    H154235   2.821   6.797  15.172 -1.4372 -1.3212 -0.4898
10940TIP3    H254236   2.868   6.734  15.301 -1.2343 -1.0013 -0.4088
10941TIP3   OH254237   0.175   6.261  14.209 -0.1213 -1.1398  0.0102
10941TIP3    H154238   0.126   6.338  14.178  0.0536 -1.8535 -2.1859
10941TIP3    H254239   0.111   6.213  14.262 -0.0273  0.8238  2.0699
10942TIP3   OH254240   3.717   1.854   5.068 -0.2993 -0.5807  0.1949
10942TIP3    H154241   3.712   1.937   5.117 -1.6145  0.7995 -2.0908
10942TIP3    H254242   3.804   1.856   5.027 -0.8082  0.3663 -0.9031
10943TIP3   OH254243   4.707   3.339  12.140  0.7081  0.0804 -0.7128
10943TIP3    H154244   4.698   3.352  12.235  0.2000 -0.2194 -0.7199
10943TIP3    H254245   4.692   3.426  12.103 -1.8257 -0.2852 -0.6938
10944TIP3   OH254246   2.631   6.324  12.182  0.2782  0.1743 -0.5411
10944TIP3    H154247   2.693   6.397  12.175  0.7949 -0.3586 -1.9669
10944TIP3    H254248   2.686   6.248  12.201 -0.4016  0.3253  2.4768
10945TIP3   OH254249   0.327   5.075  12.853 -0.2230  0.6541  0.4920
10945TIP3    H154250   0.303   4.983  12.863  0.9680  0.0875 -1.4135
10945TIP3    H254251   0.248   5.116  12.816 -0.5809  0.2898  0.8464
10946TIP3   OH254252   3.254   1.494   2.456  0.6119 -0.4319  0.3296
10946TIP3    H154253   3.188   1.485   2.388  0.7979 -1.6212  0.2867
10946TIP3    H254254   3.337   1.475   2.412  0.9375  0.6159  0.4771
10947TIP3   OH254255   0.664   3.462  13.914 -0.0633 -0.9997 -0.1972
10947TIP3    H154256   0.623   3.504  13.839  0.2105 -0.3618 -0.0008
10947TIP3    H254257   0.632   3.511  13.990  0.1367 -1.2480  0.0538
10948TIP3   OH254258   6.533   3.988  16.553  0.3598 -0.3911 -0.4367
10948TIP3    H154259   6.616   3.980  16.601  0.3709  0.8632 -0.2008
10948TIP3    H254260   6.556   4.034  16.473  0.2055 -1.8107 -1.3155
10949TIP3   OH254261   6.134   5.403  13.743 -0.3521 -0.2366  0.1994
10949TIP3    H154262   6.077   5.327  13.754 -1.1289  0.4791  1.2347
10949TIP3    H254263   6.198   5.375  13.677 -0.5594 -1.8231  0.6206
10950TIP3   OH254264   4.015   5.699  11.309 -0.0189  0.2137 -0.0917
10950TIP3    H154265   4.101   5.732  11.336 -0.4334  0.3910  1.0750
10950TIP3    H254266   4.028   5.604  11.301  0.5128  0.3422 -0.8395
10951TIP3   OH254267   0.271   4.853  14.806  0.1779 -0.2596  0.0424
10951TIP3    H154268   0.243   4.854  14.714  1.1978  0.6055 -0.2818
10951TIP3    H254269   0.217   4.919  14.848  2.6108  2.5675 -0.9167
10952TIP3   OH254270   5.239   6.113  14.748  0.0655  0.4529 -0.2067
10952TIP3    H154271   5.241   6.116  14.844  0.2494 -0.3288 -0.1830
10952TIP3    H254272   5.191   6.033  14.728  0.8791  0.0967 -0.7704
10953TIP3   OH254273   2.432   6.462   5.695  0.2962 -0.4529  0.4410
10953TIP3    H154274   2.468   6.375   5.716 -1.2412 -1.1032  0.4827
10953TIP3    H254275   2.510   6.518   5.687  1.2684 -1.5085  1.8168
10954TIP3   OH254276   5.177   5.556   4.368 -0.2945 -0.3476  0.8453
10954TIP3    H154277   5.119   5.497   4.319 -1.5370  1.7534 -0.3633
10954TIP3    H254278   5.188   5.632   4.311  2.7149 -0.0885  1.5696
10955TIP3   OH254279   6.202   0.095   5.296  0.1881 -0.5372  0.4511
10955TIP3    H154280   6.255   0.040   5.354  1.8574  1.7133  1.2153
10955TIP3    H254281   6.201   0.181   5.338 -1.2428  0.3839 -1.2949
10956TIP3   OH254282   3.513   5.253  15.178 -0.1595  0.2749  0.5303
10956TIP3    H154283   3.538   5.165  15.151 -1.3561 -0.3863  1.4668
10956TIP3    H254284   3.417   5.254  15.170 -0.2540  1.1159  1.5855
10957TIP3   OH254285   6.726   5.636   3.510 -0.7301  0.0738  0.2145
10957TIP3    H154286   6.720   5.547   3.544  0.4308  0.0594  0.4272
10957TIP3    H254287   6.766   5.625   3.423 -0.4492  0.3974  0.3022
10958TIP3   OH254288   2.889   4.982   5.533  0.1968 -0.1654  0.1004
10958TIP3    H154289   2.961   4.959   5.592 -1.4217 -0.2285  2.1729
10958TIP3    H254290   2.932   5.012   5.453  2.4942 -0.8309  1.0005
10959TIP3   OH254291   2.851   6.731   5.381  0.0149 -0.2602 -0.6194
10959TIP3    H154292   2.883   6.657   5.329 -0.0626 -0.2755 -0.6451
10959TIP3    H254293   2.868   6.705   5.472 -0.2280 -0.4108 -0.6174
10960TIP3   OH254294   0.109   5.163  16.967 -0.0601  0.0851 -0.8923
10960TIP3    H154295   0.040   5.108  16.931 -1.1215  0.4210  0.5662
10960TIP3    H254296   0.096   5.249  16.927 -0.0848 -0.0151 -1.0979
10961TIP3   OH254297   4.146   6.007   2.994  0.0147  0.3702 -0.2685
10961TIP3    H154298   4.104   6.012   3.080 -0.5186 -0.3680 -0.4780
10961TIP3    H254299   4.191   6.091   2.985  0.4605  0.2899  0.9165
10962TIP3   OH254300   0.311   0.125  13.735 -0.2222  0.1642  0.4447
10962TIP3    H154301   0.337   0.163  13.819  0.5151 -1.0727  0.8100
10962TIP3    H254302   0.273   0.040  13.758 -1.0035  0.2654 -0.4080
10963TIP3   OH254303   5.535   3.844   4.028  0.0922  0.0319  0.6757
10963TIP3    H154304   5.557   3.935   4.008  2.0932 -0.3658  0.8631
10963TIP3    H254305   5.513   3.845   4.121  1.1222  0.1864  0.9339
10964TIP3   OH254306   5.940   6.215  13.868 -0.7278 -0.0282  0.2015
10964TIP3    H154307   6.028   6.236  13.900 -1.4591  1.5534  1.3403
10964TIP3    H254308   5.949   6.130  13.826  1.0092 -0.6701  1.7340
10965TIP3   OH254309   3.552   1.154  11.755  0.1885 -0.4277  0.0534
10965TIP3    H154310   3.648   1.158  11.755  0.2499 -1.6395  0.7815
10965TIP3    H254311   3.531   1.066  11.785 -1.1670 -0.1178  0.0828
10966TIP3   OH254312   1.357   4.478  12.063 -0.6489  0.3953 -0.1524
10966TIP3    H154313   1.440   4.440  12.036  0.2589  2.2874 -0.1553
10966TIP3    H254314   1.343   4.552  12.004 -2.7075 -0.2847 -0.6103
10967TIP3   OH254315   6.645   0.185  12.011  0.0904  0.0618  0.3647
10967TIP3    H154316   6.588   0.243  11.961  1.2628  0.8837 -0.0552
10967TIP3    H254317   6.676   0.239  12.084  2.0424  0.3530 -0.6220
10968TIP3   OH254318   6.219   4.016  13.485  0.1840  0.3291 -0.3832
10968TIP3    H154319   6.180   4.077  13.424 -0.0050  0.8194  0.2153
10968TIP3    H254320   6.146   3.982  13.536  0.3297 -0.1240 -0.4693
10969TIP3   OH254321   2.393   0.985   0.873 -0.0466  0.3146 -0.2500
10969TIP3    H154322   2.470   0.933   0.851  0.2873 -1.0627  3.4677
10969TIP3    H254323   2.426   1.052   0.933 -1.3697  1.3982 -0.6748
10970TIP3   OH254324   2.129   6.380  16.989 -0.1740 -0.1847  0.4657
10970TIP3    H154325   2.050   6.354  17.036 -0.5017 -0.7224 -0.3666
10970TIP3    H254326   2.200   6.364  17.051 -0.6099 -0.6840  0.8456
10971TIP3   OH254327   4.382   5.298   1.442  0.6434  0.2266 -0.2186
10971TIP3    H154328   4.387   5.390   1.420  0.7780  0.9798  2.5182
10971TIP3    H254329   4.374   5.297   1.538  2.0848 -2.6448 -0.0257
10972TIP3   OH254330   6.143   4.440  14.415 -0.6340  0.1862 -0.4099
10972TIP3    H154331   6.099   4.520  14.444 -0.7331  0.3542 -1.0162
10972TIP3    H254332   6.084   4.403  14.349 -2.2227 -2.0991  2.0487
10973TIP3   OH254333   4.198   4.973   2.396  0.2243  0.2215 -0.0734
10973TIP3    H154334   4.197   4.979   2.491 -3.5543 -1.4916  0.1776
10973TIP3    H254335   4.262   4.904   2.377 -0.9741 -1.4012  1.4989
10974TIP3   OH254336   2.891   1.704  13.428 -0.3240  0.1496 -0.5870
10974TIP3    H154337   2.869   1.748  13.346  0.5215  0.1776 -0.8005
10974TIP3    H254338   2.851   1.618  13.421 -1.9117  0.8192 -0.2108
10975TIP3   OH254339   4.288   0.569   2.130  0.2470  0.1341 -0.1164
10975TIP3    H154340   4.213   0.575   2.071  1.5557 -1.7344 -2.1494
10975TIP3    H254341   4.302   0.475   2.142  1.8453  0.4435  0.7332
10976TIP3   OH254342   2.530   3.017   4.733  0.4550 -0.0660 -0.4580
10976TIP3    H154343   2.437   3.037   4.722  0.2342 -0.8030 -0.0096
10976TIP3    H254344   2.570   3.100   4.755  0.0815  0.4713 -1.7126
10977TIP3   OH254345   0.623   3.838  13.017  1.0608  0.1124  0.2864
10977TIP3    H154346   0.588   3.926  13.032  0.6468  0.0258 -0.1620
10977TIP3    H254347   0.704   3.836  13.069  1.4229  0.9803 -0.2079
10978TIP3   OH254348   4.962   1.892  13.495  0.4728  0.8324 -0.1951
10978TIP3    H154349   4.968   1.920  13.586  0.7673 -0.6519  0.2640
10978TIP3    H254350   5.052   1.900  13.461  0.6187  0.1668  0.0269
10979TIP3   OH254351   6.585   0.641  14.791  0.3099  0.4645 -0.0431
10979TIP3    H154352   6.564   0.549  14.807 -0.1280  0.4397 -0.7059
10979TIP3    H254353   6.563   0.685  14.873  0.3346  0.0081  0.2123
10980TIP3   OH254354   5.455   3.679  12.434 -0.2448  0.8505 -0.6529
10980TIP3    H154355   5.517   3.655  12.502 -2.8288  0.2825  1.6893
10980TIP3    H254356   5.474   3.771  12.415  0.5339  1.0367  0.8978
10981TIP3   OH254357   4.197   1.808  15.374 -0.4354 -0.1716 -0.4367
10981TIP3    H154358   4.278   1.857  15.392 -0.5914  1.4601 -3.5421
10981TIP3    H254359   4.212   1.770  15.288 -2.4561 -1.0446 -0.4340
10982TIP3   OH254360   5.092   5.177   1.757 -1.0132  0.1579  0.6935
10982TIP3    H154361   5.114   5.234   1.831 -1.3807  0.5416  0.5107
10982TIP3    H254362   4.997   5.185   1.748 -1.2425 -1.3348  1.3637
10983TIP3   OH254363   6.420   6.142   4.722  0.0829  0.3637  0.0616
10983TIP3    H154364   6.349   6.144   4.657 -0.8140 -0.3364  0.9977
10983TIP3    H254365   6.403   6.064   4.774  2.3742 -0.6273 -0.5767
10984TIP3   OH254366   3.382   1.122   4.843  0.7505 -0.3235 -0.5413
10984TIP3    H154367   3.465   1.115   4.796  1.1671  0.4961  0.0595
10984TIP3    H254368   3.403   1.169   4.924  0.2333 -2.4907  0.9410
10985TIP3   OH254369   0.162   0.934  11.230 -0.5097  0.1505 -0.0644
10985TIP3    H154370   0.204   0.857  11.268 -2.6460 -0.4757  1.2381
10985TIP3    H254371   0.081   0.944  11.281 -0.2107  3.3923 -0.0465
10986TIP3   OH254372   0.124   4.042   4.566  0.2794 -0.2221 -0.3758
10986TIP3    H154373   0.122   3.949   4.542  0.4190  0.0485 -1.5266
10986TIP3    H254374   0.102   4.088   4.485  0.5270  0.7634  0.0953
10987TIP3   OH254375   1.446   6.333   6.385 -0.3306  0.2723  0.6864
10987TIP3    H154376   1.486   6.272   6.322  0.8819  1.9070 -0.1919
10987TIP3    H254377   1.511   6.339   6.455 -1.1171 -0.5529  1.5175
10988TIP3   OH254378   0.997   3.149  11.633  0.1692 -0.0354  0.2072
10988TIP3    H154379   0.955   3.067  11.661  2.5048 -1.4624 -0.2124
10988TIP3    H254380   1.063   3.166  11.700 -1.9453  3.0425  1.7291
10989TIP3   OH254381   1.292   5.276  10.457 -0.0979 -0.0655 -0.1132
10989TIP3    H154382   1.207   5.255  10.417 -0.6151  0.7422  0.5319
10989TIP3    H254383   1.320   5.194  10.498 -0.1206 -0.5835 -1.0939
10990TIP3   OH254384   0.875   1.852   4.564  0.0901 -0.7503 -0.4330
10990TIP3    H154385   0.962   1.860   4.603 -0.1866 -1.6037  0.3934
10990TIP3    H254386   0.821   1.915   4.611  0.0987 -0.7133 -0.4722
10991TIP3   OH254387   5.690   4.881  12.623 -0.2439  0.0055 -0.4248
10991TIP3    H154388   5.713   4.851  12.535 -0.3431 -1.8815  0.1514
10991TIP3    H254389   5.598   4.856  12.634  0.0393 -0.6730  0.5629
10992TIP3   OH254390   1.345   1.397  17.141  0.6224 -0.2276  0.6087
10992TIP3    H154391   1.262   1.408  17.188 -0.2450 -2.2688 -0.3061
10992TIP3    H254392   1.322   1.416  17.050  0.9119 -1.6802  0.2120
10993TIP3   OH254393   1.384   0.723   5.324 -1.5753  0.0279  0.1638
10993TIP3    H154394   1.439   0.658   5.366  0.8076  2.1424  0.5630
10993TIP3    H254395   1.319   0.672   5.276  0.8240 -2.6782 -0.4981
10994TIP3   OH254396   3.512   3.888  14.367 -0.2788 -0.3038  0.2539
10994TIP3    H154397   3.427   3.853  14.395 -0.0736  0.1279  1.4812
10994TIP3    H254398   3.492   3.978  14.340 -0.4624 -0.6946 -0.9705
10995TIP3   OH254399   4.158   0.249   2.982  0.0433 -0.5538 -0.2339
10995TIP3    H154400   4.216   0.317   2.948 -1.6678  0.9640 -0.2902
10995TIP3    H254401   4.146   0.188   2.909  0.7178 -0.3106 -0.5527
10996TIP3   OH254402   3.262   2.779  16.126 -0.2290 -0.1607  0.5440
10996TIP3    H154403   3.169   2.784  16.106 -0.6770 -2.5397  1.6481
10996TIP3    H254404   3.278   2.686  16.143  2.1436  0.3117  1.3248
10997TIP3   OH254405   1.914   1.133  15.753  0.2647  0.1469  0.2919
10997TIP3    H154406   1.959   1.073  15.812  0.7096  0.9296  0.7565
10997TIP3    H254407   1.823   1.106  15.756  0.6662 -1.5107 -0.7124
10998TIP3   OH254408   0.539   4.154  15.472  0.1083 -0.1617 -0.1267
10998TIP3    H154409   0.481   4.084  15.441  0.4192 -0.6520  0.3798
10998TIP3    H254410   0.590   4.113  15.542  0.2735  0.5840  0.1957
10999TIP3   OH254411   1.827   5.200   0.907  0.0527 -0.1979  0.1813
10999TIP3    H154412   1.775   5.120   0.917 -0.5505  0.1776  0.0774
10999TIP3    H254413   1.774   5.256   0.850  0.0275  0.6714  1.0476
11000TIP3   OH254414   5.177   5.611  16.552  0.6288 -0.1401  0.8998
11000TIP3    H154415   5.264   5.649  16.539 -0.1490  1.0428 -1.3048
11000TIP3    H254416   5.175   5.537  16.491 -0.3774  0.7458 -0.1969
11001TIP3   OH254417   6.388   6.072   1.103 -0.2298  0.0942  0.1219
11001TIP3    H154418   6.473   6.053   1.144 -0.3309 -0.1398  0.2255
11001TIP3    H254419   6.346   5.986   1.095 -1.2339  0.4130  1.7386
11002TIP3   OH254420   2.333   1.947  17.159 -0.1378  0.3014  0.4610
11002TIP3    H154421   2.266   1.987  17.215  0.0011  1.8130 -0.3717
11002TIP3    H254422   2.388   1.896  17.218 -0.2390  1.5083  1.6501
11003TIP3   OH254423   5.086   6.066  11.025 -0.2048  0.1114  0.2817
11003TIP3    H154424   5.096   6.084  11.118 -1.9040  1.9403  0.1788
11003TIP3    H254425   5.138   6.133  10.981 -0.4616  0.0738 -0.0882
11004TIP3   OH254426   5.103   2.456  11.152 -0.0704  0.0513  0.2631
11004TIP3    H154427   5.143   2.370  11.136  1.4133  0.0008  3.5180
11004TIP3    H254428   5.009   2.442  11.143  0.1133 -2.0607  1.1983
11005TIP3   OH254429   4.382   3.554  10.980  0.0400 -0.0801 -0.1032
11005TIP3    H154430   4.458   3.575  11.035  0.0078  0.8982 -0.4081
11005TIP3    H254431   4.344   3.476  11.020  1.4493 -0.8544 -0.1931
11006TIP3   OH254432   3.486   3.259   4.995 -0.0378 -0.0604  0.2173
11006TIP3    H154433   3.398   3.228   5.016 -0.5760  1.6759  0.7209
11006TIP3    H254434   3.540   3.227   5.067 -0.3634 -0.6472  0.2099
11007TIP3   OH254435   2.940   5.018  15.331  0.2250 -0.1462 -0.1109
11007TIP3    H154436   3.030   5.004  15.358  0.1292 -2.2415 -0.6777
11007TIP3    H254437   2.887   4.981  15.402 -0.1547 -0.1048 -0.3652
11008TIP3   OH254438   1.402   2.312  13.650  0.2822  0.1956 -0.0570
11008TIP3    H154439   1.369   2.233  13.605 -0.4100  0.5231 -0.1436
11008TIP3    H254440   1.323   2.361  13.671  0.6554  0.4206  0.8417
11009TIP3   OH254441   1.680   0.252  10.996 -0.0970 -0.0343 -0.4308
11009TIP3    H154442   1.611   0.240  11.061  0.3677 -0.4025  0.0017
11009TIP3    H254443   1.673   0.345  10.972  1.3248  0.8030  2.0127
11010TIP3   OH254444   4.712   4.130  13.257 -0.3528  0.0415  0.0322
11010TIP3    H154445   4.744   4.041  13.263  0.2108  0.1854 -0.6964
11010TIP3    H254446   4.695   4.156  13.348 -0.2351 -0.6967  0.2679
11011TIP3   OH254447   6.702   6.155  14.317  0.2467 -0.0268 -0.5172
11011TIP3    H154448   6.653   6.229  14.353  1.8601 -0.2958  2.6474
11011TIP3    H254449   6.647   6.079  14.336  1.0225 -0.1512  1.5274
11012TIP3   OH254450   5.924   6.282  12.937  0.3839  0.3808 -0.4874
11012TIP3    H154451   5.912   6.201  12.985 -1.6759  0.2996 -1.0252
11012TIP3    H254452   5.887   6.350  12.993 -1.1732  0.4124 -1.4858
11013TIP3   OH254453   2.212   0.818   3.199 -0.3166 -0.1525 -0.9667
11013TIP3    H154454   2.148   0.882   3.231 -1.5038 -0.3328 -2.8667
11013TIP3    H254455   2.188   0.736   3.243  0.2502  0.3351  0.2946
11014TIP3   OH254456   0.716   5.651  13.478 -0.2500  0.0593 -0.3063
11014TIP3    H154457   0.746   5.628  13.566 -0.0117 -1.5154 -0.7634
11014TIP3    H254458   0.621   5.663  13.487 -0.2297 -0.1060  0.1620
11015TIP3   OH254459   3.631   4.129  11.478  0.1780 -0.6447  0.1911
11015TIP3    H154460   3.537   4.114  11.465  0.7173 -3.5238 -1.2990
11015TIP3    H254461   3.644   4.115  11.572 -0.6565 -2.0347  0.1279
11016TIP3   OH254462   0.257   3.779   1.900 -0.3349  0.2981 -0.0977
11016TIP3    H154463   0.322   3.828   1.848 -1.1841  1.5844 -0.0025
11016TIP3    H254464   0.300   3.766   1.985 -1.0619  3.4839  0.9069
11017TIP3   OH254465   1.058   6.161  13.791  0.5895 -0.9097 -0.3054
11017TIP3    H154466   1.153   6.173  13.780  0.5893 -0.3929  0.1961
11017TIP3    H254467   1.049   6.132  13.882 -0.0147  3.0600  1.0893
11018TIP3   OH254468   4.232   4.912  13.016  0.0902 -0.3940  0.8507
11018TIP3    H154469   4.247   4.973  13.088  1.0294  0.9243 -0.3756
11018TIP3    H254470   4.300   4.935  12.952 -0.6454 -1.5649 -0.4002
11019TIP3   OH254471   0.658   1.899  12.079  0.3138 -0.3840  0.2826
11019TIP3    H154472   0.738   1.950  12.066  0.5581  0.0013  2.7066
11019TIP3    H254473   0.663   1.829  12.015  2.0452  0.2796 -0.3599
11020TIP3   OH254474   1.749   2.278   3.288  0.0583  0.2300  0.1677
11020TIP3    H154475   1.778   2.314   3.372 -0.7288 -1.2133  1.0836
11020TIP3    H254476   1.679   2.217   3.310 -0.7746  0.4670 -1.6260
11021TIP3   OH254477   0.446   0.774  16.082 -0.1904  0.3299 -0.7982
11021TIP3    H154478   0.382   0.763  16.153 -0.0440 -2.1078 -0.9733
11021TIP3    H254479   0.400   0.748  16.003  0.8503 -1.0694 -0.9824
11022TIP3   OH254480   3.240   5.112   6.705  0.0361 -0.6911  0.2159
11022TIP3    H154481   3.216   5.164   6.781 -0.1040  0.3486 -0.5194
11022TIP3    H254482   3.193   5.029   6.716 -0.2416 -0.4200  1.0830
11023TIP3   OH254483   5.680   5.272  11.607  0.2448  0.3475 -0.0121
11023TIP3    H154484   5.630   5.192  11.625  2.1361 -0.5716  1.4334
11023TIP3    H254485   5.743   5.245  11.540  0.3085  0.8843 -0.1684
11024TIP3   OH254486   3.620   0.877  15.563 -0.3972 -0.2991 -0.0476
11024TIP3    H154487   3.609   0.967  15.531  1.7323 -0.7728 -2.4583
11024TIP3    H254488   3.577   0.823  15.497 -2.3196 -1.1048  1.7679
11025TIP3   OH254489   0.526   3.309   5.533  0.7062  0.2606  0.3993
11025TIP3    H154490   0.474   3.306   5.614 -0.5714 -1.0627 -0.4234
11025TIP3    H254491   0.519   3.399   5.503 -0.5415  0.2745  0.6931
11026TIP3   OH254492   4.358   6.380  17.040  0.1014  0.3123  0.5774
11026TIP3    H154493   4.334   6.300  17.087 -2.5496 -0.2325 -1.4466
11026TIP3    H254494   4.302   6.447  17.078 -0.6559  0.2761 -0.4309
11027TIP3   OH254495   0.331   2.222   2.880 -0.1557 -0.2948 -0.2863
11027TIP3    H154496   0.280   2.234   2.960  1.7159  1.3215  0.7546
11027TIP3    H254497   0.266   2.217   2.810 -1.8242  4.2992  0.6271
11028TIP3   OH254498   3.540   4.761   3.964 -0.4258 -0.1371  0.0492
11028TIP3    H154499   3.539   4.677   4.009  0.5093  0.3482  1.0287
11028TIP3    H254500   3.521   4.825   4.033 -0.2550  0.5162 -0.4977
11029TIP3   OH254501   6.527   2.931  13.536  0.1069 -0.6433  0.6087
11029TIP3    H154502   6.540   2.941  13.630  0.5934  1.8687  0.3496
11029TIP3    H254503   6.497   3.017  13.507 -1.9717 -1.9192 -1.2634
11030TIP3   OH254504   6.579   1.551  16.567 -0.6892 -0.2691 -0.0303
11030TIP3    H154505   6.610   1.461  16.560  1.6549  0.5082 -0.6933
11030TIP3    H254506   6.615   1.594  16.490 -0.7178  1.4975  0.8931
11031TIP3   OH254507   6.521   1.806  11.377 -0.1298  0.3457  0.2549
11031TIP3    H154508   6.572   1.836  11.302  0.3005  1.0240  0.8077
11031TIP3    H254509   6.430   1.812  11.348 -0.0428  1.8008  0.1798
11032TIP3   OH254510   4.965   1.223  10.725  0.5296 -0.8660  0.3167
11032TIP3    H154511   5.044   1.272  10.747 -0.0832  0.9950 -1.3709
11032TIP3    H254512   4.897   1.290  10.714 -1.4779 -2.4361  2.2175
11033TIP3   OH254513   1.654   4.745  10.479  0.0725  0.0068  0.7116
11033TIP3    H154514   1.576   4.689  10.482 -0.1484  0.3422  1.9233
11033TIP3    H254515   1.727   4.684  10.492  0.3543 -0.7682 -3.3249
11034TIP3   OH254516   4.420   4.813   0.211  0.0960 -0.0957  0.5076
11034TIP3    H154517   4.485   4.782   0.274  0.0722 -0.6354  0.2667
11034TIP3    H254518   4.459   4.798   0.126  0.1061  0.5924  0.3865
11035TIP3   OH254519   3.295   5.247  14.532 -0.9418 -0.0228  0.2943
11035TIP3    H154520   3.253   5.195  14.600 -0.0142  0.3459  1.1670
11035TIP3    H254521   3.223   5.274  14.474 -1.9820  0.9092  1.9418
11036TIP3   OH254522   6.675   2.390   5.039  0.8140 -0.0708  0.1297
11036TIP3    H154523   6.767   2.404   5.015  0.4976  0.6674 -0.7253
11036TIP3    H254524   6.627   2.457   4.990 -0.1175  0.0176  1.1144
11037TIP3   OH254525   5.624   1.418  10.907 -0.4994  0.4490  0.3617
11037TIP3    H154526   5.696   1.422  10.844 -0.7270 -0.1802  0.0433
11037TIP3    H254527   5.558   1.478  10.872 -1.0538 -0.6559 -0.5895
11038TIP3   OH254528   0.595   0.126  14.435 -0.1382 -0.4725 -0.3603
11038TIP3    H154529   0.671   0.128  14.492 -0.9796 -0.2275  0.7922
11038TIP3    H254530   0.597   0.211  14.390  0.3236 -0.5124 -0.4205
11039TIP3   OH254531   4.177   4.760   1.124  0.3499  0.1658  0.2587
11039TIP3    H154532   4.233   4.771   1.201  0.0952 -1.4365  0.7027
11039TIP3    H254533   4.104   4.707   1.155 -1.6715  2.4819 -0.2079
11040TIP3   OH254534   2.317   3.107  15.353  0.2708  0.2590 -0.4628
11040TIP3    H154535   2.386   3.096  15.287  1.7713  0.9508  0.9269
11040TIP3    H254536   2.283   3.195  15.336  0.3047  0.2422 -0.6282
11041TIP3   OH254537   6.408   3.406   1.057 -0.3608  0.1840  0.0066
11041TIP3    H154538   6.465   3.331   1.072  0.6163  0.9761  0.3504
11041TIP3    H254539   6.467   3.481   1.051 -1.0281  0.6281 -3.0876
11042TIP3   OH254540   4.513   5.075  15.819  0.6432  0.4992 -0.3217
11042TIP3    H154541   4.574   5.015  15.863 -0.2341  0.3298  0.6890
11042TIP3    H254542   4.503   5.039  15.731 -0.2298 -1.1284  0.4062
11043TIP3   OH254543   1.644   5.482   5.001 -0.0092 -0.0166  0.6344
11043TIP3    H154544   1.664   5.406   4.946  0.5247 -0.0017  0.8114
11043TIP3    H254545   1.641   5.556   4.939 -0.5860 -0.1836  0.4536
11044TIP3   OH254546   0.925   2.312   2.625 -0.3646  0.3456 -0.5926
11044TIP3    H154547   0.981   2.389   2.637  0.3223 -0.0474 -1.2417
11044TIP3    H254548   0.914   2.277   2.714  1.7453 -0.4863 -0.6024
11045TIP3   OH254549   3.908   0.076   3.630  0.2732 -0.0320  0.2550
11045TIP3    H154550   3.814   0.079   3.615  0.6575  0.8154 -2.5248
11045TIP3    H254551   3.934  -0.012   3.602  0.2785 -0.4120  1.4164
11046TIP3   OH254552   2.812   0.710   0.145  0.5329  0.7248  0.2244
11046TIP3    H154553   2.790   0.795   0.183 -0.5148  0.7880 -0.4817
11046TIP3    H254554   2.776   0.714   0.056  2.8543  0.5606 -0.7947
11047TIP3   OH254555   6.756   0.280  14.363  0.4164  0.1151 -0.0071
11047TIP3    H154556   6.689   0.348  14.367  1.9850  1.6666  1.6621
11047TIP3    H254557   6.714   0.202  14.400 -0.4878  1.0550  0.9992
11048TIP3   OH254558   6.150   4.011   4.308  0.1770 -0.0814  0.0980
11048TIP3    H154559   6.219   3.952   4.278  0.1016 -0.1223  0.0049
11048TIP3    H254560   6.172   4.096   4.270  1.5628  0.5213  2.0654
11049TIP3   OH254561   1.155   1.788   2.771 -0.3194 -0.2306  0.4737
11049TIP3    H154562   1.246   1.794   2.800 -0.1581  1.3212 -0.2451
11049TIP3    H254563   1.156   1.723   2.701 -0.1002 -1.4558  1.5656
11050TIP3   OH254564   4.201   2.792  11.051  0.1944 -0.1719  0.4992
11050TIP3    H154565   4.245   2.754  10.975 -4.0129 -1.3786 -1.6736
11050TIP3    H254566   4.202   2.721  11.117  2.0737  0.1536  0.8854
11051TIP3   OH254567   3.593   2.667  15.520 -0.4293 -0.3474  0.5073
11051TIP3    H154568   3.531   2.687  15.451 -1.0547 -3.4998 -0.0100
11051TIP3    H254569   3.542   2.620  15.586  0.7996 -0.2986  1.5394
11052TIP3   OH254570   2.899   3.231   4.298 -0.4145  0.4963  0.2522
11052TIP3    H154571   2.982   3.184   4.283 -0.4582  0.8024 -1.0637
11052TIP3    H254572   2.833   3.162   4.298 -0.0172 -0.0075  3.3199
11053TIP3   OH254573   1.952   4.424  15.561 -0.4540  0.1213  0.0284
11053TIP3    H154574   1.907   4.343  15.535 -2.8910  0.9760  1.2634
11053TIP3    H254575   1.894   4.463  15.626  1.2684  2.2699  0.3595
11054TIP3   OH254576   1.675   4.558  15.302 -0.2869  0.2059 -0.2065
11054TIP3    H154577   1.647   4.645  15.331 -0.6637  0.8824 -2.4125
11054TIP3    H254578   1.759   4.573  15.260  1.4775 -1.1473  2.5367
11055TIP3   OH254579   0.463   2.624  15.635  0.2339  0.2881 -0.2163
11055TIP3    H154580   0.522   2.677  15.689  0.0025  1.1827 -0.8129
11055TIP3    H254581   0.462   2.668  15.550 -0.0819 -0.6022 -0.6871
11056TIP3   OH254582   3.481   5.337   6.065 -0.1945  0.5014 -0.1022
11056TIP3    H154583   3.555   5.392   6.039 -0.9547  3.1478  2.7808
11056TIP3    H254584   3.407   5.374   6.016 -0.1614 -0.0843 -0.5977
11057TIP3   OH254585   4.338   3.999  15.492 -0.5355  0.3874 -0.4485
11057TIP3    H154586   4.303   3.936  15.429 -1.5604  0.1795  0.3054
11057TIP3    H254587   4.402   3.950  15.543  0.7817  0.7190 -1.7060
11058TIP3   OH254588   6.018   2.665  15.237  0.2075  0.0547 -0.1529
11058TIP3    H154589   6.035   2.616  15.157 -0.4908  0.5268 -0.5977
11058TIP3    H254590   5.924   2.680  15.238  0.2183  0.1567  0.7011
11059TIP3   OH254591   5.975   6.769   6.538  0.1043  0.2768  0.2753
11059TIP3    H154592   5.949   6.786   6.628  0.4463 -1.0549  0.6497
11059TIP3    H254593   6.057   6.720   6.545  0.6037  0.9141 -0.7845
11060TIP3   OH254594   0.093   3.694  15.610  0.3820 -0.5336  0.0475
11060TIP3    H154595   0.185   3.720  15.611  0.4041 -0.6056 -0.0130
11060TIP3    H254596   0.096   3.598  15.614  0.3502 -0.6123 -1.1574
11061TIP3   OH254597   5.171   0.477  15.692 -0.2315  0.2088 -0.4941
11061TIP3    H154598   5.131   0.477  15.605  0.3013 -1.9131 -0.7862
11061TIP3    H254599   5.180   0.569  15.714 -0.7517  0.7882 -2.5089
11062TIP3   OH254600   6.322   2.065   2.675 -0.3119 -0.2651 -0.0444
11062TIP3    H154601   6.261   2.139   2.672 -0.3796 -0.3475 -0.7143
11062TIP3    H254602   6.267   1.988   2.689 -0.2069 -0.1530  1.0609
11063TIP3   OH254603   3.237   2.511  13.626 -0.0249  0.2731  0.1837
11063TIP3    H154604   3.142   2.510  13.633 -0.0388  0.5366  0.0477
11063TIP3    H254605   3.255   2.566  13.550  0.2849  1.7607  1.2936
11064TIP3   OH254606   4.413   4.624   5.652  0.3940 -0.1281 -0.3298
11064TIP3    H154607   4.323   4.657   5.662  0.1073 -0.2449 -2.0925
11064TIP3    H254608   4.403   4.529   5.652  0.6217 -0.1510  0.2439
11065TIP3   OH254609   4.473   3.404   0.387  0.5147  0.3261 -0.0518
11065TIP3    H154610   4.527   3.459   0.330  1.3608  0.6188  0.9939
11065TIP3    H254611   4.420   3.466   0.436  1.0533  0.2023  0.7128
11066TIP3   OH254612   3.905   3.894   1.417 -1.0597  0.7888  0.1317
11066TIP3    H154613   3.959   3.842   1.357 -2.0708 -0.8090  0.5250
11066TIP3    H254614   3.944   3.880   1.503 -1.2967  0.7155  0.2291
11067TIP3   OH254615   6.452   1.092  14.689 -0.4252 -0.1128 -0.5455
11067TIP3    H154616   6.359   1.100  14.669 -0.8185  0.4288  1.3111
11067TIP3    H254617   6.467   1.152  14.763  0.8569 -1.9031  0.7532
11068TIP3   OH254618   2.134   6.461   2.350 -0.7765 -0.2773  0.7758
11068TIP3    H154619   2.086   6.380   2.365 -0.4471 -0.9981 -1.7546
11068TIP3    H254620   2.215   6.450   2.400 -0.8049 -1.4228  0.5920
11069TIP3   OH254621   3.808   2.103   1.634 -0.2086  0.0611 -0.0920
11069TIP3    H154622   3.730   2.053   1.657  0.0225 -0.1223  0.3274
11069TIP3    H254623   3.781   2.194   1.640 -0.5944 -0.0066 -0.7181
11070TIP3   OH254624   3.824   4.554   1.274 -0.1006  0.0300  0.4768
11070TIP3    H154625   3.801   4.628   1.330 -1.4595 -1.3079  1.7760
11070TIP3    H254626   3.755   4.551   1.208 -0.9802 -1.0086  1.4030
11071TIP3   OH254627   2.936   2.215   1.052  0.0880  0.5231 -0.2084
11071TIP3    H154628   2.966   2.219   0.961 -0.1356 -1.5334 -0.4117
11071TIP3    H254629   2.953   2.125   1.079  0.4900  1.1907  1.9310
11072TIP3   OH254630   1.759   0.085  13.513 -0.1409  0.1895 -0.3237
11072TIP3    H154631   1.812   0.143  13.567  0.4109  0.2271 -0.8998
11072TIP3    H254632   1.691   0.143  13.476  0.4321  0.4859 -0.9305
11073TIP3   OH254633   0.702   3.995   3.291  0.2061  0.0629  0.0253
11073TIP3    H154634   0.793   3.978   3.267  0.1649  0.9372 -0.8260
11073TIP3    H254635   0.705   4.069   3.351  0.1037 -0.4032  0.6152
11074TIP3   OH254636   5.967   2.366  16.408 -0.0380 -0.3894  0.0967
11074TIP3    H154637   5.967   2.445  16.462  0.6922  0.6436 -1.3446
11074TIP3    H254638   5.878   2.331  16.418 -0.0749  0.0243  1.5418
11075TIP3   OH254639   2.507   3.803  13.623 -0.0475  0.2781  0.4739
11075TIP3    H154640   2.436   3.865  13.632 -0.1252  0.3394 -0.4640
11075TIP3    H254641   2.493   3.762  13.537  1.0420  0.3047  0.2594
11076TIP3   OH254642   6.261   4.944   0.478  0.7858  0.1128  0.1567
11076TIP3    H154643   6.188   4.974   0.424 -0.2281 -1.9330  0.2700
11076TIP3    H254644   6.238   4.970   0.567  0.4599 -0.0550  0.1211
11077TIP3   OH254645   4.103   6.499   6.410 -0.0749 -0.0019 -0.0135
11077TIP3    H154646   4.169   6.545   6.461  0.9012  0.9273 -1.9954
11077TIP3    H254647   4.086   6.557   6.335 -1.7249 -1.1081 -0.5590
11078TIP3   OH254648   1.390   0.732   6.700  0.1741  0.1727  0.2438
11078TIP3    H154649   1.302   0.695   6.704  0.6621 -0.9671  3.5232
11078TIP3    H254650   1.379   0.825   6.720 -0.2643 -0.2037  1.9703
11079TIP3   OH254651   6.022   6.017  16.519 -0.2220 -0.3334 -0.0016
11079TIP3    H154652   5.952   5.972  16.471 -1.4837  1.0060  0.4954
11079TIP3    H254653   6.100   6.004  16.465 -0.9811 -1.3151 -0.9183
11080TIP3   OH254654   5.509   0.422   4.720 -0.3298 -0.1137  0.2016
11080TIP3    H154655   5.449   0.369   4.666  1.0109  0.0054 -1.4979
11080TIP3    H254656   5.477   0.512   4.709 -2.0403 -0.3689  2.3406
11081TIP3   OH254657   3.710   0.426  15.163 -0.5457 -0.0739 -0.3219
11081TIP3    H154658   3.703   0.464  15.251  0.2713 -0.1444 -0.2115
11081TIP3    H254659   3.701   0.332  15.178 -0.7034 -0.0633 -0.3514
11082TIP3   OH254660   4.584   1.196   5.581 -0.5084  0.5371 -0.5587
11082TIP3    H154661   4.539   1.144   5.648 -2.3120  0.8240 -1.4856
11082TIP3    H254662   4.514   1.223   5.521  0.5005  3.1729 -0.6718
11083TIP3   OH254663   2.662   2.850  14.235 -1.1095  0.3008 -0.2591
11083TIP3    H154664   2.636   2.908  14.307 -1.5145 -0.0262 -0.1415
11083TIP3    H254665   2.685   2.909  14.164 -1.7782  0.6050 -0.2281
11084TIP3   OH254666   4.011   3.747  10.566  0.0766 -0.3817  0.0876
11084TIP3    H154667   3.940   3.704  10.518 -1.1429 -0.7008  2.0435
11084TIP3    H254668   3.972   3.828  10.599  0.5240 -0.6657  1.3844
11085TIP3   OH254669   0.422   3.609  15.784  0.3473  0.2874  0.8733
11085TIP3    H154670   0.371   3.688  15.768 -0.5486 -0.0584  1.9167
11085TIP3    H254671   0.443   3.612  15.877 -0.3506 -1.0404  1.1082
11086TIP3   OH254672   4.453   4.027   0.964  0.8664 -0.0019  0.3625
11086TIP3    H154673   4.394   3.952   0.961 -0.1455  0.7831 -0.0429
11086TIP3    H254674   4.539   3.991   0.945  0.5046 -1.1564  0.8543
11087TIP3   OH254675   4.953   1.510   1.410 -0.1763  0.6951  0.3664
11087TIP3    H154676   4.941   1.587   1.354 -1.5922 -0.9947 -1.8538
11087TIP3    H254677   5.046   1.488   1.402  0.2326  2.0894  0.9884
11088TIP3   OH254678   1.316   4.223   5.502  0.4156  0.0727 -0.4591
11088TIP3    H154679   1.247   4.284   5.526  0.6932 -0.7377  2.8592
11088TIP3    H254680   1.393   4.252   5.552  0.4457 -3.0757  1.6288
11089TIP3   OH254681   6.227   6.032  12.735 -0.1043 -0.6949 -0.2685
11089TIP3    H154682   6.236   5.970  12.808 -0.2208 -1.0734 -0.5716
11089TIP3    H254683   6.207   6.116  12.776 -1.7256 -1.2143  0.0666
11090TIP3   OH254684   0.075   5.192   1.384  0.2398 -0.1410  0.1447
11090TIP3    H154685   0.025   5.251   1.441  0.0262 -1.5565  1.4663
11090TIP3    H254686   0.008   5.141   1.337  0.4353  0.1838 -0.5081
11091TIP3   OH254687   4.948   6.154   3.821  0.7676 -0.3371  0.2225
11091TIP3    H154688   5.026   6.200   3.790  0.9607 -0.0388  1.0958
11091TIP3    H254689   4.897   6.135   3.742  1.6132 -0.3358 -0.3334
11092TIP3   OH254690   6.289   0.445  16.014  0.1143 -0.1330 -0.0032
11092TIP3    H154691   6.283   0.372  15.952  0.7458 -0.9199  0.8243
11092TIP3    H254692   6.233   0.419  16.087  1.2582 -0.3622  0.8206
11093TIP3   OH254693   1.663   3.394   1.084 -0.0314 -0.0540  0.0597
11093TIP3    H154694   1.755   3.379   1.108 -0.6195 -1.8481  1.3486
11093TIP3    H254695   1.649   3.487   1.103  1.3166  0.0771  0.5331
11094TIP3   OH254696   4.012   1.010  11.746  0.7278 -0.0253 -0.4902
11094TIP3    H154697   4.007   0.921  11.782  0.5183  0.7095  1.4074
11094TIP3    H254698   4.009   0.997  11.651  1.3189 -2.0749 -0.2907
11095TIP3   OH254699   3.876   3.123  11.634 -0.2939  0.0232 -0.3935
11095TIP3    H154700   3.944   3.135  11.568 -1.1269  0.3020 -1.2247
11095TIP3    H254701   3.924   3.103  11.715  0.7128 -1.8378 -1.3798
11096TIP3   OH254702   2.383   3.804   3.092  0.3525  0.1661  0.4272
11096TIP3    H154703   2.341   3.794   3.178  0.0858 -0.2513  0.2489
11096TIP3    H254704   2.469   3.841   3.112  0.6883 -0.8577  0.9684
11097TIP3   OH254705   6.507   0.359   2.010 -0.4475  0.0651  0.0362
11097TIP3    H154706   6.415   0.371   2.033 -0.7160  0.5178 -1.2332
11097TIP3    H254707   6.550   0.344   2.094 -1.8396 -1.3084  0.5657
11098TIP3   OH254708   1.880   3.315   1.589 -0.0962 -0.4954  0.2436
11098TIP3    H154709   1.944   3.297   1.520 -0.3775 -1.2611  0.1822
11098TIP3    H254710   1.891   3.409   1.607  1.2467 -0.6811  0.4459
11099TIP3   OH254711   1.864   2.047   5.712 -0.2073  0.2923  0.4214
11099TIP3    H154712   1.844   1.984   5.781 -1.0756  0.5525  0.4213
11099TIP3    H254713   1.814   2.017   5.636  0.3858  0.2631  0.0313
11100TIP3   OH254714   6.614   2.948  13.810  0.0915 -0.3316  0.2393
11100TIP3    H154715   6.673   3.000  13.864 -1.0121  0.5545  0.6335
11100TIP3    H254716   6.553   2.909  13.872  0.4408 -1.4945 -0.1332
11101TIP3   OH254717   5.446   1.216  12.968  0.3390  0.1896  0.4415
11101TIP3    H154718   5.412   1.135  12.931  2.5596 -0.1060 -1.1189
11101TIP3    H254719   5.441   1.203  13.063  1.8444 -2.3542  0.2672
11102TIP3   OH254720   6.430   5.376  14.402  0.0866 -0.4482  0.2121
11102TIP3    H154721   6.371   5.444  14.433  2.1064  0.4998  2.3012
11102TIP3    H254722   6.487   5.420  14.339 -1.0975 -1.2607 -1.5007
11103TIP3   OH254723   6.539   0.700   1.712 -0.3673 -0.2227 -0.4631
11103TIP3    H154724   6.589   0.640   1.767 -1.2756 -1.7466 -1.2012
11103TIP3    H254725   6.561   0.674   1.622 -1.5648 -0.1605 -0.7994
11104TIP3   OH254726   2.369   5.017   3.457 -0.1407  0.1411 -0.4578
11104TIP3    H154727   2.386   4.986   3.368 -1.9603 -0.9707 -0.4518
11104TIP3    H254728   2.452   5.058   3.483  0.5777  0.1172 -2.4825
11105TIP3   OH254729   4.682   3.711   5.010 -0.1926 -0.0823  0.5049
11105TIP3    H154730   4.592   3.691   4.982 -0.0299 -0.6760  0.3971
11105TIP3    H254731   4.690   3.805   4.997  0.5336 -0.4986 -3.4765
11106TIP3   OH254732   0.988   1.076  14.565  0.0454  0.2929 -0.3603
11106TIP3    H154733   1.061   1.119  14.520  0.2220  0.1996 -0.1671
11106TIP3    H254734   0.972   1.130  14.642 -1.5959  1.5981 -1.5648
11107TIP3   OH254735   6.612   3.121   2.861 -0.7935 -0.1752  0.4728
11107TIP3    H154736   6.546   3.106   2.928  0.3818 -1.1849  1.4576
11107TIP3    H254737   6.609   3.215   2.844 -1.2589  0.0574  1.7790
11108TIP3   OH254738   2.304   4.087   2.716  0.0396 -0.5709 -0.2103
11108TIP3    H154739   2.284   4.087   2.810 -0.2583  1.4123 -0.2305
11108TIP3    H254740   2.316   4.179   2.694 -0.8385 -0.8994 -2.3189
11109TIP3   OH254741   5.978   4.361  14.876 -0.6474  0.4072 -0.1456
11109TIP3    H154742   6.066   4.354  14.841 -0.4038  0.4189  0.4557
11109TIP3    H254743   5.990   4.387  14.967 -1.2268 -0.7367  0.2809
11110TIP3   OH254744   3.852   4.504  16.936 -0.6601  0.4564  0.4051
11110TIP3    H154745   3.842   4.421  16.982 -0.5389  0.9226  1.2870
11110TIP3    H254746   3.848   4.570  17.005 -0.1762  1.1487 -0.2199
11111TIP3   OH254747   6.680   5.444  15.917 -0.0323  0.7228  0.8338
11111TIP3    H154748   6.698   5.536  15.899  0.1217  0.7661  1.2095
11111TIP3    H254749   6.765   5.407  15.939 -0.4052  1.0097  2.9824
11112TIP3   OH254750   0.085   2.083   1.562 -0.1238  0.1199  0.1077
11112TIP3    H154751   0.082   2.179   1.570 -1.0715  0.1042  0.0523
11112TIP3    H254752   0.006   2.061   1.512  0.3768 -0.6475 -0.3658
11113TIP3   OH254753   2.697   0.255  14.757  0.0028 -0.3342  0.4076
11113TIP3    H154754   2.696   0.160  14.772  3.0356 -0.5035  0.2749
11113TIP3    H254755   2.742   0.290  14.834  3.2705  0.3470 -1.6073
11114TIP3   OH254756   6.714   2.242  14.868  0.0912  0.4455  0.2877
11114TIP3    H154757   6.802   2.234  14.903  1.3649  1.1081 -2.4900
11114TIP3    H254758   6.717   2.195  14.785 -2.7065 -0.9637  0.8619
11115TIP3   OH254759   1.194   3.584  14.466  0.0784  0.1954  0.2021
11115TIP3    H154760   1.201   3.633  14.385  2.5518  0.3330  0.4284
11115TIP3    H254761   1.175   3.494  14.438  0.6984  0.2821 -0.5337
11116TIP3   OH254762   2.153   3.129   3.090  0.4894 -0.4320  0.1748
11116TIP3    H154763   2.118   3.202   3.040  0.4977  0.1380  0.9937
11116TIP3    H254764   2.160   3.058   3.026  1.9569  0.7124 -1.0094
11117TIP3   OH254765   3.322   6.426  14.940  0.6182  1.0643 -0.4521
11117TIP3    H154766   3.390   6.358  14.936 -0.9905 -0.6249 -0.2069
11117TIP3    H254767   3.301   6.445  14.849 -1.0139 -1.0221 -0.5852
11118TIP3   OH254768   5.249   4.031  12.698 -0.4756  0.4668 -0.2719
11118TIP3    H154769   5.323   3.980  12.665 -0.4225  0.3995 -0.0503
11118TIP3    H254770   5.192   3.967  12.740 -0.8396  0.4668 -0.7559
11119TIP3   OH254771   0.605   6.703  13.747 -0.0791 -0.2905 -0.8111
11119TIP3    H154772   0.690   6.690  13.706  0.4782 -0.6935  0.4261
11119TIP3    H254773   0.591   6.624  13.800  0.3076  1.1104  1.5508
11120TIP3   OH254774   1.916   6.121   0.769 -0.0158 -0.7104 -0.2152
11120TIP3    H154775   1.933   6.207   0.732 -0.9090 -0.7849 -0.8287
11120TIP3    H254776   1.967   6.061   0.714 -0.4707 -0.7062 -0.6480
11121TIP3   OH254777   0.946   3.827  13.949 -0.6846 -0.0799  0.3067
11121TIP3    H154778   0.957   3.902  14.008 -0.5582  1.5436 -1.6624
11121TIP3    H254779   0.883   3.858  13.884 -2.6433 -2.6322  0.8497
11122TIP3   OH254780   0.162   6.384   3.885  0.5800 -0.2208  0.4325
11122TIP3    H154781   0.206   6.307   3.849 -0.3806 -1.3272  1.5205
11122TIP3    H254782   0.149   6.362   3.978 -0.4413  0.9185  0.5760
11123TIP3   OH254783   4.714   0.045  13.381 -0.0190  0.1469 -0.3417
11123TIP3    H154784   4.625   0.065  13.412 -0.3765 -0.7743 -0.7530
11123TIP3    H254785   4.711   0.065  13.287 -0.2355 -1.2892 -0.6599
11124TIP3   OH254786   1.011   3.178   5.151 -0.4619  0.1816  0.2699
11124TIP3    H154787   0.935   3.140   5.107 -1.8228  0.5524  2.1788
11124TIP3    H254788   1.086   3.132   5.114 -1.8076 -2.2151  0.3619
11125TIP3   OH254789   1.610   2.026   4.903 -0.0421 -0.1371  0.0445
11125TIP3    H154790   1.650   2.106   4.870  2.2006 -0.1519  2.3958
11125TIP3    H254791   1.542   2.056   4.963 -0.3568 -0.0443 -0.3525
11126TIP3   OH254792   3.144   1.306  16.908  0.2039 -0.5391 -0.6242
11126TIP3    H154793   3.077   1.239  16.914 -0.3879  0.1454  0.6554
11126TIP3    H254794   3.112   1.367  16.841 -0.8417  0.1716  0.4775
11127TIP3   OH254795   2.078   1.495  13.037  0.7284  0.2127 -0.1091
11127TIP3    H154796   2.102   1.473  13.127  1.2669  0.3832 -0.2019
11127TIP3    H254797   2.161   1.492  12.989  0.4590  0.1909 -0.5845
11128TIP3   OH254798   1.447   6.510   2.091 -0.1533 -0.0083  0.5399
11128TIP3    H154799   1.409   6.425   2.072 -3.4124  1.1626  1.0401
11128TIP3    H254800   1.483   6.541   2.008 -2.3448 -0.3608 -0.5963
11129TIP3   OH254801   5.218   0.043  16.689  0.2670  0.1269  0.3169
11129TIP3    H154802   5.244  -0.049  16.689 -1.0112 -0.2432  0.3706
11129TIP3    H254803   5.186   0.058  16.600  1.6754  0.8870 -0.0896
11130TIP3   OH254804   3.663   1.602  16.069 -0.0701  0.0728  0.5242
11130TIP3    H154805   3.696   1.517  16.097 -1.7122 -0.9137 -0.3854
11130TIP3    H254806   3.607   1.582  15.993 -0.7546  1.9204  0.4985
11131TIP3   OH254807   3.689   2.712  12.394 -0.5998  0.1997 -0.0602
11131TIP3    H154808   3.595   2.697  12.405 -0.5515 -1.2816 -1.4201
11131TIP3    H254809   3.727   2.685  12.478 -1.2695 -0.3227  0.0856
11132TIP3   OH254810   0.875   2.636  16.577  0.4184 -0.0439 -0.1566
11132TIP3    H154811   0.842   2.550  16.603  1.0907 -0.6012 -1.0640
11132TIP3    H254812   0.798   2.684  16.546  0.5201 -2.0150 -4.2046
11133TIP3   OH254813   4.991   2.104   2.876 -0.6387  0.5211 -0.0209
11133TIP3    H154814   5.014   2.078   2.787  0.4166  0.8062  0.1531
11133TIP3    H254815   4.901   2.074   2.888 -1.3014  1.7356 -1.6739
11134TIP3   OH254816   5.355   2.958   3.784 -0.4454  0.0211 -0.3810
11134TIP3    H154817   5.421   2.995   3.725  0.9006 -0.4404  0.7910
11134TIP3    H254818   5.317   3.035   3.828  0.6390  0.1901  0.2888
11135TIP3   OH254819   6.657   5.321   2.885  0.4056 -0.3482 -0.1256
11135TIP3    H154820   6.738   5.347   2.842  2.5761 -1.6099  2.7793
11135TIP3    H254821   6.619   5.255   2.827  1.8128 -0.2022 -1.2727
11136TIP3   OH254822   2.291   3.971  12.591 -0.4259 -0.0217 -0.0502
11136TIP3    H154823   2.295   3.906  12.661 -5.0560 -0.5145  0.0651
11136TIP3    H254824   2.228   3.936  12.529  0.1894  2.4274 -2.2485
11137TIP3   OH254825   3.075   1.485  16.013  0.7294  0.4525  0.2223
11137TIP3    H154826   3.046   1.563  16.061 -1.2462 -0.8043  1.2164
11137TIP3    H254827   3.164   1.470  16.044  1.2320  2.3834 -0.1307
11138TIP3   OH254828   2.372   6.361   4.487 -0.3082 -0.0548  0.0503
11138TIP3    H154829   2.370   6.327   4.398  0.5848 -0.2292  0.0890
11138TIP3    H254830   2.307   6.432   4.488  0.9915  1.2025 -1.2485
11139TIP3   OH254831   4.840   0.539  13.659  0.0163  0.3575  0.1574
11139TIP3    H154832   4.920   0.493  13.633  0.0646  0.1270  0.6983
11139TIP3    H254833   4.819   0.596  13.584 -0.4198 -1.0251 -0.8104
11140TIP3   OH254834   1.315   1.328  12.502 -0.5118  0.3810  0.1927
11140TIP3    H154835   1.366   1.354  12.425 -1.2361  1.2083 -0.0269
11140TIP3    H254836   1.327   1.233  12.508  2.6767  0.7148  1.3262
11141TIP3   OH254837   1.318   3.427   2.959  0.6612 -0.3686 -0.1729
11141TIP3    H154838   1.262   3.369   2.907 -0.4098  0.2606  0.2401
11141TIP3    H254839   1.257   3.472   3.018  1.7035 -0.1962  0.8019
11142TIP3   OH254840   3.313   4.494   2.532  0.0972 -0.0311 -0.0047
11142TIP3    H154841   3.358   4.573   2.503  0.1420  0.3324  1.0298
11142TIP3    H254842   3.331   4.488   2.625  0.0692 -1.2550 -0.0579
11143TIP3   OH254843   1.918   4.362   3.640  0.0440 -0.1549 -0.6721
11143TIP3    H154844   1.865   4.288   3.610 -1.0403  1.2558 -2.5190
11143TIP3    H254845   1.854   4.427   3.668  1.0080 -0.4071  2.4188
11144TIP3   OH254846   1.373   3.641   4.117 -0.2229 -0.1529  0.7803
11144TIP3    H154847   1.335   3.624   4.203  0.2562  2.2660  1.5509
11144TIP3    H254848   1.300   3.627   4.056 -1.2468  0.4287  1.8187
11145TIP3   OH254849   1.693   0.392   1.680  0.2424 -0.7196 -0.0939
11145TIP3    H154850   1.761   0.331   1.707  1.8074  0.4265 -1.3031
11145TIP3    H254851   1.690   0.457   1.750  1.9558  0.4100 -1.0075
11146TIP3   OH254852   3.202   1.248  11.674 -0.4458  0.0798 -0.0142
11146TIP3    H154853   3.237   1.315  11.615 -0.0130  1.4115  1.6961
11146TIP3    H254854   3.107   1.257  11.667 -0.3963  0.3462 -0.3739
11147TIP3   OH254855   1.102   1.200   1.071  0.5156  0.4928 -0.4760
11147TIP3    H154856   1.185   1.240   1.098  0.8024 -0.1173 -0.4337
11147TIP3    H254857   1.128   1.126   1.015 -0.0044  0.3747 -0.5706
11148TIP3   OH254858   4.219   3.097   0.674  0.2112 -0.1127  0.4804
11148TIP3    H154859   4.239   3.003   0.676 -1.7473 -0.6040 -0.8732
11148TIP3    H254860   4.124   3.102   0.665  0.4219  1.9683 -1.4348
11149TIP3   OH254861   2.406   5.062  16.752  0.2954  0.3701  0.5188
11149TIP3    H154862   2.422   5.028  16.664  1.3616 -0.2420  0.9267
11149TIP3    H254863   2.491   5.096  16.780  0.2324 -0.3688  1.6904
11150TIP3   OH254864   5.393   1.327   2.317  0.1501  0.0335 -0.0843
11150TIP3    H154865   5.337   1.370   2.253 -1.5410  1.0123  1.9422
11150TIP3    H254866   5.405   1.238   2.282 -0.0108  0.7569 -2.1241
11151TIP3   OH254867   2.660   1.335   4.348 -0.4899 -0.0283  0.0896
11151TIP3    H154868   2.669   1.268   4.417  0.7104 -0.7322 -0.7230
11151TIP3    H254869   2.566   1.355   4.347 -0.8759 -1.6544  0.4106
11152TIP3   OH254870   2.089   2.439   2.642  0.1582  0.1524 -0.3564
11152TIP3    H154871   2.160   2.401   2.590  0.5756  0.5435 -0.0721
11152TIP3    H254872   2.015   2.379   2.628  1.0567 -1.3072  0.8064
11153TIP3   OH254873   2.354   4.009  10.726 -0.5707  0.0539  0.8724
11153TIP3    H154874   2.333   4.102  10.723 -0.5176  0.0664  0.8701
11153TIP3    H254875   2.415   3.996  10.653  0.1645  0.2114  1.4395
11154TIP3   OH254876   0.589   0.703   6.104 -0.2169 -0.1364 -0.3073
11154TIP3    H154877   0.515   0.697   6.164 -0.1542  0.8538 -0.1104
11154TIP3    H254878   0.560   0.765   6.037 -0.1211 -0.8963 -1.0630
11155TIP3   OH254879   5.682   5.468   1.521  0.0467 -0.0990 -0.4709
11155TIP3    H154880   5.630   5.388   1.529  0.2889 -0.2936 -0.8462
11155TIP3    H254881   5.617   5.538   1.514 -0.1677 -0.2409 -0.0020
11156TIP3   OH254882   5.144   3.768  11.931  0.3136 -0.4174 -0.1083
11156TIP3    H154883   5.076   3.834  11.936 -0.0300 -0.8445  1.3404
11156TIP3    H254884   5.101   3.687  11.957  2.0172 -0.1577  4.4536
11157TIP3   OH254885   0.662   0.211  13.449  0.0064 -0.0055 -0.4296
11157TIP3    H154886   0.723   0.283  13.468 -0.0110  0.1114 -0.8028
11157TIP3    H254887   0.717   0.140  13.416  0.1673 -0.5987  1.0515
11158TIP3   OH254888   0.519   2.935   2.850 -0.1550  0.5135 -0.5102
11158TIP3    H154889   0.588   2.986   2.892  0.0604 -0.5296  0.4620
11158TIP3    H254890   0.488   2.990   2.779  0.7439  1.5694 -0.1108
11159TIP3   OH254891   0.238   2.029   5.500  0.7866  0.9352  0.0402
11159TIP3    H154892   0.333   2.028   5.515  0.6803  0.9692  0.7471
11159TIP3    H254893   0.206   2.103   5.553  0.5291  1.8012 -1.2687
11160TIP3   OH254894   5.714   3.668   5.923 -0.0344 -0.4278  0.7644
11160TIP3    H154895   5.747   3.689   6.010  0.0024 -1.6278  1.0523
11160TIP3    H254896   5.619   3.667   5.933 -0.0581  0.1090  0.6238
11161TIP3   OH254897   2.045   2.506   5.632 -1.4527 -0.1283 -0.9114
11161TIP3    H154898   2.100   2.558   5.574  0.1110 -1.0252 -0.2697
11161TIP3    H254899   2.048   2.552   5.716  0.0707 -1.2659 -0.2943
11162TIP3   OH254900   6.534   3.815   0.908 -0.2156  0.3301  0.2562
11162TIP3    H154901   6.595   3.884   0.935  1.8052 -0.9311 -0.8693
11162TIP3    H254902   6.489   3.852   0.832  1.0446  0.3555 -0.5083
11163TIP3   OH254903   4.491   6.562  11.949  0.0066 -0.0953  0.5000
11163TIP3    H154904   4.407   6.525  11.921  0.6152 -0.0862 -1.5189
11163TIP3    H254905   4.470   6.650  11.981 -0.6281  0.4338 -1.2652
11164TIP3   OH254906   6.607   3.103   3.851  0.5403 -0.2515 -1.0634
11164TIP3    H154907   6.555   3.107   3.771  1.0557 -0.9812 -1.4485
11164TIP3    H254908   6.550   3.059   3.915 -0.3481  1.4504 -0.6209
11165TIP3   OH254909   2.949   3.145  14.040  0.3502 -0.0449  0.4751
11165TIP3    H154910   2.963   3.090  13.963 -1.3888  0.1853 -0.0467
11165TIP3    H254911   2.892   3.094  14.096 -0.8075  0.9499  0.2504
11166TIP3   OH254912   4.198   6.398  10.398  0.4561 -0.0172 -0.2573
11166TIP3    H154913   4.113   6.441  10.390  1.5537  2.0318 -2.3104
11166TIP3    H254914   4.194   6.324  10.337 -0.0594 -0.3541  0.1765
11167TIP3   OH254915   5.609   1.463  16.955  0.2999  0.6877  0.0899
11167TIP3    H154916   5.537   1.523  16.939  0.7883  1.4049  0.5317
11167TIP3    H254917   5.580   1.409  17.029 -0.5383 -0.3054 -0.9237
11168TIP3   OH254918   1.345   0.160  14.944 -0.3114 -0.3484 -0.4326
11168TIP3    H154919   1.365   0.217  15.018  1.5397 -1.2878 -0.1610
11168TIP3    H254920   1.302   0.084  14.984  1.1522 -1.0902 -0.2235
11169TIP3   OH254921   5.321   0.059  14.582 -0.4966  0.2791  0.3354
11169TIP3    H154922   5.369  -0.012  14.539 -0.4141  1.0353 -0.8824
11169TIP3    H254923   5.229   0.032  14.577 -0.3663 -0.3070  0.9906
11170TIP3   OH254924   2.770   3.191   4.806 -0.2832  0.6280  0.7273
11170TIP3    H154925   2.704   3.246   4.764 -0.0610  0.5724  0.3073
11170TIP3    H254926   2.851   3.210   4.758  0.2777  1.5892  1.9785
11171TIP3   OH254927   2.934   0.563  11.087  0.4166  0.0656 -0.1389
11171TIP3    H154928   2.980   0.608  11.158  1.5845 -2.6255  0.9502
11171TIP3    H254929   2.842   0.583  11.101  0.8337  1.5512  0.6624
11172TIP3   OH254930   0.760   1.687  15.746  0.6163 -0.1881 -0.3980
11172TIP3    H154931   0.713   1.707  15.827  0.7900 -0.3161 -0.2633
11172TIP3    H254932   0.784   1.773  15.710  2.1463 -0.1452  0.6372
11173TIP3   OH254933   4.345   0.874  13.995 -0.2728 -0.3350 -0.5168
11173TIP3    H154934   4.310   0.938  13.933 -0.1100  0.1887 -0.0787
11173TIP3    H254935   4.269   0.824  14.024 -0.4068 -0.3196 -0.8475
11174TIP3   OH254936   2.916   1.098  16.621  0.3956  0.1602 -0.3652
11174TIP3    H154937   2.845   1.104  16.558  0.7195  0.2328 -0.7290
11174TIP3    H254938   2.995   1.114  16.569  0.6400  0.5344  0.1158
11175TIP3   OH254939   0.517   2.797   3.137  0.1596 -0.2244 -0.2056
11175TIP3    H154940   0.593   2.836   3.094  0.7740 -2.1199 -0.9616
11175TIP3    H254941   0.443   2.822   3.082  0.0186  2.4304  1.0482
11176TIP3   OH254942   2.882   1.247  16.086  0.3866  0.2622 -0.0524
11176TIP3    H154943   2.897   1.153  16.083 -1.4932 -0.0885  0.2569
11176TIP3    H254944   2.816   1.264  16.019  1.7638  1.6318 -1.1498
11177TIP3   OH254945   0.574   3.027  15.937 -0.3213 -0.5310 -0.1178
11177TIP3    H154946   0.643   3.018  15.871 -0.3363  0.8376 -0.3501
11177TIP3    H254947   0.621   3.049  16.018 -0.2982 -2.2564  0.3951
11178TIP3   OH254948   4.177   4.844   3.238  0.0946 -0.1628 -0.1551
11178TIP3    H154949   4.236   4.850   3.314  2.0966  1.2185 -1.6931
11178TIP3    H254950   4.168   4.935   3.208 -1.2971 -0.5881 -1.1143
11179TIP3   OH254951   4.025   4.288   5.152 -0.2721  0.7504 -0.3317
11179TIP3    H154952   3.965   4.292   5.226 -2.6855  0.6055 -2.1371
11179TIP3    H254953   4.030   4.379   5.121  0.3444  0.7353 -0.2886
11180TIP3   OH254954   2.100   5.065   1.325  0.1390  0.6146  0.5386
11180TIP3    H154955   2.090   5.159   1.309 -2.1736  0.6663  1.8212
11180TIP3    H254956   2.068   5.052   1.415  0.2232 -1.4319  0.3285
11181TIP3   OH254957   2.665   2.051   1.537 -0.3406  0.2810 -0.2331
11181TIP3    H154958   2.632   2.096   1.615  1.5148  0.7714  0.3108
11181TIP3    H254959   2.754   2.083   1.527 -0.5635  0.2939 -2.6440
11182TIP3   OH254960   5.768   3.383   4.226  0.3362  0.3458 -0.4163
11182TIP3    H154961   5.706   3.452   4.251  1.1110  0.7872  0.3500
11182TIP3    H254962   5.839   3.430   4.183 -0.2357 -0.2456 -2.0728
11183TIP3   OH254963   1.773   3.412  13.168  0.2488  0.3349  0.3799
11183TIP3    H154964   1.704   3.462  13.124  0.0167 -0.6774 -0.4546
11183TIP3    H254965   1.748   3.321  13.155  1.4914 -0.0380  0.4960
11184TIP3   OH254966   6.545   4.687   5.447  0.8773 -0.0094  0.1362
11184TIP3    H154967   6.487   4.756   5.480 -0.3493 -1.0259  0.1828
11184TIP3    H254968   6.618   4.734   5.406  0.3823  1.2967  0.7001
11185TIP3   OH254969   0.982   6.624   5.583  0.4313  0.3871  0.7437
11185TIP3    H154970   0.928   6.702   5.570  0.8321  0.5099 -0.3211
11185TIP3    H254971   0.921   6.558   5.618 -0.2244  0.7652  0.3303
11186TIP3   OH254972   0.799   3.069   2.245  0.1308 -0.8564 -0.0818
11186TIP3    H154973   0.735   3.099   2.181 -0.0720 -0.5541  0.2653
11186TIP3    H254974   0.845   2.998   2.200  0.4686 -0.1783 -0.8206
11187TIP3   OH254975   0.054   5.228   2.089  1.1095  0.5544  0.2997
11187TIP3    H154976   0.099   5.249   2.007  0.5125 -1.3077 -0.5730
11187TIP3    H254977   0.046   5.132   2.088 -1.4972  0.6750  1.1148
11188TIP3   OH254978   1.467   5.280  16.212 -0.4573 -0.0702 -0.0652
11188TIP3    H154979   1.520   5.200  16.218 -0.9602 -0.3874  0.3374
11188TIP3    H254980   1.472   5.318  16.299  0.1068  0.5580 -0.3690
11189TIP3   OH254981   5.157   0.892   5.915 -0.0126 -0.0709  0.5571
11189TIP3    H154982   5.209   0.813   5.903  2.1228  1.2518  0.6504
11189TIP3    H254983   5.135   0.919   5.826 -1.5514 -1.2055  0.5438
11190TIP3   OH254984   1.489   6.403   0.938  0.1828  0.0629 -0.4922
11190TIP3    H154985   1.476   6.412   0.844  0.7932  0.3212 -0.5512
11190TIP3    H254986   1.584   6.405   0.951  0.1267 -0.4756  0.0792
11191TIP3   OH254987   1.938   0.409   3.592  0.4195  0.0847 -0.2724
11191TIP3    H154988   1.922   0.449   3.506 -0.6953  1.4930  0.5297
11191TIP3    H254989   1.892   0.467   3.653  1.0131 -1.0047  1.2537
11192TIP3   OH254990   5.864   4.582   0.028 -0.0253 -0.4668 -0.3335
11192TIP3    H154991   5.802   4.646  -0.007 -0.0633 -0.4728 -0.2785
11192TIP3    H254992   5.913   4.631   0.094  1.8166  0.2627 -2.1531
11193TIP3   OH254993   2.212   4.942  17.150  0.4070  0.2868  0.1521
11193TIP3    H154994   2.198   4.979  17.062 -1.3677 -0.4116  0.1150
11193TIP3    H254995   2.190   4.849  17.141 -0.3459  0.3219  1.4774
11194TIP3   OH254996   0.918   3.086  12.045  0.2613  0.1139  1.0684
11194TIP3    H154997   0.847   3.044  11.997 -0.1372  2.3731 -0.4572
11194TIP3    H254998   0.997   3.042  12.013 -0.0537  1.0555 -1.2153
11195TIP3   OH254999   4.697   5.205  16.028 -0.1120  0.2969  0.2090
11195TIP3    H155000   4.689   5.249  15.944 -3.9165 -0.4354 -0.0225
11195TIP3    H255001   4.641   5.255  16.087  0.1090 -0.8964  1.4927
11196TIP3   OH255002   2.408   6.180  12.691 -0.6204 -0.4388  0.6196
11196TIP3    H155003   2.413   6.100  12.640  2.5488  0.3069 -0.4828
11196TIP3    H255004   2.395   6.249  12.625  2.1562  0.3969  0.8176
11197TIP3   OH255005   1.317   5.371   3.509  0.4768  1.3375 -0.2864
11197TIP3    H155006   1.383   5.344   3.572 -0.1717  1.1798  0.3471
11197TIP3    H255007   1.262   5.293   3.496 -0.3754  1.8382  0.2291
11198TIP3   OH255008   6.550   5.384  12.720 -0.0537 -0.3720 -0.1542
11198TIP3    H155009   6.534   5.346  12.634 -1.5724  1.2722 -0.6462
11198TIP3    H255010   6.475   5.358  12.773 -0.0154  0.1137  0.1443
11199TIP3   OH255011   5.874   5.810   1.573  0.0637 -0.4686  0.3067
11199TIP3    H155012   5.918   5.895   1.576 -0.3791 -0.2468  0.4446
11199TIP3    H255013   5.790   5.828   1.532  0.8441 -1.2085 -1.7595
11200TIP3   OH255014   5.184   0.867   5.229 -0.7233 -0.7966  0.1768
11200TIP3    H155015   5.144   0.857   5.143  1.2117 -0.0406 -0.8656
11200TIP3    H255016   5.201   0.778   5.259 -1.0002 -1.0537 -0.4179
11201TIP3   OH255017   0.575   6.088   4.282 -0.5490  0.6554  0.6382
11201TIP3    H155018   0.620   6.044   4.210 -0.8352 -1.8593  1.8713
11201TIP3    H255019   0.516   6.150   4.240  0.8159  0.8141 -1.1678
11202TIP3   OH255020   6.407   2.143  16.749  0.0026  0.3399 -0.1750
11202TIP3    H155021   6.450   2.215  16.796 -0.2077 -0.1705  0.8301
11202TIP3    H255022   6.315   2.169  16.746 -0.0756  0.1182  0.1987
11203TIP3   OH255023   3.811   4.420   2.689 -0.7441 -0.5171 -0.4161
11203TIP3    H155024   3.898   4.411   2.730 -0.9804 -1.9552 -0.1965
11203TIP3    H255025   3.786   4.510   2.709  0.3300 -0.3420  0.2707
11204TIP3   OH255026   1.262   6.519  12.684  0.6978 -0.0293  0.4628
11204TIP3    H155027   1.346   6.530  12.729  1.6125  0.0693 -1.2112
11204TIP3    H255028   1.269   6.432  12.644  1.8653  1.6433 -3.3316
11205TIP3   OH255029   5.205   4.261   3.602 -0.4328 -0.0516  0.5395
11205TIP3    H155030   5.218   4.170   3.575  0.1871  0.1215  0.2292
11205TIP3    H255031   5.119   4.262   3.644 -0.7613 -0.6402 -0.0954
11206TIP3   OH255032   5.684   0.893  14.093 -0.4051 -0.5575  0.1456
11206TIP3    H155033   5.679   0.976  14.046  2.2827  0.0941  0.8452
11206TIP3    H255034   5.701   0.828  14.025 -2.2725 -0.5522 -0.3741
11207TIP3   OH255035   3.397   5.251  16.296 -0.7148  0.8903  0.2815
11207TIP3    H155036   3.485   5.284  16.314 -1.2709  1.6550  1.7308
11207TIP3    H255037   3.353   5.254  16.381 -1.5003 -1.4812  0.0322
11208TIP3   OH255038   3.046   3.619  16.680 -0.1014 -0.2398 -0.4954
11208TIP3    H155039   2.996   3.646  16.603 -0.3968 -0.0008 -0.2201
11208TIP3    H255040   3.086   3.536  16.654 -0.4295 -0.3019 -0.8123
11209TIP3   OH255041   1.388   4.829  15.121  0.1250  0.0505 -0.4753
11209TIP3    H155042   1.308   4.843  15.069 -0.9158  0.3736  1.1262
11209TIP3    H255043   1.392   4.905  15.179  0.7213 -0.7400  0.5455
11210TIP3   OH255044   5.301   0.148  11.383 -0.1416 -0.2694  0.4690
11210TIP3    H155045   5.395   0.165  11.391 -0.0663  0.4733 -1.4071
11210TIP3    H255046   5.296   0.072  11.324 -0.7226  0.0610  0.0840
11211TIP3   OH255047   1.417   2.981   3.975 -0.3066 -0.2527 -0.1538
11211TIP3    H155048   1.426   3.032   3.895 -0.7389 -0.6386 -0.4560
11211TIP3    H255049   1.427   3.044   4.046  0.0894  0.0914 -0.5111
11212TIP3   OH255050   4.064   2.923   3.434 -0.1962  0.2246  0.3804
11212TIP3    H155051   4.137   2.948   3.490 -1.1350  2.8638  0.5580
11212TIP3    H255052   4.002   2.880   3.493  0.5986 -0.8718  0.4638
11213TIP3   OH255053   0.064   2.918  11.715  0.4746  0.1636  0.1458
11213TIP3    H155054   0.111   2.946  11.637  0.9158 -1.3383 -0.1506
11213TIP3    H255055   0.020   2.998  11.745  0.4755  0.8282 -1.4865
11214TIP3   OH255056   4.859   3.521  17.310 -0.1061  0.0211 -0.4797
11214TIP3    H155057   4.939   3.574  17.302 -0.7079  0.6884 -2.9877
11214TIP3    H255058   4.810   3.540  17.230 -3.6758  1.0217  1.7111
11215TIP3   OH255059   2.809   2.007  16.097  0.5424  0.4182 -0.5666
11215TIP3    H155060   2.805   1.964  16.182  2.2534  1.1622 -0.0575
11215TIP3    H255061   2.720   2.039  16.082 -0.1981 -1.1922  0.1205
11216TIP3   OH255062   4.737   2.692  14.695 -0.4070 -0.5315  0.2732
11216TIP3    H155063   4.781   2.641  14.627  0.2420 -2.2894  1.9350
11216TIP3    H255064   4.785   2.775  14.698  0.8339 -1.2183 -0.0496
11217TIP3   OH255065   2.920   4.838   2.140 -0.1595  0.2831 -0.9456
11217TIP3    H155066   2.881   4.751   2.136 -0.4896  0.3732 -0.0046
11217TIP3    H255067   3.013   4.824   2.127  0.4790 -0.7815  3.3712
11218TIP3   OH255068   3.929   2.100  14.042  0.5670  0.2297 -0.4206
11218TIP3    H155069   3.961   2.164  14.106 -0.0802 -0.6109  0.7764
11218TIP3    H255070   3.846   2.137  14.011  1.2939  1.0613 -1.4685
11219TIP3   OH255071   4.385   2.987  16.382  0.2290 -0.4288 -0.2820
11219TIP3    H155072   4.340   2.914  16.340 -0.3233  0.1038 -0.6265
11219TIP3    H255073   4.366   3.062  16.327 -1.1843  0.4663  1.3120
11220TIP3   OH255074   3.309   4.369   0.431  0.0646  0.3534  0.4074
11220TIP3    H155075   3.363   4.399   0.358 -0.8482 -2.4103 -1.5885
11220TIP3    H255076   3.236   4.431   0.434  0.1177  0.5203 -1.0598
11221TIP3   OH255077   2.290   4.895   5.629 -0.0388 -0.3237  0.3585
11221TIP3    H155078   2.226   4.944   5.681  0.6982 -0.2436  1.2129
11221TIP3    H255079   2.253   4.807   5.622  0.6370 -0.8650  2.5632
11222TIP3   OH255080   2.665   0.977   4.295 -0.0560  0.3930  0.3205
11222TIP3    H155081   2.734   0.946   4.237  0.0567 -0.6895  0.9981
11222TIP3    H255082   2.609   0.901   4.308  0.3004  0.4067  2.1551
11223TIP3   OH255083   3.085   1.670  12.363 -0.2532 -0.0359 -0.2211
11223TIP3    H155084   3.123   1.586  12.389  0.4811 -0.4472 -2.3474
11223TIP3    H255085   2.999   1.647  12.328 -0.9519  0.4091  1.1585
11224TIP3   OH255086   5.094   3.093  12.623 -0.4116 -0.1171 -0.0556
11224TIP3    H155087   5.140   3.060  12.545  0.7212 -1.2236  1.0414
11224TIP3    H255088   5.094   3.188  12.613 -1.2299 -0.2600 -1.9117
11225TIP3   OH255089   4.432   3.187   4.358 -0.1893  0.3332 -0.4246
11225TIP3    H155090   4.345   3.199   4.398 -0.4163  0.7257 -1.0204
11225TIP3    H255091   4.487   3.250   4.404  0.5863 -2.0602  2.2134
11226TIP3   OH255092   3.070   3.878   0.329  0.2057 -0.5369 -0.0116
11226TIP3    H155093   3.109   3.938   0.264  0.1855 -0.4900  0.0194
11226TIP3    H255094   3.141   3.818   0.351  1.5407  1.8082  2.8760
11227TIP3   OH255095   4.972   3.816  16.775  0.9200  0.3033 -0.3535
11227TIP3    H155096   4.923   3.868  16.838  1.1373 -0.3263  0.3522
11227TIP3    H255097   4.908   3.754  16.741  1.3244 -0.9433  1.0382
11228TIP3   OH255098   5.372   1.532  16.013 -0.3980 -0.5168  0.4235
11228TIP3    H155099   5.397   1.479  16.089  0.5805 -2.5498 -1.2124
11228TIP3    H255100   5.423   1.495  15.940 -0.7143  1.8372 -1.1028
11229TIP3   OH255101   3.101   2.761  13.757  0.0220  0.0771  0.4261
11229TIP3    H155102   3.051   2.709  13.694  0.3506 -1.2313  1.1918
11229TIP3    H255103   3.077   2.724  13.842 -1.8473  3.0181  1.3051
11230TIP3   OH255104   1.287   4.662  11.867 -0.0698 -0.3224 -0.1120
11230TIP3    H155105   1.211   4.604  11.877 -1.3439  1.3838  0.5713
11230TIP3    H255106   1.323   4.640  11.781 -0.2060 -2.4249  0.3207
11231TIP3   OH255107   3.514   4.261   0.618 -0.1296 -0.1224 -0.3080
11231TIP3    H155108   3.506   4.349   0.583 -0.2510 -0.0321 -0.0541
11231TIP3    H255109   3.441   4.213   0.580  0.3396 -0.3026 -1.0044
11232TIP3   OH255110   3.060   5.031   2.563  0.6843 -0.7695 -0.2660
11232TIP3    H155111   3.064   5.042   2.658 -0.8001 -1.0310 -0.1461
11232TIP3    H255112   3.005   4.953   2.550 -0.2295  0.0174 -1.3397
11233TIP3   OH255113   1.698   2.266   0.661  0.0343 -0.0515 -0.1509
11233TIP3    H155114   1.608   2.293   0.680 -0.1353  0.1260 -1.1348
11233TIP3    H255115   1.721   2.206   0.732 -0.5429  0.5832  0.5958
11234TIP3   OH255116   4.104   5.611  16.925 -0.3704  0.6947  0.2537
11234TIP3    H155117   4.125   5.538  16.983  1.5391  0.6447 -0.4214
11234TIP3    H255118   4.082   5.569  16.841 -2.3010  0.8015  0.6690
11235TIP3   OH255119   2.990   4.150  13.556 -0.5361 -0.1187 -0.0746
11235TIP3    H155120   3.022   4.233  13.522  1.4964 -1.3343 -1.3556
11235TIP3    H255121   2.937   4.113  13.486 -1.4949  0.0974  0.5169
11236TIP3   OH255122   3.088   3.312  13.771 -0.1684  0.2167  0.1432
11236TIP3    H155123   2.998   3.342  13.785  0.1711  1.0165  0.6770
11236TIP3    H255124   3.132   3.328  13.854  0.9815  1.7112 -0.7068
11237TIP3   OH255125   4.705   2.337  11.912 -0.6271  0.2099  0.4461
11237TIP3    H155126   4.760   2.285  11.854 -0.0510 -0.5273  1.6155
11237TIP3    H255127   4.767   2.393  11.960 -1.2893  2.8481 -1.5359
11238TIP3   OH255128   4.220   5.552   0.998  0.0095 -0.4225 -0.1176
11238TIP3    H155129   4.277   5.611   0.949 -0.0372 -0.4708 -0.2298
11238TIP3    H255130   4.172   5.608   1.058 -1.8882 -0.0034 -1.9365
11239TIP3   OH255131   2.058   0.542  12.886 -0.6678 -0.2434 -0.3667
11239TIP3    H155132   1.997   0.472  12.861  0.5374 -2.0935  1.5138
11239TIP3    H255133   2.129   0.497  12.932  2.3247  1.7469 -2.6632
11240TIP3   OH255134   1.817   4.095   4.798  0.2488  0.2530  0.5753
11240TIP3    H155135   1.794   4.039   4.724 -1.7383 -0.3799  1.5894
11240TIP3    H255136   1.908   4.073   4.817  0.7573  0.3042 -1.5158
11241TIP3   OH255137   3.201   0.262   3.664  0.0754  0.0642 -0.4763
11241TIP3    H155138   3.145   0.230   3.594  0.1906 -0.0702 -0.5059
11241TIP3    H255139   3.290   0.250   3.632  0.2560 -2.3840  0.6725
11242TIP3   OH255140   0.729   3.494  11.672  0.8337  0.2780  0.0697
11242TIP3    H155141   0.720   3.566  11.610  0.5524  0.5674  0.4427
11242TIP3    H255142   0.822   3.470  11.668  0.6622 -0.3189 -1.1347
11243TIP3   OH255143   4.807   2.402  13.715 -0.1871 -1.1751  0.3512
11243TIP3    H155144   4.873   2.423  13.780 -0.5632 -0.4405  0.5003
11243TIP3    H255145   4.762   2.326  13.750 -1.0202 -0.2174  1.4226
11244TIP3   OH255146   4.688   1.074   4.066 -0.0357 -0.0073 -0.1581
11244TIP3    H155147   4.727   1.029   3.991  0.1642 -0.8724  0.4431
11244TIP3    H255148   4.670   1.162   4.035  1.3665  0.0777 -0.8006
11245TIP3   OH255149   4.558   6.329  16.101 -0.2294 -0.1480  0.6639
11245TIP3    H155150   4.645   6.294  16.081 -0.4951 -1.6292  1.9606
11245TIP3    H255151   4.564   6.421  16.076  2.2449  0.2118  2.2352
11246TIP3   OH255152   3.404   5.698  12.907 -0.4661 -0.3774 -0.1105
11246TIP3    H155153   3.370   5.753  12.836 -1.8235  0.9438  1.4939
11246TIP3    H255154   3.356   5.726  12.985  1.4638 -1.2973  1.5107
11247TIP3   OH255155   4.603   1.491  15.577  0.6687 -0.4837 -0.6049
11247TIP3    H155156   4.615   1.396  15.577  0.0497 -0.5691 -0.1555
11247TIP3    H255157   4.516   1.504  15.616  0.1840  0.1925 -1.8486
11248TIP3   OH255158   4.397   5.474   2.182 -0.1802 -0.2596  0.1880
11248TIP3    H155159   4.407   5.551   2.237 -1.3646 -0.4293  0.6673
11248TIP3    H255160   4.312   5.437   2.206  0.2417 -1.5713 -0.2107
11249TIP3   OH255161   0.967   1.606   1.493 -0.0899 -0.1658  0.5435
11249TIP3    H155162   1.044   1.655   1.464  0.7226 -2.4068 -1.3634
11249TIP3    H255163   0.996   1.515   1.494 -2.6546 -1.0454  0.0284
11250TIP3   OH255164   5.342   0.635  12.244 -0.2327 -0.1854  0.0760
11250TIP3    H155165   5.292   0.615  12.165 -0.4366  0.9350 -0.0985
11250TIP3    H255166   5.422   0.584  12.236 -0.2507 -0.0760 -0.8555
11251TIP3   OH255167   3.659   3.818  17.191 -0.2663  0.5733 -0.3433
11251TIP3    H155168   3.609   3.791  17.114 -0.4317 -2.0393  0.5715
11251TIP3    H255169   3.742   3.771  17.184 -0.6222 -0.4022  1.4721
11252TIP3   OH255170   0.878   0.736  13.391 -0.2533  0.6062  0.1720
11252TIP3    H155171   0.839   0.819  13.362  1.5746  0.2018 -4.3708
11252TIP3    H255172   0.971   0.756  13.401  0.0055 -0.6172  0.3069
11253TIP3   OH255173   4.904   2.829   5.887 -0.0757 -0.2830 -0.3604
11253TIP3    H155174   4.910   2.923   5.902 -0.5997  0.1015 -2.2769
11253TIP3    H255175   4.829   2.801   5.940 -2.7162  1.2302 -2.9548
11254TIP3   OH255176   0.456   5.638  11.776  0.0438  0.2074  0.0163
11254TIP3    H155177   0.500   5.562  11.815  2.0149  0.7484 -1.0053
11254TIP3    H255178   0.478   5.711  11.833 -1.6958  0.1136  0.8918
11255TIP3   OH255179   3.628   4.495  11.581 -0.1957  0.3569  0.0862
11255TIP3    H155180   3.540   4.460  11.591  0.2346 -2.0938 -2.9260
11255TIP3    H255181   3.683   4.438  11.635  0.0521 -1.7037 -2.1215
11256TIP3   OH255182   1.503   1.279   5.786 -0.3103  0.3465  0.7541
11256TIP3    H155183   1.476   1.210   5.846 -2.0208  0.9930  0.7822
11256TIP3    H255184   1.545   1.345   5.842 -2.3125  1.1625  1.3698
11257TIP3   OH255185   0.480   2.686   1.809  0.0455 -0.1711  0.2333
11257TIP3    H155186   0.489   2.761   1.868  2.3714 -0.4776  0.3868
11257TIP3    H255187   0.464   2.612   1.867  2.9027 -0.5676  0.6546
11258TIP3   OH255188   5.903   6.666  11.629 -0.4995 -0.1557 -0.1893
11258TIP3    H155189   5.840   6.595  11.645  1.4560 -1.8901  0.2109
11258TIP3    H255190   5.964   6.661  11.702  0.7704  0.7414 -1.1443
11259TIP3   OH255191   6.275   2.366   3.724 -0.0383 -0.1838 -0.4139
11259TIP3    H155192   6.323   2.356   3.806  0.3409  0.6484 -0.5198
11259TIP3    H255193   6.185   2.343   3.746  0.2622 -1.0511 -0.0367
11260TIP3   OH255194   2.151   5.953  16.595  0.2027 -0.3060 -0.2386
11260TIP3    H155195   2.143   5.866  16.555 -0.3772 -0.1912 -0.3742
11260TIP3    H255196   2.242   5.956  16.626 -0.7167 -2.3939  3.1097
11261TIP3   OH255197   3.290   6.309   2.564 -0.3100  0.1910 -0.3025
11261TIP3    H155198   3.320   6.289   2.652  0.7344 -0.0927 -0.7036
11261TIP3    H255199   3.204   6.269   2.557  0.0025 -0.5835  0.2786
11262TIP3   OH255200   4.918   2.015  16.163 -0.3093  0.2869 -0.2109
11262TIP3    H155201   4.830   1.978  16.169  0.1591 -0.6930  1.2730
11262TIP3    H255202   4.958   1.968  16.089 -0.1127 -1.4299  0.9192
11263TIP3   OH255203   6.543   0.481  14.385 -0.2064  0.0388 -0.3882
11263TIP3    H155204   6.464   0.480  14.331 -0.0731  0.8616 -0.6125
11263TIP3    H255205   6.563   0.574  14.396  0.3125 -0.1431  0.2848
11264TIP3   OH255206   1.992   2.983  13.301  0.4207 -0.2165  0.2354
11264TIP3    H155207   1.933   2.979  13.377  0.5350  0.5803  0.3733
11264TIP3    H255208   1.935   2.999  13.227  0.4807  0.9058  0.4155
11265TIP3   OH255209   0.648   1.425  11.818  0.0930 -0.5579  0.0827
11265TIP3    H155210   0.594   1.398  11.744 -0.1987 -1.4648  0.6059
11265TIP3    H255211   0.736   1.432  11.782 -0.3006  0.6135 -0.7075
11266TIP3   OH255212   2.426   3.473   4.893  0.0275 -0.3313 -0.2112
11266TIP3    H155213   2.349   3.491   4.946  0.1717  2.1284 -0.7298
11266TIP3    H255214   2.394   3.417   4.822  0.0599 -4.7473  2.8809
11267TIP3   OH255215   5.945   0.381   1.876  0.2711 -0.0033 -0.1808
11267TIP3    H155216   5.882   0.377   1.804  0.3117  1.2419 -0.3075
11267TIP3    H255217   5.952   0.291   1.907  0.2645 -0.5660 -1.7463
11268TIP3   OH255218   6.002   6.093  16.037 -0.1080 -0.0727  0.3837
11268TIP3    H155219   5.961   6.016  15.998 -0.4847  0.3602 -0.0834
11268TIP3    H255220   6.033   6.144  15.963  0.6678 -0.0509  0.7111
11269TIP3   OH255221   5.604   5.053   2.111  0.0381  0.0795  0.3257
11269TIP3    H155222   5.571   4.965   2.133  1.0820 -0.1191  1.1508
11269TIP3    H255223   5.528   5.097   2.072 -1.4826 -0.0916  2.8492
11270TIP3   OH255224   4.592   1.664  13.749  0.1930 -0.1842  0.3065
11270TIP3    H155225   4.680   1.697  13.767  0.8589 -1.9246  0.5017
11270TIP3    H255226   4.545   1.738  13.711  2.1622  0.3991 -1.1166
11271TIP3   OH255227   4.727   1.271  13.605  0.0196 -0.1235 -0.0737
11271TIP3    H155228   4.792   1.302  13.668 -1.7529  0.9611  1.3178
11271TIP3    H255229   4.676   1.349  13.583 -0.6260 -0.8831 -1.3731
11272TIP3   OH255230   4.908   3.073   1.069  0.2147  0.8762 -0.1108
11272TIP3    H155231   4.930   2.987   1.033  0.5940  0.1138  1.8292
11272TIP3    H255232   4.961   3.134   1.018  1.1028 -0.1969 -0.5120
11273TIP3   OH255233   0.075   0.872  12.288  0.2264  0.1303  0.1840
11273TIP3    H155234   0.024   0.902  12.364  0.2519 -1.6027  0.9301
11273TIP3    H255235   0.011   0.865  12.218  0.0145  0.8303  0.2991
11274TIP3   OH255236   3.872   4.845  13.646  0.2744  0.2647  0.0472
11274TIP3    H155237   3.959   4.885  13.650  0.5075 -0.3230  1.0387
11274TIP3    H255238   3.870   4.802  13.560  1.9657 -1.8680  0.9527
11275TIP3   OH255239   5.667   6.002   0.927 -0.5783  0.4060  0.3107
11275TIP3    H155240   5.718   6.043   0.997  1.3334  1.9966 -1.8570
11275TIP3    H255241   5.677   5.908   0.941  1.3041  0.6918  1.1586
11276TIP3   OH255242   3.499   5.619  16.208  0.0988  0.4706 -0.0047
11276TIP3    H155243   3.578   5.651  16.164  0.6690 -1.3602 -0.4171
11276TIP3    H255244   3.525   5.535  16.246 -1.5996 -0.0873  0.0068
11277TIP3   OH255245   5.605   4.631  15.297 -0.1759  0.1784 -0.0163
11277TIP3    H155246   5.541   4.627  15.367 -1.1887 -1.6906 -0.9684
11277TIP3    H255247   5.667   4.561  15.317 -1.1326 -1.1722 -1.5185
11278TIP3   OH255248   2.329   3.338  12.044 -0.5459  0.2976  0.2228
11278TIP3    H155249   2.248   3.357  11.995 -0.5600  0.6681  0.3914
11278TIP3    H255250   2.311   3.369  12.133 -0.9308 -1.3807  0.7632
11279TIP3   OH255251   4.159   1.830  15.717 -0.2753 -0.5263  1.0283
11279TIP3    H155252   4.253   1.846  15.716  0.1823 -2.8680  1.0608
11279TIP3    H255253   4.135   1.824  15.624  0.4723 -3.8848  0.9169
11280TIP3   OH255254   1.656   2.060   4.367 -0.4948 -0.6609 -0.1567
11280TIP3    H155255   1.751   2.045   4.365 -0.3435  0.0343  0.7752
11280TIP3    H255256   1.623   1.991   4.424 -0.2699  0.2065  1.0988
11281TIP3   OH255257   0.586   4.323  15.253 -0.3678 -0.0275  0.0995
11281TIP3    H155258   0.568   4.264  15.326 -0.4402 -1.2226 -0.8469
11281TIP3    H255259   0.661   4.283  15.208  1.6291  2.2448  1.1587
11282TIP3   OH255260   5.678   3.248   1.404  0.2562  0.5201 -0.1617
11282TIP3    H155261   5.640   3.161   1.393 -0.1281  0.7124 -0.3942
11282TIP3    H255262   5.622   3.291   1.469 -1.6052  1.7270 -2.3650
11283TIP3   OH255263   2.817   5.758  10.840 -0.9399  0.0384  0.0710
11283TIP3    H155264   2.836   5.673  10.881  0.9449  1.4381  2.3273
11283TIP3    H255265   2.902   5.790  10.811 -1.5053  1.4533 -0.0960
11284TIP3   OH255266   6.641   3.146   2.210  0.3761 -0.2263  0.7688
11284TIP3    H155267   6.640   3.087   2.134  0.7178 -1.4484  1.6888
11284TIP3    H255268   6.590   3.222   2.181  1.4712 -0.1235 -1.0867
11285TIP3   OH255269   5.231   0.638  12.950  0.2930 -0.1215 -0.2530
11285TIP3    H155270   5.296   0.670  13.012  1.1197 -0.0514 -1.1401
11285TIP3    H255271   5.261   0.551  12.925 -0.6179 -0.6011  0.2494
11286TIP3   OH255272   1.560   4.795  11.283  0.3114  0.0613  0.5791
11286TIP3    H155273   1.609   4.822  11.204  1.2872  1.2290  1.5320
11286TIP3    H255274   1.523   4.877  11.316 -2.4485 -0.8108 -0.1586
11287TIP3   OH255275   2.247   5.684   4.197  0.2996 -0.0224 -0.1039
11287TIP3    H155276   2.274   5.643   4.115  1.6625  0.8053 -0.1070
11287TIP3    H255277   2.292   5.634   4.265 -1.2748 -1.0670  0.2142
11288TIP3   OH255278   0.931   5.117  14.468  0.0693  0.4356  0.1645
11288TIP3    H155279   0.999   5.183  14.463  0.8822 -0.4617 -1.3795
11288TIP3    H255280   0.862   5.157  14.520  0.9466  2.1024  0.0962
11289TIP3   OH255281   2.309   5.978  15.719  0.3193 -0.1984 -0.0589
11289TIP3    H155282   2.281   5.946  15.805 -1.3197  1.2458  0.0100
11289TIP3    H255283   2.254   6.055  15.704  1.2797  0.1575 -1.9694
11290TIP3   OH255284   5.819   2.267  12.658 -0.5396 -0.3186  0.2070
11290TIP3    H155285   5.795   2.347  12.705 -1.3296  0.5557 -1.5849
11290TIP3    H255286   5.909   2.281  12.629 -1.2118  0.7102 -1.5418
11291TIP3   OH255287   6.569   2.594  14.253 -0.4085 -0.0524  0.0338
11291TIP3    H155288   6.595   2.506  14.226  0.2374  0.0583  0.2783
11291TIP3    H255289   6.474   2.595  14.244 -0.2956 -0.2688 -1.5088
11292TIP3   OH255290   6.210   1.308   0.884 -0.1002  0.1948 -0.3092
11292TIP3    H155291   6.139   1.372   0.875 -0.6426 -0.2166  0.8074
11292TIP3    H255292   6.173   1.225   0.854 -0.5148 -0.2714  1.3867
11293TIP3   OH255293   2.263   3.394  15.894 -0.4006  0.4773 -0.6252
11293TIP3    H155294   2.274   3.421  15.802  1.7937  1.8326 -0.0215
11293TIP3    H255295   2.291   3.303  15.895  1.6677  1.0593 -0.9678
11294TIP3   OH255296   5.944   6.662   5.007 -0.4215 -0.1321  0.0612
11294TIP3    H155297   5.924   6.745   4.964  1.0134  1.2354  1.8816
11294TIP3    H255298   6.039   6.653   4.999  0.1911  0.9086  3.8803
11295TIP3   OH255299   5.156   6.191   4.199 -0.5433  0.8531  0.0036
11295TIP3    H155300   5.148   6.137   4.121  1.0243 -1.0977  1.0761
11295TIP3    H255301   5.071   6.184   4.242 -0.9128  0.6484 -0.7387
11296TIP3   OH255302   0.731   0.187  12.706  0.3213 -0.0091 -0.3815
11296TIP3    H155303   0.820   0.159  12.726  0.5818 -0.5923 -2.1142
11296TIP3    H255304   0.710   0.140  12.625 -1.5014  0.2489 -0.0963
11297TIP3   OH255305   3.526   4.527   4.085 -0.0259  0.1244  0.2277
11297TIP3    H155306   3.528   4.433   4.100  2.2918 -0.0619 -0.7555
11297TIP3    H255307   3.577   4.564   4.157  0.0014  0.5206  0.0097
11298TIP3   OH255308   2.432   2.443  15.476  0.1459 -0.5338  0.1477
11298TIP3    H155309   2.440   2.438  15.571 -0.9401  1.0651  0.3663
11298TIP3    H255310   2.388   2.361  15.452  1.1544 -1.3199  0.9109
11299TIP3   OH255311   1.018   6.026   3.218  0.1999 -0.2215  0.0641
11299TIP3    H155312   1.092   6.086   3.225  0.4987 -0.4731 -0.8407
11299TIP3    H255313   1.030   5.965   3.292 -0.6015  1.3247  1.5397
11300TIP3   OH255314   2.224   0.312   3.337  0.3237 -0.1803 -0.2394
11300TIP3    H155315   2.192   0.282   3.252 -0.1045  1.5346 -0.7282
11300TIP3    H255316   2.308   0.267   3.348 -0.1438 -1.2971 -1.0203
11301TIP3   OH255317   5.698   4.484  13.221 -0.1102  0.2353  0.6263
11301TIP3    H155318   5.629   4.495  13.156 -0.4938 -0.3569  0.9176
11301TIP3    H255319   5.780   4.494  13.172 -0.4018  0.4220  0.1774
11302TIP3   OH255320   2.757   3.264  14.311  0.1162 -0.0557 -0.9600
11302TIP3    H155321   2.756   3.326  14.385 -0.5697  0.6696 -1.5605
11302TIP3    H255322   2.783   3.317  14.236 -0.1185 -0.5863 -1.4200
11303TIP3   OH255323   1.515   6.095  12.455 -0.3146 -0.1235 -0.3147
11303TIP3    H155324   1.575   6.029  12.489 -1.0784 -0.7302 -0.1208
11303TIP3    H255325   1.569   6.173  12.444  0.0363  0.0400  2.0656
11304TIP3   OH255326   3.493   5.906   4.883 -0.0339 -0.1671  0.7373
11304TIP3    H155327   3.503   5.881   4.975  1.6026  0.7732  0.8429
11304TIP3    H255328   3.581   5.932   4.855 -0.1927 -1.7358 -1.5047
11305TIP3   OH255329   2.732   4.580   5.431 -0.4769 -0.4161  0.1523
11305TIP3    H155330   2.792   4.571   5.506 -0.5063  0.4143  0.2854
11305TIP3    H255331   2.788   4.569   5.354 -0.1620  0.2803  0.2770
11306TIP3   OH255332   6.539   5.277  13.395  0.1623  0.1078 -0.0383
11306TIP3    H155333   6.627   5.242  13.389 -0.5129 -1.5103 -0.8552
11306TIP3    H255334   6.527   5.328  13.314  0.2779  0.1931 -0.0018
11307TIP3   OH255335   2.401   3.530   4.540 -0.1320 -0.1304 -0.6622
11307TIP3    H155336   2.316   3.505   4.574  0.5473  1.5969  2.7887
11307TIP3    H255337   2.405   3.625   4.555  3.2375 -0.4700  1.7768
11308TIP3   OH255338   5.220   2.507  14.960 -0.2220  0.1323  0.5736
11308TIP3    H155339   5.225   2.602  14.945 -1.1842  0.1951  0.5877
11308TIP3    H255340   5.132   2.483  14.931 -0.6660 -0.4447  2.2908
11309TIP3   OH255341   4.746   3.030   0.023 -0.2897  0.6276 -0.3504
11309TIP3    H155342   4.722   3.002   0.111 -2.6110 -0.8239 -1.3522
11309TIP3    H255343   4.678   3.093  -0.001 -0.1773  0.3690 -1.3946
11310TIP3   OH255344   1.232   0.796  15.703 -0.3332  0.1462 -0.3094
11310TIP3    H155345   1.285   0.791  15.782 -0.1927  3.0765 -0.1297
11310TIP3    H255346   1.143   0.777  15.732  0.1349 -2.0940 -0.1338
11311TIP3   OH255347   6.630   0.341  15.667 -0.2942 -0.2445  0.3377
11311TIP3    H155348   6.561   0.274  15.660 -2.1880  1.7482 -1.5342
11311TIP3    H255349   6.599   0.401  15.735  0.3432 -0.1257  0.5269
11312TIP3   OH255350   4.578   3.780   3.296  0.0843  0.3537  0.2076
11312TIP3    H155351   4.483   3.789   3.298  0.1275  0.9271 -0.0870
11312TIP3    H255352   4.593   3.685   3.294 -0.5306  0.2567 -1.5431
11313TIP3   OH255353   4.627   0.015   1.063  0.2149  0.1994  0.1507
11313TIP3    H155354   4.612   0.094   1.011  1.3937 -1.2262 -2.5766
11313TIP3    H255355   4.542  -0.030   1.063  0.4593 -0.3440 -1.6860
11314TIP3   OH255356   6.028   4.020   0.119 -0.2914  0.0352 -0.4105
11314TIP3    H155357   6.118   3.988   0.126 -0.2948 -0.0076 -0.5701
11314TIP3    H255358   5.978   3.946   0.086 -0.6346 -0.3580  0.9291
11315TIP3   OH255359   2.228   2.083   1.529 -0.0181 -0.1287  0.1422
11315TIP3    H155360   2.149   2.033   1.513  1.3404 -2.4614  0.2169
11315TIP3    H255361   2.199   2.159   1.580 -2.4269  0.1777 -1.5580
11316TIP3   OH255362   3.008   6.251   2.550  0.3425 -0.6422  0.5466
11316TIP3    H155363   2.983   6.311   2.479  1.8793  0.7541  1.1139
11316TIP3    H255364   3.017   6.166   2.508 -1.4351 -0.3967 -0.3869
11317TIP3   OH255365   2.643   4.273  15.137 -0.0184  0.0825 -0.7946
11317TIP3    H155366   2.621   4.323  15.216  2.9807  1.3422 -0.6059
11317TIP3    H255367   2.623   4.332  15.064  1.1991  0.6783 -0.6870
11318TIP3   OH255368   2.090   4.704  12.003  0.3022  0.5235 -0.4796
11318TIP3    H155369   2.008   4.751  11.998  0.1360  0.6444  1.9733
11318TIP3    H255370   2.145   4.743  11.935 -1.7819  0.0613 -2.5382
11319TIP3   OH255371   3.519   2.884  13.569  0.3997  0.2015  0.7026
11319TIP3    H155372   3.573   2.807  13.584 -2.4074 -2.9724 -3.2308
11319TIP3    H255373   3.535   2.907  13.477 -3.0864  0.4337  0.0011
11320TIP3   OH255374   1.235   0.633  14.160 -0.0871 -0.3332  0.1520
11320TIP3    H155375   1.291   0.599  14.090 -0.1309 -0.0044 -0.0455
11320TIP3    H255376   1.179   0.697  14.117 -0.2513 -0.2745  0.4511
11321TIP3   OH255377   0.957   4.630   5.989  0.2679 -0.5866  0.1642
11321TIP3    H155378   0.996   4.610   5.904  0.0951 -0.5463  0.0747
11321TIP3    H255379   1.003   4.709   6.018  1.7693 -1.7562  1.0543
11322TIP3   OH255380   1.728   3.911   1.017 -0.5224 -0.1062  0.0362
11322TIP3    H155381   1.819   3.887   1.034 -0.6995  0.2734  1.6944
11322TIP3    H255382   1.712   3.882   0.927  0.7075 -1.7402  0.2992
11323TIP3   OH255383   3.869   6.268  13.899 -0.3919 -0.0303  0.0827
11323TIP3    H155384   3.849   6.175  13.903 -2.9294  0.4190  4.2343
11323TIP3    H255385   3.954   6.276  13.943 -0.3849 -0.3541  0.1294
11324TIP3   OH255386   1.344   5.492  13.840  0.6608  0.5790  0.5417
11324TIP3    H155387   1.286   5.564  13.813  1.1684  0.9751  0.4938
11324TIP3    H255388   1.367   5.514  13.931  1.1344  0.6909  0.3970
11325TIP3   OH255389   2.427   1.746   5.742 -0.4635  0.3710 -0.2427
11325TIP3    H155390   2.425   1.651   5.727  0.9779 -0.1260  2.1906
11325TIP3    H255391   2.344   1.765   5.786 -0.4438  0.0935 -0.0831
11326TIP3   OH255392   2.427   3.433  10.473 -0.1729  1.0182 -0.2272
11326TIP3    H155393   2.356   3.390  10.522  0.2810  0.0520 -0.3918
11326TIP3    H255394   2.402   3.525  10.471 -0.8129  0.8871  0.7823
11327TIP3   OH255395   3.248   0.357   3.150  0.3622  0.0923  0.0227
11327TIP3    H155396   3.181   0.329   3.088  1.0400 -0.3311 -0.5255
11327TIP3    H255397   3.206   0.348   3.236 -0.2675 -0.2056 -0.3072
11328TIP3   OH255398   0.796   4.671   0.529 -0.0609 -0.6021  0.6138
11328TIP3    H155399   0.855   4.622   0.588  0.5238 -0.0822  0.4702
11328TIP3    H255400   0.709   4.637   0.550  0.1589 -0.5721  1.6430
11329TIP3   OH255401   3.408   6.262   5.906 -0.2600 -0.3172  0.2846
11329TIP3    H155402   3.475   6.236   5.970 -2.8899 -2.9655  2.2769
11329TIP3    H255403   3.368   6.340   5.944  1.1413  0.7995 -0.5046
11330TIP3   OH255404   3.232   1.483  15.787 -0.4461  0.4050 -0.6560
11330TIP3    H155405   3.167   1.482  15.858  0.2415 -1.9867  0.0651
11330TIP3    H255406   3.180   1.477  15.707 -1.1718  0.4276 -0.2043
11331TIP3   OH255407   6.728   5.432  13.878 -0.2825  0.0985 -0.5294
11331TIP3    H155408   6.709   5.442  13.784 -1.4885 -0.3923 -0.3601
11331TIP3    H255409   6.782   5.508  13.899  0.8734 -0.3149 -1.8230
11332TIP3   OH255410   0.362   1.640   4.966 -0.8742  0.1031 -0.0882
11332TIP3    H155411   0.457   1.649   4.968 -0.6364 -1.9295 -0.4164
11332TIP3    H255412   0.339   1.613   5.055 -1.0535 -0.0863 -0.1918
11333TIP3   OH255413   3.544   6.332   4.050  0.4426  0.0802 -0.3071
11333TIP3    H155414   3.616   6.275   4.074 -0.3904 -0.4415  1.1290
11333TIP3    H255415   3.465   6.279   4.064 -0.2256  0.5172 -2.1487
11334TIP3   OH255416   1.360   6.738  12.487  0.2890  0.3426 -0.1499
11334TIP3    H155417   1.303   6.677  12.533 -1.1951  1.2953 -0.6593
11334TIP3    H255418   1.323   6.745  12.399  1.3123  0.8462 -0.5616
11335TIP3   OH255419   4.205   3.112   3.062 -0.7461 -0.0341  0.1757
11335TIP3    H155420   4.120   3.069   3.065 -1.1446  0.7103 -0.3438
11335TIP3    H255421   4.261   3.050   3.014 -1.5389  0.3778 -1.3450
11336TIP3   OH255422   3.599   5.336   2.019  0.2698  0.5748  0.1522
11336TIP3    H155423   3.627   5.302   1.933 -0.7616 -0.0729  0.0595
11336TIP3    H255424   3.679   5.333   2.072  0.6327 -0.2388 -0.4105
11337TIP3   OH255425   3.669   1.544   2.034 -0.5748 -0.0580 -0.2744
11337TIP3    H155426   3.742   1.573   1.979 -0.8025  0.3449 -0.3661
11337TIP3    H255427   3.641   1.461   1.995  0.6840 -0.9121  0.5383
11338TIP3   OH255428   1.545   3.625  14.924  0.3194 -0.1481  0.1040
11338TIP3    H155429   1.572   3.674  14.846  0.2604  1.9793  1.3280
11338TIP3    H255430   1.450   3.620  14.917  0.0402  2.3072  1.1969
11339TIP3   OH255431   3.493   2.479   4.357 -0.4586 -0.6794 -0.4343
11339TIP3    H155432   3.554   2.545   4.326  0.3426 -1.3952 -0.4241
11339TIP3    H255433   3.454   2.443   4.277  0.6659 -1.6366 -0.5859
11340TIP3   OH255434   5.968   0.289  12.801  0.3112 -0.3787  0.9075
11340TIP3    H155435   5.896   0.242  12.758  0.4400  2.1092 -2.4372
11340TIP3    H255436   5.926   0.361  12.847  0.4813  1.9826 -2.2818
11341TIP3   OH255437   5.463   5.525  11.599 -0.1297 -0.4065  0.6318
11341TIP3    H155438   5.397   5.457  11.613 -1.4038  0.4295 -1.0804
11341TIP3    H255439   5.518   5.490  11.529 -0.7901  0.3124 -0.2561
11342TIP3   OH255440   1.252   2.318  15.449  0.6724  0.2319  0.3563
11342TIP3    H155441   1.291   2.340  15.533  2.0537  0.8849 -0.4262
11342TIP3    H255442   1.325   2.322  15.387  0.0073 -1.7840 -0.6315
11343TIP3   OH255443   2.698   5.032   1.778  0.3246 -0.2249  0.1990
11343TIP3    H155444   2.741   4.954   1.743  1.9342 -1.0507  3.5959
11343TIP3    H255445   2.633   4.998   1.840 -2.8309  1.1362 -2.0660
11344TIP3   OH255446   1.800   3.687  14.241 -0.1838 -0.7046  0.0562
11344TIP3    H155447   1.781   3.598  14.210 -0.9295 -0.4869 -0.1381
11344TIP3    H255448   1.733   3.703  14.308  0.9758 -0.9016  1.2982
11345TIP3   OH255449   0.534   3.437   4.789  0.1468 -0.2165 -0.2501
11345TIP3    H155450   0.448   3.457   4.752  0.6916 -0.1519 -1.5332
11345TIP3    H255451   0.520   3.438   4.884 -2.0887 -3.8582 -0.3592
11346TIP3   OH255452   5.619   2.027   1.418 -0.1259 -0.3503  1.0063
11346TIP3    H155453   5.526   2.023   1.438 -0.4901  1.3600 -0.1475
11346TIP3    H255454   5.626   1.994   1.329  0.4325 -0.8085  1.2130
11347TIP3   OH255455   0.168   5.979   3.677 -0.3082 -0.4566 -0.2796
11347TIP3    H155456   0.233   6.037   3.716 -0.8521  0.5145 -0.7894
11347TIP3    H255457   0.140   5.923   3.749  2.2166 -2.0131 -0.3736
11348TIP3   OH255458   4.445   6.537  13.053  0.6121 -0.7453  0.5588
11348TIP3    H155459   4.429   6.622  13.010  1.5059 -0.4225  0.8532
11348TIP3    H255460   4.380   6.533  13.123  0.0321 -0.6744  0.0413
11349TIP3   OH255461   4.541   0.844   0.909  0.2516  0.2182  0.4745
11349TIP3    H155462   4.557   0.887   0.993  2.1400  0.5811 -0.0301
11349TIP3    H255463   4.569   0.754   0.923  0.1568  0.1681  0.3432
11350TIP3   OH255464   2.741   0.682   2.216  0.3236  0.3172 -0.0286
11350TIP3    H155465   2.698   0.614   2.165  0.2270 -0.1595  0.6761
11350TIP3    H255466   2.679   0.755   2.215  0.5176  0.4878 -0.9589
11351TIP3   OH255467   4.906   3.889  11.886  0.4085 -0.2243  1.2058
11351TIP3    H155468   4.865   3.858  11.967 -1.5637 -0.5981  0.1272
11351TIP3    H255469   4.847   3.956  11.853  0.9835 -0.3400 -0.1131
11352TIP3   OH255470   4.636   1.236   0.017 -0.1427 -0.3417  0.3982
11352TIP3    H155471   4.727   1.263   0.012 -0.0817 -0.6795 -0.5570
11352TIP3    H255472   4.602   1.250  -0.071 -0.6177 -1.5835  0.3604
11353TIP3   OH255473   0.700   1.745   0.893  0.2873 -0.0102 -0.0634
11353TIP3    H155474   0.740   1.721   0.810  0.5361  0.1479  0.0107
11353TIP3    H255475   0.710   1.840   0.898  2.6333 -0.2591  1.3412
11354TIP3   OH255476   3.090   1.923  15.630 -0.2161  0.5105  0.2036
11354TIP3    H155477   3.137   1.984  15.573 -3.1446  1.1360 -1.7683
11354TIP3    H255478   3.088   1.841  15.581 -0.5085  0.2692  0.6124
11355TIP3   OH255479   2.125   4.511   2.468 -0.3943  0.4335  0.5978
11355TIP3    H155480   2.169   4.504   2.384 -1.2161 -1.9459  0.2731
11355TIP3    H255481   2.192   4.543   2.529  0.4145  1.4340 -0.7724
11356TIP3   OH255482   3.547   2.711   5.266  0.1205 -0.2008  0.0096
11356TIP3    H155483   3.605   2.653   5.217  0.3406  1.9458 -2.4890
11356TIP3    H255484   3.533   2.786   5.208 -1.8626  1.2740  2.1944
11357TIP3   OH255485   6.466   0.141   5.993 -0.4326 -0.4649  0.4140
11357TIP3    H155486   6.554   0.159   5.960  0.3932 -0.9507  2.1766
11357TIP3    H255487   6.431   0.227   6.017 -1.3250 -0.0224 -2.2004
11358TIP3   OH255488   3.505   3.601   0.965  0.2042  0.2029 -0.4876
11358TIP3    H155489   3.479   3.693   0.956 -1.2620 -0.3186 -2.0748
11358TIP3    H255490   3.600   3.603   0.962  0.1893  1.6373 -1.0187
11359TIP3   OH255491   1.621   4.619  11.595  0.3356 -0.4557 -0.1753
11359TIP3    H155492   1.547   4.572  11.633 -0.4980  1.8814  1.3541
11359TIP3    H255493   1.696   4.595  11.649  0.2747 -1.2158 -0.4166
11360TIP3   OH255494   4.759   5.410   0.313  0.0951  0.5281 -0.4045
11360TIP3    H155495   4.739   5.328   0.268 -0.0931  0.3989 -0.0823
11360TIP3    H255496   4.855   5.411   0.318  0.0583 -0.6419  1.3732
11361TIP3   OH255497   6.488   5.636  15.332 -0.1315 -0.1219  1.0912
11361TIP3    H155498   6.393   5.625  15.327 -0.1492  0.3545  0.1759
11361TIP3    H255499   6.513   5.587  15.410 -0.6730 -3.5779 -0.6782
11362TIP3   OH255500   0.502   1.786  11.168 -0.3383 -0.1752 -0.3071
11362TIP3    H155501   0.578   1.728  11.178 -0.5501 -0.1548  1.7200
11362TIP3    H255502   0.536   1.862  11.120  0.7583 -0.4938 -0.0584
11363TIP3   OH255503   3.386   6.226   4.986 -0.5955 -0.1551 -0.1614
11363TIP3    H155504   3.439   6.172   5.045  1.1991 -0.7705 -2.2094
11363TIP3    H255505   3.400   6.316   5.015  0.1289 -0.4500  0.4275
11364TIP3   OH255506   2.222   6.685  12.883  0.2956  0.0199 -0.1747
11364TIP3    H155507   2.281   6.760  12.893  0.5173  0.1024 -1.8885
11364TIP3    H255508   2.163   6.710  12.812  0.1690 -1.3084 -0.5533
11365TIP3   OH255509   6.345   0.061   0.275  0.0785  0.1292  0.0010
11365TIP3    H155510   6.293   0.137   0.303 -0.1987 -0.0135 -0.1216
11365TIP3    H255511   6.319  -0.009   0.336 -0.8373 -0.3005 -0.8597
11366TIP3   OH255512   0.236   1.543  14.025 -0.1216 -0.1379 -0.0810
11366TIP3    H155513   0.228   1.611  14.092  0.5777  0.3784 -0.5001
11366TIP3    H255514   0.287   1.473  14.067  0.0878  0.0703  0.0119
11367TIP3   OH255515   2.420   4.274  16.039  0.5429  0.0690  0.0378
11367TIP3    H155516   2.470   4.278  16.120  0.3063  2.0107  0.1446
11367TIP3    H255517   2.480   4.235  15.975  1.4991  0.5071  0.6493
11368TIP3   OH255518   1.836   0.614  16.939 -0.2083 -0.0089  0.2822
11368TIP3    H155519   1.748   0.651  16.939  0.1629  0.9050 -0.2489
11368TIP3    H255520   1.892   0.685  16.971  0.6084  0.1549 -1.4078
11369TIP3   OH255521   1.810   3.268  11.665 -0.1871 -0.2116  0.0546
11369TIP3    H155522   1.893   3.250  11.709  0.3630  0.8044 -0.5236
11369TIP3    H255523   1.774   3.343  11.712 -1.0492 -0.9759  0.6384
11370TIP3   OH255524   2.827   4.091  15.607  0.0670  0.2174 -0.4655
11370TIP3    H155525   2.850   4.107  15.699  0.2889 -0.6649 -0.3587
11370TIP3    H255526   2.883   4.151  15.558 -0.4459  1.0975 -0.0127
11371TIP3   OH255527   0.437   3.306   3.283  0.0392 -0.3212  0.1146
11371TIP3    H155528   0.411   3.363   3.211 -0.6760  0.7958  1.2332
11371TIP3    H255529   0.418   3.218   3.251 -0.6333  0.1803 -0.9126
11372TIP3   OH255530   2.752   0.935  10.451 -0.6497 -0.4040 -0.4488
11372TIP3    H155531   2.690   0.993  10.496 -2.3042 -2.1813 -0.2663
11372TIP3    H255532   2.823   0.992  10.423 -2.3746  1.7947 -0.6741
11373TIP3   OH255533   5.803   5.985  13.685 -0.2360 -0.1884 -0.7818
11373TIP3    H155534   5.817   6.045  13.611  0.4490  0.1953 -0.3536
11373TIP3    H255535   5.813   5.898  13.647 -2.9093 -0.1541 -1.7688
11374TIP3   OH255536   1.282   1.741   2.381  0.4412  0.2085  0.0022
11374TIP3    H155537   1.312   1.768   2.295 -0.2055  1.4002  0.1258
11374TIP3    H255538   1.292   1.646   2.381 -1.5261 -0.0996 -2.1934
11375TIP3   OH255539   0.890   4.682   3.172 -0.2738 -0.0799 -0.6779
11375TIP3    H155540   0.912   4.724   3.255 -1.1685  2.2090 -1.5054
11375TIP3    H255541   0.798   4.656   3.182  0.1561 -1.5787 -0.3223
11376TIP3   OH255542   6.127   4.986   5.564  0.2526 -0.2100 -0.1616
11376TIP3    H155543   6.164   4.913   5.613  2.0025 -0.3858 -1.6259
11376TIP3    H255544   6.038   4.958   5.542  0.1761 -0.9939  1.0740
11377TIP3   OH255545   1.333   3.807   2.097  0.1074 -0.2686 -0.4133
11377TIP3    H155546   1.293   3.869   2.158 -0.3932 -1.2601  0.2888
11377TIP3    H255547   1.383   3.747   2.153  1.3324  0.0430 -1.1583
11378TIP3   OH255548   4.634   0.455  12.197  0.3704 -0.3268 -0.4507
11378TIP3    H155549   4.558   0.398  12.202 -0.6115  0.9784  0.0065
11378TIP3    H255550   4.662   0.451  12.105 -0.7307 -0.2004 -0.7960
11379TIP3   OH255551   2.650   0.183  14.384 -0.3039  0.0996 -0.1968
11379TIP3    H155552   2.603   0.100  14.382 -0.8163  0.3905 -1.3513
11379TIP3    H255553   2.742   0.159  14.375 -0.4368 -0.3538 -0.3728
11380TIP3   OH255554   1.774   5.515  13.908 -0.1799  0.2087  0.4329
11380TIP3    H155555   1.840   5.498  13.840  1.2922 -0.0759  1.8729
11380TIP3    H255556   1.754   5.428  13.943 -0.2125  0.4350  0.9841
11381TIP3   OH255557   3.387   0.481   2.495  0.2314 -0.2338 -0.0419
11381TIP3    H155558   3.336   0.401   2.482  0.1625 -0.2602  0.3878
11381TIP3    H255559   3.322   0.548   2.513  0.3677 -0.3530  0.9307
11382TIP3   OH255560   1.831   1.541  14.599 -0.5194  0.1766  0.7986
11382TIP3    H155561   1.810   1.624  14.641  0.7432  1.2628 -0.5723
11382TIP3    H255562   1.899   1.563  14.535  0.1539 -1.9887  0.6700
11383TIP3   OH255563   1.426   3.385  13.154  0.0664 -0.0882  0.3004
11383TIP3    H155564   1.397   3.415  13.241 -0.6588 -0.9669  0.3771
11383TIP3    H255565   1.366   3.428  13.093 -1.6923 -2.1085  0.4755
11384TIP3   OH255566   2.977   2.337  13.441 -0.1777  0.4425  0.4925
11384TIP3    H155567   2.919   2.408  13.416 -0.5589  0.3290  1.0149
11384TIP3    H255568   3.063   2.364  13.411 -0.3142  1.1304  0.6989
11385TIP3   OH255569   1.088   2.324  16.785 -0.5185  0.0187 -0.4065
11385TIP3    H155570   1.071   2.351  16.695  0.5361  0.9322 -0.3534
11385TIP3    H255571   1.027   2.252  16.800 -0.2107 -0.6487 -2.0920
11386TIP3   OH255572   1.134   2.338  14.838 -0.0051  0.0544  0.1353
11386TIP3    H155573   1.066   2.300  14.783  0.0379 -0.7522  0.6184
11386TIP3    H255574   1.108   2.429  14.850  0.3650  0.4793 -1.8259
11387TIP3   OH255575   2.415   4.660  12.646  0.4400 -0.3136 -0.2360
11387TIP3    H155576   2.456   4.658  12.560 -1.3398 -0.9536 -1.1226
11387TIP3    H255577   2.321   4.654  12.628 -0.0228  0.3038  1.7193
11388TIP3   OH255578   2.699   6.213  14.072  0.5050  0.2194  0.3528
11388TIP3    H155579   2.618   6.258  14.047  0.6105  1.6174  2.3331
11388TIP3    H255580   2.723   6.164  13.994 -1.5876  0.7327 -0.7026
11389TIP3   OH255581   0.348   1.572  15.279  0.0977 -0.1305 -0.2449
11389TIP3    H155582   0.345   1.476  15.287 -0.2562  0.0335  3.7060
11389TIP3    H255583   0.440   1.591  15.258  0.2719 -1.2860 -0.6290
11390TIP3   OH255584   4.580   3.553  16.082  0.2742 -0.0863 -0.0435
11390TIP3    H155585   4.553   3.462  16.091  0.4794 -0.1404  0.0378
11390TIP3    H255586   4.660   3.549  16.030  0.6553 -0.0103  0.5244
11391TIP3   OH255587   5.727   5.676  14.855 -0.4335  0.2445  0.4373
11391TIP3    H155588   5.664   5.667  14.926 -1.2625 -1.1162 -0.4214
11391TIP3    H255589   5.808   5.703  14.899 -0.8846 -0.6491  1.9307
11392TIP3   OH255590   3.132   4.095  11.483 -0.1707  0.1458 -0.1040
11392TIP3    H155591   3.080   4.173  11.502 -0.7129 -0.0686 -0.6998
11392TIP3    H255592   3.068   4.029  11.458  0.4884  0.3935 -2.6918
11393TIP3   OH255593   2.115   6.516   5.006  0.1697  0.0992  0.1091
11393TIP3    H155594   2.166   6.487   4.930 -0.4403 -0.1604 -0.2034
11393TIP3    H255595   2.053   6.445   5.022  0.3486  0.1115  0.9104
11394TIP3   OH255596   2.523   0.862   2.222 -0.5830  0.0964 -0.4822
11394TIP3    H155597   2.538   0.859   2.127 -2.0788  0.3629 -0.7515
11394TIP3    H255598   2.514   0.955   2.242 -0.9372  0.0056 -0.1998
11395TIP3   OH255599   4.334   1.203  15.351 -0.1635  0.4037  0.1643
11395TIP3    H155600   4.343   1.122  15.401  0.1480  0.4638  0.2108
11395TIP3    H255601   4.265   1.185  15.287  0.6589 -0.2768 -0.5581
11396TIP3   OH255602   4.254   4.122   4.912 -0.0143  0.4835  0.0312
11396TIP3    H155603   4.186   4.184   4.885  0.0168  0.1197 -0.9274
11396TIP3    H255604   4.212   4.037   4.907  0.0459  0.3929  1.0057
11397TIP3   OH255605   1.067   4.137  13.142 -0.1771 -0.5176 -0.0895
11397TIP3    H155606   1.144   4.109  13.192 -0.0926 -2.1547 -1.0454
11397TIP3    H255607   1.078   4.231  13.132  1.2517 -0.5817  0.5487
11398TIP3   OH255608   4.376   2.292  16.829  0.1916 -0.5407 -0.0177
11398TIP3    H155609   4.283   2.310  16.841  0.5532  0.0936  2.1879
11398TIP3    H255610   4.381   2.250  16.743 -2.0925 -0.4180 -0.2694
11399TIP3   OH255611   4.783   5.906  16.884  0.1933 -0.0575 -0.4649
11399TIP3    H155612   4.838   5.953  16.946 -0.7717  1.5181 -0.7657
11399TIP3    H255613   4.835   5.904  16.803  0.0436  0.9328 -0.5906
11400TIP3   OH255614   6.708   4.476   1.981 -0.4935 -0.2985 -0.1118
11400TIP3    H155615   6.785   4.524   2.012 -0.9433 -0.4539  1.3312
11400TIP3    H255616   6.743   4.397   1.941  0.1734  0.4817 -1.0975
11401TIP3   OH255617   0.284   5.765  12.151 -0.0587  0.3274 -0.3237
11401TIP3    H155618   0.275   5.824  12.226 -2.9676 -0.4563  0.0885
11401TIP3    H255619   0.320   5.684  12.187 -0.2125  0.3952 -0.0190
11402TIP3   OH255620   0.831   4.533   2.394  0.4002  0.1662  0.4295
11402TIP3    H155621   0.736   4.538   2.386  0.2916 -0.3570  1.2563
11402TIP3    H255622   0.856   4.458   2.339  0.8385  2.6731 -3.1552
11403TIP3   OH255623   1.283   0.309   5.645  0.3467 -0.2580 -0.9814
11403TIP3    H155624   1.374   0.308   5.672 -0.0388  0.7422  0.4931
11403TIP3    H255625   1.253   0.219   5.657  0.3166  0.0358  1.6612
11404TIP3   OH255626   0.634   1.298   2.794 -0.6755 -0.0155 -0.8105
11404TIP3    H155627   0.580   1.369   2.829 -0.4561 -1.0832  1.9985
11404TIP3    H255628   0.702   1.285   2.860  0.8109 -1.1765 -2.4712
11405TIP3   OH255629   6.400   3.039  11.952  0.0755  0.8566  0.3288
11405TIP3    H155630   6.366   3.034  12.041 -0.0681 -0.4133  0.2235
11405TIP3    H255631   6.468   2.971  11.949  0.4731  1.2686 -0.3742
11406TIP3   OH255632   5.480   0.431  14.179  0.4498 -0.5678 -0.1512
11406TIP3    H155633   5.556   0.390  14.139  0.3233 -0.8836 -0.0730
11406TIP3    H255634   5.513   0.473  14.258  1.0348  1.5558 -1.4453
11407TIP3   OH255635   2.273   6.418  16.247  0.4262  0.1600 -0.0093
11407TIP3    H155636   2.247   6.439  16.337  3.9251  2.2881  0.7118
11407TIP3    H255637   2.324   6.494  16.219  1.9595 -1.6988 -2.6972
11408TIP3   OH255638   1.567   1.714   2.685  0.0147 -0.3848  0.1159
11408TIP3    H155639   1.582   1.673   2.600 -0.7559  0.8762 -0.6501
11408TIP3    H255640   1.560   1.807   2.667 -2.6010 -0.2771  1.1825
11409TIP3   OH255641   5.027   3.638   2.331 -0.5464 -1.0878  0.0691
11409TIP3    H155642   5.093   3.683   2.278  0.0888 -2.0192  0.0564
11409TIP3    H255643   5.050   3.660   2.421 -0.6050 -0.9015  0.0403
11410TIP3   OH255644   0.098   4.947   2.105  0.5397 -0.1015 -0.2084
11410TIP3    H155645   0.166   4.970   2.168  0.1074  1.6072 -0.3118
11410TIP3    H255646   0.145   4.931   2.024  1.0415 -1.7155  0.3476
11411TIP3   OH255647   4.757   5.936   3.417 -0.2427 -0.2765  0.4504
11411TIP3    H155648   4.670   5.950   3.380 -0.3997 -0.8405  0.5970
11411TIP3    H255649   4.766   6.004   3.484 -0.4248  0.0098  0.1835
11412TIP3   OH255650   5.160   3.644   1.110  0.3111  0.3386 -0.5988
11412TIP3    H155651   5.240   3.596   1.135  0.3203  1.5253  1.9412
11412TIP3    H255652   5.089   3.592   1.146  0.1373  0.7584 -0.3322
11413TIP3   OH255653   2.647   4.737  17.092  1.0388  0.0398  0.1004
11413TIP3    H155654   2.585   4.664  17.091  1.2548 -0.1633  0.8803
11413TIP3    H255655   2.623   4.789  17.015 -0.9250  0.6367  1.0286
11414TIP3   OH255656   2.423   2.005   5.133 -0.2176  0.6616 -0.2361
11414TIP3    H155657   2.495   2.001   5.070  0.4650  0.2580  0.5457
11414TIP3    H255658   2.427   1.921   5.179 -1.1943  0.6371 -0.1827
11415TIP3   OH255659   2.992   4.625   5.564 -0.4464 -0.2983  0.1896
11415TIP3    H155660   2.924   4.612   5.630 -1.7825  1.7896 -0.6741
11415TIP3    H255661   3.074   4.611   5.611 -1.3984 -0.3262  1.9176
11416TIP3   OH255662   3.087   2.935  11.880  0.1349  0.3242  0.6399
11416TIP3    H155663   3.091   2.905  11.789 -0.2558 -0.2852  0.8149
11416TIP3    H255664   2.999   2.972  11.888 -0.7777 -1.8248  1.4022
11417TIP3   OH255665   3.289   6.421   5.459 -0.1970  0.0016 -0.2005
11417TIP3    H155666   3.241   6.416   5.542 -1.3241  2.5040 -0.6118
11417TIP3    H255667   3.363   6.362   5.471 -1.9132 -1.9714  1.4663
11418TIP3   OH255668   4.887   2.877   2.713  0.4031  0.2866 -0.7525
11418TIP3    H155669   4.927   2.818   2.777  3.5039  2.3149 -0.6357
11418TIP3    H255670   4.932   2.858   2.631 -0.0126  1.1119 -1.1868
11419TIP3   OH255671   4.639   6.128   4.945 -0.0898 -0.0128  0.3066
11419TIP3    H155672   4.623   6.163   5.033  2.0693  2.3388 -0.1124
11419TIP3    H255673   4.734   6.124   4.938 -0.1981  0.3670 -2.1021
11420TIP3   OH255674   2.482   6.375  14.606 -0.9942  0.1622 -0.1233
11420TIP3    H155675   2.569   6.407  14.633 -1.1530  0.9297 -0.4859
11420TIP3    H255676   2.500   6.295  14.557 -0.4587  0.4921 -0.4788
11421TIP3   OH255677   2.243   0.580  11.939 -0.2479 -0.6625 -0.1146
11421TIP3    H155678   2.240   0.646  11.870  1.3771 -1.5037 -1.0323
11421TIP3    H255679   2.168   0.601  11.995  0.0872  1.8170 -0.4901
11422TIP3   OH255680   1.825   2.131  13.014  0.2151 -0.2902  0.4234
11422TIP3    H155681   1.743   2.151  12.968 -1.2507 -1.9266  2.1768
11422TIP3    H255682   1.866   2.217  13.028 -0.7055  0.4872 -1.2890
11423TIP3   OH255683   4.636   6.380  17.052  0.1912 -0.4979  0.3723
11423TIP3    H155684   4.544   6.373  17.025  0.1944  0.0098  0.2066
11423TIP3    H255685   4.639   6.340  17.139 -0.2295 -0.3541  0.4574
11424TIP3   OH255686   1.504   0.473   0.484 -0.2681  0.1305  0.2191
11424TIP3    H155687   1.421   0.519   0.497 -0.4872 -0.5650  1.3587
11424TIP3    H255688   1.524   0.434   0.568  1.7203  1.0724  0.2538
11425TIP3   OH255689   1.487   0.611  12.372  0.6033  0.4584  0.1218
11425TIP3    H155690   1.458   0.651  12.454  0.0282 -1.0748  0.7151
11425TIP3    H255691   1.478   0.681  12.307  1.2895  1.7729  1.3872
11426TIP3   OH255692   3.520   6.312   2.196  0.9719  0.1367 -0.5170
11426TIP3    H155693   3.464   6.374   2.242  2.9599  1.7374 -0.0854
11426TIP3    H255694   3.546   6.249   2.263  2.0094  1.1305  0.0650
11427TIP3   OH255695   2.060   2.855  12.166 -0.3306  0.2302 -0.5407
11427TIP3    H155696   2.064   2.771  12.121 -2.7884 -0.3304  0.1195
11427TIP3    H255697   2.150   2.872  12.194  0.4557 -1.5139 -1.8307
11428TIP3   OH255698   3.300   4.609  13.339  0.0865  0.2664 -0.2997
11428TIP3    H155699   3.215   4.607  13.296 -0.8522 -0.7276  1.4522
11428TIP3    H255700   3.289   4.673  13.410  1.7019  2.1620 -1.6819
11429TIP3   OH255701   6.641   4.300  16.385  0.2431  0.0592  0.2709
11429TIP3    H155702   6.718   4.329  16.336 -0.2909  0.6747 -0.2262
11429TIP3    H255703   6.671   4.293  16.476  1.0357 -0.3107 -0.0086
11430TIP3   OH255704   3.318   5.030  11.379  0.2596 -0.7683 -0.3792
11430TIP3    H155705   3.313   5.020  11.284 -0.7824 -1.7249 -0.2465
11430TIP3    H255706   3.403   5.071  11.395  0.4630 -0.6372 -1.7166
11431TIP3   OH255707   6.552   4.692  14.556  0.3629 -0.0927  1.2561
11431TIP3    H155708   6.520   4.603  14.572 -0.3697 -0.2459 -0.7832
11431TIP3    H255709   6.597   4.716  14.637  0.1896 -2.1404  2.0244
11432TIP3   OH255710   5.914   1.843   0.555 -0.1931  0.2812 -0.4794
11432TIP3    H155711   5.967   1.777   0.512  0.6299  1.8900 -2.0724
11432TIP3    H255712   5.974   1.916   0.572 -0.9232  0.4699  1.7379
11433TIP3   OH255713   0.345   5.928  12.375  0.3739 -0.2316  0.4659
11433TIP3    H155714   0.398   5.867  12.426 -2.6232 -1.7567  2.0074
11433TIP3    H255715   0.294   5.977  12.440 -1.8013 -0.5205 -0.9186
11434TIP3   OH255716   6.342   3.869   5.551 -0.0136 -0.2784  0.3332
11434TIP3    H155717   6.407   3.801   5.571 -0.7198 -0.7922  0.9437
11434TIP3    H255718   6.392   3.937   5.506  1.3501  0.1878  2.4141
11435TIP3   OH255719   1.152   1.737   6.271  0.1708 -0.0873  0.1069
11435TIP3    H155720   1.090   1.780   6.329  3.2539  2.3262  1.9755
11435TIP3    H255721   1.185   1.807   6.214  1.8154 -1.0086 -0.1577
11436TIP3   OH255722   3.651   0.770   1.244 -0.1622  0.7064  0.1342
11436TIP3    H155723   3.721   0.711   1.215  0.1659 -0.6550  3.2751
11436TIP3    H255724   3.572   0.716   1.245 -0.1565  0.6816  1.6250
11437TIP3   OH255725   6.376   4.537   6.527 -0.3272  1.1674  0.1114
11437TIP3    H155726   6.341   4.514   6.613  0.1855 -2.0952 -0.4035
11437TIP3    H255727   6.308   4.510   6.465  0.6323  0.3377 -0.6172
11438TIP3   OH255728   5.660   3.359   3.827 -0.8940 -0.5606  0.2356
11438TIP3    H155729   5.619   3.394   3.906  0.2319 -0.5201  0.8329
11438TIP3    H255730   5.754   3.365   3.845 -0.6351 -1.2512 -0.8094
11439TIP3   OH255731   6.652   4.159  11.847  0.1091 -0.6010 -0.1202
11439TIP3    H155732   6.713   4.086  11.847 -1.0289 -1.5882  0.3448
11439TIP3    H255733   6.697   4.228  11.798  2.0625 -0.8529  1.2023
11440TIP3   OH255734   6.419   1.247   3.653 -0.7891 -0.2148  0.5469
11440TIP3    H155735   6.349   1.312   3.651  0.9138  1.7825  1.8581
11440TIP3    H255736   6.384   1.175   3.704 -3.3074 -1.1822 -2.2393
11441TIP3   OH255737   6.692   2.665  12.368  0.4878  0.0191  0.1365
11441TIP3    H155738   6.742   2.738  12.404  2.0063 -1.1566  0.5544
11441TIP3    H255739   6.608   2.668  12.414  1.0159  0.7317  1.0998
11442TIP3   OH255740   1.610   4.927  13.791 -0.5206 -0.4064  0.1821
11442TIP3    H155741   1.662   5.005  13.770  1.4582 -1.3858  1.1804
11442TIP3    H255742   1.548   4.956  13.857 -1.3582  0.8063 -1.0742
11443TIP3   OH255743   1.840   3.951  13.934 -0.1079  0.8620 -0.1069
11443TIP3    H155744   1.770   3.959  13.999 -0.2473 -0.7568 -0.0196
11443TIP3    H255745   1.828   3.864  13.897  1.4135  0.8514 -0.6319
11444TIP3   OH255746   1.651   4.368  11.912  0.4159 -0.2718 -0.4795
11444TIP3    H155747   1.651   4.397  11.821  1.1880  1.4964  0.0391
11444TIP3    H255748   1.727   4.412  11.951 -0.1106 -0.7087  1.1112
11445TIP3   OH255749   1.990   2.922  16.069 -0.3768 -0.9175  0.6081
11445TIP3    H155750   2.043   2.852  16.108 -0.2443 -2.8539 -2.6745
11445TIP3    H255751   1.902   2.885  16.066 -1.3567  0.9569  2.9006
11446TIP3   OH255752   1.975   3.292  15.883 -0.5450  0.0399  0.3123
11446TIP3    H155753   2.059   3.336  15.871 -0.9797  1.5774  2.3710
11446TIP3    H255754   1.995   3.198  15.874  0.9686  0.4570 -1.1699
11447TIP3   OH255755   0.864   2.042  14.364 -0.0048 -0.0396  0.2238
11447TIP3    H155756   0.877   2.120  14.418 -1.9251  1.9944 -2.0418
11447TIP3    H255757   0.782   2.058  14.318  0.7107 -2.3513 -2.1100
11448TIP3   OH255758   4.257   1.238   1.405  0.0405 -0.2655  0.1212
11448TIP3    H155759   4.334   1.269   1.357 -1.2825 -1.5275 -3.0524
11448TIP3    H255760   4.289   1.163   1.455  0.9118 -0.6591 -1.0034
11449TIP3   OH255761   6.537   6.468  15.763 -0.2029 -0.3679 -0.3122
11449TIP3    H155762   6.617   6.480  15.711  1.1068 -2.7421  0.9503
11449TIP3    H255763   6.522   6.552  15.805  2.9524 -0.3315  1.0512
11450TIP3   OH255764   1.378   6.386   0.045  0.3078  0.8823  0.0967
11450TIP3    H155765   1.436   6.313   0.066 -0.2376 -0.2418 -2.0281
11450TIP3    H255766   1.301   6.372   0.099  0.8863  0.8488  0.9270
11451TIP3   OH255767   0.805   5.224   5.401 -0.2044 -0.5885 -0.0006
11451TIP3    H155768   0.863   5.172   5.457 -0.8393 -1.7926 -0.4040
11451TIP3    H255769   0.846   5.220   5.314 -0.4848 -0.7975 -0.1256
11452TIP3   OH255770   4.340   1.331   2.979  0.0415  0.5579 -0.1959
11452TIP3    H155771   4.386   1.328   2.895  1.0161 -0.3362  0.3472
11452TIP3    H255772   4.404   1.299   3.042 -1.1480 -0.1549  0.6717
11453TIP3   OH255773   1.043   3.014  14.886  0.4115 -0.2378 -0.2282
11453TIP3    H155774   1.082   3.098  14.908  1.1600 -0.2808 -1.2904
11453TIP3    H255775   1.103   2.949  14.924  1.0875 -0.2936 -1.3150
11454TIP3   OH255776   1.893   6.513   4.651 -0.1712 -0.0054  0.1649
11454TIP3    H155777   1.876   6.572   4.578 -0.1511 -0.6280 -0.3479
11454TIP3    H255778   1.982   6.481   4.636  1.0338  2.1140  2.0577
11455TIP3   OH255779   0.469   2.288  11.098 -0.0414 -0.6078 -0.0150
11455TIP3    H155780   0.470   2.367  11.044  3.0588  0.1156  0.8621
11455TIP3    H255781   0.401   2.303  11.162 -1.7272 -0.1517 -1.8194
11456TIP3   OH255782   1.643   0.904  12.629  0.2037 -0.4566 -0.1768
11456TIP3    H155783   1.649   0.842  12.701 -0.3999  0.7848  0.9817
11456TIP3    H255784   1.615   0.986  12.670 -3.3418 -0.4682 -2.1653
11457TIP3   OH255785   5.527   2.721   0.362  0.7366 -0.6686 -0.2904
11457TIP3    H155786   5.605   2.735   0.416  0.4569 -0.3371  0.0360
11457TIP3    H255787   5.489   2.640   0.397  0.8735 -0.7674 -0.3721
11458TIP3   OH255788   5.447   0.533   4.050  0.3478 -0.0952 -0.5287
11458TIP3    H155789   5.493   0.607   4.090  1.4256 -0.5588 -0.8872
11458TIP3    H255790   5.487   0.524   3.963 -0.9641 -0.0153 -1.1681
11459TIP3   OH255791   4.848   4.540  12.791  0.2009 -0.6058 -0.2539
11459TIP3    H155792   4.785   4.479  12.828 -0.9273  1.2655  1.1128
11459TIP3    H255793   4.830   4.540  12.697 -0.6850 -1.3666 -0.0918
11460TIP3   OH255794   6.654   5.057   5.231  0.1966 -0.2775  0.6561
11460TIP3    H155795   6.749   5.061   5.238  0.1524  1.8641  0.9099
11460TIP3    H255796   6.632   5.124   5.166 -1.1935  0.2075  1.5778
11461TIP3   OH255797   3.367   4.080  14.553  0.8818 -0.2360 -0.1782
11461TIP3    H155798   3.349   4.024  14.478 -0.5561 -1.4412  1.0070
11461TIP3    H255799   3.437   4.034  14.600  1.5403  0.3453 -0.5571
11462TIP3   OH255800   3.859   3.991   4.504 -0.1634 -0.3758 -0.5488
11462TIP3    H155801   3.942   3.983   4.552 -0.5455 -0.1785  0.1753
11462TIP3    H255802   3.814   4.064   4.548 -1.1243 -1.0976 -0.3142
11463TIP3   OH255803   1.794   3.360  10.261  0.1459 -0.2145  0.7272
11463TIP3    H155804   1.727   3.292  10.252  1.4411 -1.5906  1.1026
11463TIP3    H255805   1.787   3.412  10.181 -0.2130 -1.4000 -0.0318
11464TIP3   OH255806   2.792   6.187   1.782  0.0467 -0.0500 -0.5123
11464TIP3    H155807   2.710   6.231   1.762 -0.3693  0.5145  2.1199
11464TIP3    H255808   2.775   6.095   1.761 -1.2592  0.0680 -0.0676
11465TIP3   OH255809   0.513   0.935   2.881 -0.7274 -0.4322  0.0231
11465TIP3    H155810   0.593   0.987   2.872 -1.2011  0.1751 -0.8127
11465TIP3    H255811   0.444   0.991   2.845 -1.0951 -2.0780 -2.0420
11466TIP3   OH255812   5.280   3.378  11.067  0.6065  0.1812  0.1776
11466TIP3    H155813   5.346   3.401  11.001  1.2128  3.0512  1.6024
11466TIP3    H255814   5.201   3.360  11.016  1.8072 -0.8450 -1.4455
11467TIP3   OH255815   4.517   4.439   3.265  0.4832  0.0805 -0.1916
11467TIP3    H155816   4.461   4.468   3.192  1.1743 -0.6110 -1.0194
11467TIP3    H255817   4.463   4.452   3.343 -0.3979  0.5364 -0.8567
11468TIP3   OH255818   3.958   3.015  11.959  0.1542 -0.2638  0.2630
11468TIP3    H155819   3.978   2.922  11.943  0.1903 -0.1153 -0.6175
11468TIP3    H255820   4.041   3.052  11.988  0.7801 -0.0254 -1.6854
11469TIP3   OH255821   1.546   3.272  13.441 -0.0889  0.6223 -0.2161
11469TIP3    H155822   1.564   3.287  13.348  1.9436  0.5337  0.1199
11469TIP3    H255823   1.584   3.348  13.485 -1.2490  0.7824  0.5529
11470TIP3   OH255824   1.079   3.606   4.735 -0.4562 -0.0622  0.2593
11470TIP3    H155825   1.026   3.684   4.721 -0.3972 -0.1482 -0.5098
11470TIP3    H255826   1.092   3.602   4.829  0.9741  1.8058  0.2029
11471TIP3   OH255827   0.619   4.556  16.934 -0.6168  0.4892 -0.0695
11471TIP3    H155828   0.614   4.649  16.955  0.3826  0.7860 -1.0609
11471TIP3    H255829   0.711   4.532  16.950 -0.7525 -0.2031 -0.2840
11472TIP3   OH255830   4.325   0.611  14.574  0.1757  0.3652  0.1419
11472TIP3    H155831   4.243   0.630  14.617  1.3690  1.2541  2.1505
11472TIP3    H255832   4.337   0.517  14.584 -1.2057 -0.0288 -1.4229
11473TIP3   OH255833   4.483   0.918  12.835 -0.6741 -0.0392  0.3485
11473TIP3    H155834   4.479   0.837  12.886  0.3447 -0.5175 -0.3207
11473TIP3    H255835   4.441   0.897  12.752  0.3560 -0.1474 -0.1605
11474TIP3   OH255836   5.982   5.240   3.873 -0.5950  0.2803  0.2193
11474TIP3    H155837   5.962   5.171   3.937 -0.8886  0.1921  0.0317
11474TIP3    H255838   6.004   5.192   3.793  0.1192  0.3791  0.3509
11475TIP3   OH255839   2.250   0.122  17.004  0.5137 -0.8436  0.0249
11475TIP3    H155840   2.341   0.143  17.021  0.4779 -0.1410 -0.5795
11475TIP3    H255841   2.252   0.034  16.967  1.0613 -0.4626 -0.9022
11476TIP3   OH255842   2.745   3.028  12.159 -0.4017 -0.2691 -0.2260
11476TIP3    H155843   2.717   3.088  12.229 -1.3878 -0.8599 -0.0927
11476TIP3    H255844   2.770   2.948  12.205  1.0476  0.0736 -0.3943
11477TIP3   OH255845   2.238   5.497   2.990  0.1864 -0.1653  0.1095
11477TIP3    H155846   2.328   5.467   2.977  0.2806  0.1805 -0.0587
11477TIP3    H255847   2.240   5.588   2.961 -0.4417 -0.4253 -0.8025
11478TIP3   OH255848   3.714   4.909  14.396 -0.5431  0.8436  0.6335
11478TIP3    H155849   3.623   4.922  14.422 -0.5115  0.9329  0.6980
11478TIP3    H255850   3.709   4.880  14.304 -0.6712  0.1929  0.8388
11479TIP3   OH255851   4.635   1.913   0.846 -0.6540 -0.4532 -0.2639
11479TIP3    H155852   4.633   1.950   0.757 -1.4139  0.0179 -0.0621
11479TIP3    H255853   4.574   1.839   0.842 -2.1630  0.7038  0.3273
11480TIP3   OH255854   2.623   0.974  12.963 -0.2666 -0.1388  0.0132
11480TIP3    H155855   2.557   0.950  13.028  0.6731 -0.9792  0.6736
11480TIP3    H255856   2.687   0.904  12.966  1.0001  0.9667 -0.1563
11481TIP3   OH255857   6.631   3.544   1.903  0.0106  0.0609  0.2855
11481TIP3    H155858   6.597   3.621   1.858  0.6320 -1.1660 -2.4413
11481TIP3    H255859   6.720   3.571   1.930 -0.4433  0.8762  1.0377
11482TIP3   OH255860   6.103   0.856  16.544  0.1492  0.2548  0.0713
11482TIP3    H155861   6.069   0.769  16.565  2.5554 -0.5327  1.0524
11482TIP3    H255862   6.077   0.871  16.453  0.6772 -2.0121 -0.5071
11483TIP3   OH255863   4.749   2.249  15.732  0.2004 -0.1004  0.9435
11483TIP3    H155864   4.705   2.310  15.791  0.6836  0.4144  0.7819
11483TIP3    H255865   4.733   2.163  15.770 -1.4749  0.0009  0.5606
11484TIP3   OH255866   5.024   2.221  14.512  0.6602  0.0923  0.4442
11484TIP3    H155867   4.993   2.183  14.429  0.5203 -0.7264  0.8661
11484TIP3    H255868   5.112   2.186  14.523  0.5755 -0.0174  0.7806
11485TIP3   OH255869   2.372   2.210  13.535 -0.0285  0.4263 -0.2023
11485TIP3    H155870   2.326   2.288  13.507 -0.0794  1.0100  1.3666
11485TIP3    H255871   2.404   2.232  13.623 -0.1363 -1.3511  0.3154
11486TIP3   OH255872   2.367   6.536  13.588 -0.0829 -0.4013  0.1078
11486TIP3    H155873   2.448   6.575  13.619 -0.1485 -0.8431  0.8554
11486TIP3    H255874   2.320   6.511  13.668  0.4772 -3.0805 -0.3100
11487TIP3   OH255875   6.631   2.317   5.822  0.2567 -0.4489 -0.8513
11487TIP3    H155876   6.644   2.225   5.846  1.7158 -0.1924 -0.5750
11487TIP3    H255877   6.695   2.333   5.753 -0.1876  0.2959 -1.0994
11488TIP3   OH255878   5.552   3.876  11.248 -0.0223 -0.0204  0.1246
11488TIP3    H155879   5.594   3.791  11.259 -0.2634 -0.0360  0.9887
11488TIP3    H255880   5.489   3.863  11.177  1.2617 -0.0552 -1.0397
11489TIP3   OH255881   2.962   6.194   3.346  0.3810 -0.2676  0.2410
11489TIP3    H155882   2.961   6.099   3.356 -2.8704 -0.4848 -1.0973
11489TIP3    H255883   2.933   6.209   3.256  0.2231  2.0023  0.6096
11490TIP3   OH255884   4.223   4.242   4.624  0.4709 -0.3487 -0.0774
11490TIP3    H155885   4.210   4.291   4.705  0.1048  0.1046 -0.4046
11490TIP3    H255886   4.308   4.272   4.591 -0.2775  0.9577 -0.8793
11491TIP3   OH255887   2.335   3.866  11.765  0.0037  0.2437  0.4078
11491TIP3    H155888   2.245   3.836  11.760 -0.1482  0.4796  1.3692
11491TIP3    H255889   2.366   3.835  11.851  0.1212  2.0009  1.0452
11492TIP3   OH255890   2.318   5.227   0.361  0.7443 -0.0919  0.0664
11492TIP3    H155891   2.405   5.224   0.401  0.7293  0.0860  0.1157
11492TIP3    H255892   2.283   5.139   0.372  0.9061 -0.1536  0.0776
11493TIP3   OH255893   5.050   4.696  15.312  0.2793 -0.0512  0.4061
11493TIP3    H155894   5.075   4.716  15.403  2.9990 -1.6140  0.1015
11493TIP3    H255895   4.965   4.652  15.320 -0.8194  2.1587  1.8977
11494TIP3   OH255896   3.601   1.040  15.822 -0.7407 -0.3850  0.0272
11494TIP3    H155897   3.561   1.126  15.834 -0.6319 -0.1112 -1.3870
11494TIP3    H255898   3.616   1.034  15.727  2.3890 -0.5264  0.4270
11495TIP3   OH255899   3.252   4.169   4.485 -0.3269 -0.3510 -0.3299
11495TIP3    H155900   3.288   4.257   4.474 -1.2360 -0.1259 -1.6741
11495TIP3    H255901   3.160   4.177   4.460 -0.8507 -1.3449  1.1362
11496TIP3   OH255902   5.109   6.359  13.887 -0.3020 -0.0652  0.7589
11496TIP3    H155903   5.044   6.391  13.825  0.4960 -0.3294 -0.2501
11496TIP3    H255904   5.158   6.437  13.914 -0.0649 -0.0703  0.3479
11497TIP3   OH255905   0.615   0.257  17.088 -0.0528  0.7619 -0.9456
11497TIP3    H155906   0.592   0.316  17.160  0.3308  1.5929 -1.4868
11497TIP3    H255907   0.531   0.221  17.060 -0.2121  0.4499 -0.1086
11498TIP3   OH255908   2.147   2.623  12.949  0.5112  0.9325 -0.5718
11498TIP3    H155909   2.080   2.641  12.883  0.9171 -0.1493 -1.3087
11498TIP3    H255910   2.214   2.573  12.902  0.7467  0.0046  0.7080
11499TIP3   OH255911   0.558   2.713   4.494  0.0294 -0.8968 -0.1039
11499TIP3    H155912   0.653   2.713   4.491  0.1196 -0.9902  1.5258
11499TIP3    H255913   0.530   2.703   4.403  1.5476  0.3497 -0.7313
11500TIP3   OH255914   0.909   4.289   6.395  0.3369 -0.1916 -0.0035
11500TIP3    H155915   0.869   4.357   6.341  1.3437  0.8549  0.5370
11500TIP3    H255916   0.929   4.219   6.333  0.8979  0.7292 -0.8957
11501TIP3   OH255917   2.690   2.437  13.062 -0.2291 -0.1735  0.3083
11501TIP3    H155918   2.646   2.455  13.145 -1.0891  0.2875 -0.2266
11501TIP3    H255919   2.647   2.358  13.029 -0.3975  0.0560 -0.0335
11502TIP3   OH255920   6.185   6.009  11.688  0.3188 -0.2521  0.6123
11502TIP3    H155921   6.094   5.988  11.710  0.1446  0.9271  1.1173
11502TIP3    H255922   6.179   6.090  11.637  1.1391  0.4668  1.6163
11503TIP3   OH255923   0.351   6.457  11.454 -0.0116 -0.2253  0.1887
11503TIP3    H155924   0.443   6.481  11.452 -0.2279  0.6029 -0.3472
11503TIP3    H255925   0.307   6.524  11.401 -1.0661  0.0020  1.3032
11504TIP3   OH255926   3.183   1.984  15.269  0.3681 -0.1984  0.0023
11504TIP3    H155927   3.210   2.076  15.274  0.5801 -0.2079 -0.8462
11504TIP3    H255928   3.087   1.987  15.269  0.3445 -0.0793  1.5173
11505TIP3   OH255929   1.676   5.480   1.639  0.4776  0.4003  0.3463
11505TIP3    H155930   1.614   5.489   1.711 -0.1460 -3.5516  0.5573
11505TIP3    H255931   1.759   5.512   1.673 -0.4386  1.3421  1.7598
11506TIP3   OH255932   5.701   0.738   1.910 -0.0428 -0.5138 -0.3053
11506TIP3    H155933   5.739   0.651   1.925 -0.0251 -0.4635 -0.0519
11506TIP3    H255934   5.616   0.719   1.869 -0.7223 -0.7295  1.1278
11507TIP3   OH255935   4.688   1.444  11.610  0.0888 -0.0539  0.0175
11507TIP3    H155936   4.700   1.358  11.651 -0.6987  0.0575  0.4956
11507TIP3    H255937   4.734   1.505  11.668  0.7982 -0.1577 -0.4132
11508TIP3   OH255938   4.129   6.058  12.903 -0.9331 -0.0242  0.4921
11508TIP3    H155939   4.100   5.970  12.929  0.8086 -0.4714  1.0590
11508TIP3    H255940   4.132   6.108  12.984 -1.3521  0.4060  0.2507
11509TIP3   OH255941   1.849   6.403  14.340  0.0044  0.0005 -0.2092
11509TIP3    H155942   1.865   6.495  14.321  0.2132  0.3242  1.3823
11509TIP3    H255943   1.773   6.380  14.287  0.1908  0.9726 -0.9184
11510TIP3   OH255944   1.524   0.087  13.803 -0.2386  0.4686  0.3880
11510TIP3    H155945   1.455   0.063  13.864  0.7469 -2.7647  0.4514
11510TIP3    H255946   1.514   0.025  13.730  1.5101  1.0496 -0.4057
11511TIP3   OH255947   4.009   3.915   5.968 -0.3214 -0.3876  0.3075
11511TIP3    H155948   4.057   3.998   5.960 -0.1689 -0.3667  1.2597
11511TIP3    H255949   3.929   3.938   6.016 -0.4116 -0.7364  0.3273
11512TIP3   OH255950   5.794   1.053  17.017 -0.5072  0.3953  0.0005
11512TIP3    H155951   5.727   1.014  16.961 -2.4782  1.4151  1.5240
11512TIP3    H255952   5.762   1.041  17.106  1.1387  1.3062  0.7814
11513TIP3   OH255953   0.793   3.715  14.352  0.3205  0.2634  0.8199
11513TIP3    H155954   0.779   3.793  14.406 -3.8300  0.7296 -0.5037
11513TIP3    H255955   0.776   3.746  14.262  0.4189 -1.7906  0.0432
11514TIP3   OH255956   6.291   6.368   3.971  0.0989 -0.3768 -0.1464
11514TIP3    H155957   6.369   6.319   3.945  0.4575  1.5020 -3.0676
11514TIP3    H255958   6.325   6.454   3.997 -0.8535 -0.1704  0.4351
11515TIP3   OH255959   5.562   4.620  12.206  0.1719 -0.9048  0.1026
11515TIP3    H155960   5.566   4.626  12.110  0.8478 -1.8056  0.0621
11515TIP3    H255961   5.489   4.561  12.224  1.2016 -2.2594  0.0486
11516TIP3   OH255962   3.733   4.844   2.106  0.1525 -0.0468 -0.0889
11516TIP3    H155963   3.715   4.755   2.076  0.0644  0.9916 -3.5354
11516TIP3    H255964   3.677   4.900   2.051  1.6730  2.2354  0.5424
11517TIP3   OH255965   6.229   4.359   5.130 -0.2014 -0.1561 -0.1850
11517TIP3    H155966   6.192   4.420   5.066  0.5868  0.6531  0.1116
11517TIP3    H255967   6.273   4.415   5.193  0.1488 -1.0207  0.3469
11518TIP3   OH255968   0.386   2.632  12.197  0.0652  0.3465 -0.3934
11518TIP3    H155969   0.304   2.584  12.205  0.0876  0.3141 -0.3560
11518TIP3    H255970   0.437   2.582  12.133  0.0342  0.3971 -0.4570
11519TIP3   OH255971   1.345   3.849   4.446 -0.1853  0.3514 -0.3068
11519TIP3    H155972   1.429   3.806   4.428 -1.7267 -3.4357  0.6506
11519TIP3    H255973   1.341   3.856   4.541 -1.7791 -1.5593 -0.1761
11520TIP3   OH255974   1.597   6.631  12.630  0.8081  0.5946 -0.4933
11520TIP3    H155975   1.655   6.707  12.630 -0.4023  1.5656  0.4920
11520TIP3    H255976   1.519   6.661  12.583 -0.8826  1.0011  2.3461
11521TIP3   OH255977   0.737   2.863  11.920 -0.2941 -0.2482 -0.5451
11521TIP3    H155978   0.678   2.805  11.873 -1.7799  1.1656 -0.5168
11521TIP3    H255979   0.684   2.898  11.992  0.6638  0.8665 -0.3504
11522TIP3   OH255980   0.039   4.048  12.603 -0.1869 -0.0328 -0.4093
11522TIP3    H155981  -0.051   4.042  12.571 -0.9204 -0.0631  1.5174
11522TIP3    H255982   0.062   4.140  12.596 -0.0942 -0.1377 -1.5717
11523TIP3   OH255983   2.750   6.241   0.400  0.3215 -0.0397 -0.0036
11523TIP3    H155984   2.724   6.313   0.457  0.1856 -0.1659  0.0954
11523TIP3    H255985   2.675   6.227   0.342  0.2628 -0.2433  0.1205
11524TIP3   OH255986   1.147   0.299  12.438  0.1389 -0.1960  0.0894
11524TIP3    H155987   1.145   0.227  12.375 -1.4054  2.2639 -2.9590
11524TIP3    H255988   1.057   0.307  12.468  0.0781  1.0045 -0.3556
11525TIP3   OH255989   4.236   3.688  16.245  0.1642  0.1547 -0.2154
11525TIP3    H155990   4.154   3.640  16.240  1.0643 -1.5616  0.4508
11525TIP3    H255991   4.231   3.753  16.176 -1.6550 -0.0520 -0.3156
11526TIP3   OH255992   1.611   1.268   1.090 -0.1780  0.7347 -0.3059
11526TIP3    H155993   1.651   1.218   1.160 -0.5703 -0.0514 -0.6296
11526TIP3    H255994   1.666   1.252   1.014 -1.5027 -1.0130 -0.9582
11527TIP3   OH255995   1.576   4.570   6.029 -0.6562 -0.0383  1.0429
11527TIP3    H155996   1.535   4.643   6.075 -1.2132  0.0223  0.4666
11527TIP3    H255997   1.635   4.531   6.093 -1.8838 -0.3537  2.0293
11528TIP3   OH255998   0.719   1.150  13.497 -0.6523 -0.2708  0.1629
11528TIP3    H155999   0.702   1.233  13.452 -1.3185 -0.2474  0.4339
11528TIP3    H256000   0.766   1.097  13.433  0.3327  0.5302  0.1995
11529TIP3   OH256001   1.870   4.858  14.859 -0.2344 -0.1250 -0.0032
11529TIP3    H156002   1.919   4.910  14.923 -0.7751  2.0732 -1.2713
11529TIP3    H256003   1.928   4.785  14.839  0.8335  0.2774  1.4265
11530TIP3   OH256004   1.695   4.544  15.616  0.2879 -0.2232 -0.6575
11530TIP3    H156005   1.737   4.604  15.554 -0.2848 -0.6374 -1.4811
11530TIP3    H256006   1.664   4.600  15.687  0.1143  0.4066 -1.2172
11531TIP3   OH256007   2.988   6.741   5.839 -0.2662  0.2739 -0.0558
11531TIP3    H156008   2.940   6.800   5.897 -0.4776 -0.9446  1.0454
11531TIP3    H256009   3.079   6.752   5.864 -0.4285 -0.8856  1.1673
11532TIP3   OH256010   1.961   6.106   3.176  0.1995 -0.1006  0.0761
11532TIP3    H156011   2.049   6.144   3.178  0.6860 -1.1586  1.8851
11532TIP3    H256012   1.975   6.015   3.149 -0.5838  0.1853 -1.3741
11533TIP3   OH256013   6.348   5.175   2.114 -0.1270  0.1174  0.1155
11533TIP3    H156014   6.277   5.114   2.098 -0.7266  0.1663  2.2736
11533TIP3    H256015   6.334   5.205   2.204  0.9250  2.3907 -0.4016
11534TIP3   OH256016   3.962   3.528   3.827 -0.0192 -0.1126 -0.1158
11534TIP3    H156017   4.052   3.558   3.815 -0.4530  1.4137  0.1546
11534TIP3    H256018   3.929   3.514   3.738  0.0721  0.7310 -0.2990
11535TIP3   OH256019   6.254   0.979   0.172 -0.6221  0.2773  0.1336
11535TIP3    H156020   6.291   0.910   0.117  1.3819  0.2882  1.3558
11535TIP3    H256021   6.210   1.038   0.110 -1.2486 -1.3692 -1.0635
11536TIP3   OH256022   0.020   2.043   1.915  0.0066  0.0081  0.4344
11536TIP3    H156023   0.037   1.991   1.994 -2.7915 -2.3087 -0.3136
11536TIP3    H256024   0.061   1.994   1.844 -0.4382  0.2207  0.0247
11537TIP3   OH256025   5.579   2.763   6.475  0.0235 -0.3934 -0.3234
11537TIP3    H156026   5.516   2.691   6.488 -1.0466  0.3664 -1.1207
11537TIP3    H256027   5.561   2.795   6.386  1.7397 -0.3231 -0.6782
11538TIP3   OH256028   4.445   2.883   0.844 -0.2238 -0.5862 -0.6569
11538TIP3    H156029   4.365   2.907   0.891  0.1623 -0.5992  0.0289
11538TIP3    H256030   4.415   2.829   0.771 -0.7065 -2.2996  0.7447
11539TIP3   OH256031   6.617   1.127   3.425 -0.3476  0.2360 -0.1881
11539TIP3    H156032   6.528   1.111   3.457 -0.2242  0.9616  0.5320
11539TIP3    H256033   6.647   1.041   3.397 -0.4968 -0.4320  1.5756
11540TIP3   OH256034   3.410   1.380  16.846  0.1350  0.0795 -0.3332
11540TIP3    H156035   3.443   1.368  16.935 -2.1595 -0.1701  0.5696
11540TIP3    H256036   3.321   1.344  16.849 -0.2055  0.5877 -2.5802
11541TIP3   OH256037   0.884   2.901   2.810 -0.0570 -0.0048  0.1526
11541TIP3    H156038   0.975   2.884   2.835 -0.7844 -2.2628  1.5550
11541TIP3    H256039   0.891   2.963   2.737  2.6398 -0.8393 -0.4423
11542TIP3   OH256040   5.703   6.471  12.641 -0.1895 -0.4182 -0.3266
11542TIP3    H156041   5.637   6.436  12.700  0.1702 -0.1455  0.2495
11542TIP3    H256042   5.725   6.557  12.679  1.8208 -1.2660  0.5513
11543TIP3   OH256043   4.454   1.830  15.158  0.2497 -0.4721  0.3486
11543TIP3    H156044   4.470   1.813  15.251  0.6855 -1.4638  0.1059
11543TIP3    H256045   4.492   1.917  15.143 -0.9427  0.2452  1.3623
11544TIP3   OH256046   2.770   3.183   2.067  0.0751 -0.4112 -0.4373
11544TIP3    H156047   2.773   3.113   2.132 -1.1302  0.4096  0.5482
11544TIP3    H256048   2.783   3.263   2.116 -0.4073  0.1955 -1.2639
11545TIP3   OH256049   1.335   2.452   3.648  0.0247  0.1459 -0.1279
11545TIP3    H156050   1.318   2.542   3.619 -0.1842  0.1229 -0.0809
11545TIP3    H256051   1.367   2.407   3.570  2.1618  0.7810  0.3191
11546TIP3   OH256052   1.847   1.398   6.240 -0.0066 -0.3721 -0.2549
11546TIP3    H156053   1.838   1.458   6.314 -0.5406 -0.1392 -0.5089
11546TIP3    H256054   1.797   1.320   6.266  1.3217 -1.0385  0.4076
11547TIP3   OH256055   3.043   2.261  11.289 -0.1116 -0.1378 -0.0007
11547TIP3    H156056   3.033   2.197  11.219  1.6339 -1.6659  1.0294
11547TIP3    H256057   2.976   2.238  11.353 -0.7685  0.3418 -0.5074
11548TIP3   OH256058   1.840   5.363   6.812 -0.4797 -0.0754 -0.3569
11548TIP3    H156059   1.882   5.407   6.739  1.0149  0.1243  0.5831
11548TIP3    H256060   1.746   5.374   6.796 -0.1777  2.5225 -0.7108
11549TIP3   OH256061   4.968   4.754   4.812 -0.0655  0.1110 -0.0786
11549TIP3    H156062   4.881   4.787   4.832  0.5330  1.9477 -0.3696
11549TIP3    H256063   4.957   4.707   4.729 -0.4240  2.0369 -1.1610
11550TIP3   OH256064   4.933   5.024   1.050 -0.0299 -0.1021  0.1559
11550TIP3    H156065   4.889   5.107   1.067  0.6077  1.0914 -3.1762
11550TIP3    H256066   5.012   5.049   1.001 -0.1922 -2.6788 -1.5949
11551TIP3   OH256067   1.080   3.298  16.886  0.2269 -0.1368  0.4507
11551TIP3    H156068   1.010   3.358  16.860 -0.0652 -0.5203  0.3319
11551TIP3    H256069   1.107   3.255  16.805 -0.6945 -1.3443  0.7463
11552TIP3   OH256070   4.993   0.571   5.630  0.0949 -0.3195 -0.2634
11552TIP3    H156071   4.995   0.660   5.666 -3.3460  0.1116 -0.7478
11552TIP3    H256072   5.072   0.564   5.577 -0.3097  3.0862 -1.5445
11553TIP3   OH256073   1.485   0.207   1.724  0.0926 -0.4086  0.1622
11553TIP3    H156074   1.578   0.219   1.706  0.3284 -0.9325  0.9627
11553TIP3    H256075   1.473   0.245   1.811 -0.3431 -0.7786  0.2656
11554TIP3   OH256076   3.666   5.894   3.707 -0.3471  0.0160  0.3155
11554TIP3    H156077   3.709   5.811   3.688  2.3748  1.6657 -1.4690
11554TIP3    H256078   3.635   5.925   3.622 -4.3682 -0.5697  1.3792
11555TIP3   OH256079   1.667   5.707  17.081  0.5426 -0.4107 -0.0767
11555TIP3    H156080   1.718   5.646  17.028  0.2842 -1.1188  0.4761
11555TIP3    H256081   1.688   5.684  17.171  0.4670  0.3442  0.1365
11556TIP3   OH256082   5.464   1.063   2.285  0.0287  0.2637 -0.3909
11556TIP3    H156083   5.399   1.001   2.320  0.8379 -0.0489  0.6172
11556TIP3    H256084   5.522   1.009   2.232  0.1956  0.3181 -0.2642
11557TIP3   OH256085   0.075   1.087   6.114  0.2985  0.2334 -0.1266
11557TIP3    H156086   0.078   1.176   6.149 -0.8897  0.9292 -1.6711
11557TIP3    H256087   0.148   1.043   6.155  0.6001  1.7748  1.0899
11558TIP3   OH256088   4.026   4.990  11.744  0.0378  0.5979  0.4141
11558TIP3    H156089   3.940   5.024  11.720  0.0339  0.6871  0.5560
11558TIP3    H256090   4.045   5.029  11.829  0.8828  1.7814 -0.2809
11559TIP3   OH256091   6.266   0.919   5.795 -0.0413  0.0961 -0.1917
11559TIP3    H156092   6.238   0.987   5.734 -3.3697 -0.7266  0.2109
11559TIP3    H256093   6.267   0.962   5.880  1.1671  0.3809 -0.3227
11560TIP3   OH256094   5.484   4.780  10.956  0.4097 -0.4996  0.1162
11560TIP3    H156095   5.405   4.726  10.956 -0.3207  0.5149  0.7746
11560TIP3    H256096   5.555   4.720  10.978  0.0312 -1.6735 -1.6096
11561TIP3   OH256097   4.957   1.641   4.590  0.1130  0.1479 -0.3093
11561TIP3    H156098   4.961   1.719   4.646  1.3489  0.7945 -1.2429
11561TIP3    H256099   5.044   1.635   4.551 -0.0090 -1.6508 -0.3571
11562TIP3   OH256100   5.502   4.691   3.549  0.2004 -0.3158  0.4953
11562TIP3    H156101   5.462   4.604   3.539  0.0439 -0.3473  1.3287
11562TIP3    H256102   5.483   4.716   3.639 -0.4054  0.9211  0.0399
11563TIP3   OH256103   4.214   5.248   2.515 -0.3059  0.4072 -0.2241
11563TIP3    H156104   4.217   5.166   2.563 -1.4861  1.0601  1.0228
11563TIP3    H256105   4.304   5.261   2.484 -0.0145 -1.1188 -0.0756
11564TIP3   OH256106   1.421   0.553  13.982 -0.6537  0.1309  0.1694
11564TIP3    H156107   1.498   0.546  14.039 -0.6002  0.1359  0.0971
11564TIP3    H256108   1.456   0.574  13.896 -0.7864  1.0446  0.3254
11565TIP3   OH256109   6.229   6.203  16.347 -0.2939  0.3011 -0.3414
11565TIP3    H156110   6.263   6.177  16.261  0.4201 -0.5800  0.1789
11565TIP3    H256111   6.134   6.200  16.338 -0.2279 -0.9791 -0.7717
11566TIP3   OH256112   0.241   5.810   2.580 -0.0993 -0.8095 -0.6341
11566TIP3    H156113   0.221   5.902   2.600  0.6269 -0.9044  0.6716
11566TIP3    H256114   0.318   5.815   2.522  0.1848 -0.5913 -0.2451
11567TIP3   OH256115   3.045   1.040  15.257 -0.4578 -0.0369  0.1064
11567TIP3    H156116   3.096   0.968  15.295 -1.3280 -1.8180 -1.8949
11567TIP3    H256117   2.979   0.997  15.203 -1.8148  2.2755 -0.2101
11568TIP3   OH256118   6.448   0.812  14.625 -0.1100 -0.4985 -0.2582
11568TIP3    H156119   6.447   0.898  14.668 -0.0196  0.4855 -2.0907
11568TIP3    H256120   6.502   0.757  14.682 -0.2225  0.6413  0.9920
11569TIP3   OH256121   2.651   0.550  11.172  0.6245 -0.0439  0.0228
11569TIP3    H156122   2.568   0.522  11.209  0.0883  1.7521  0.2573
11569TIP3    H256123   2.636   0.553  11.077  1.6513 -3.4910 -0.4123
11570TIP3   OH256124   5.536   1.632   6.241  0.1546 -0.0832  0.1103
11570TIP3    H156125   5.521   1.589   6.157  1.1711  1.0195 -0.6625
11570TIP3    H256126   5.466   1.599   6.297  0.2413 -1.8568 -0.7645
11571TIP3   OH256127   4.489   5.857   2.753  0.2616 -0.0954  0.3313
11571TIP3    H156128   4.505   5.948   2.778  1.6982 -0.7088  1.7766
11571TIP3    H256129   4.449   5.863   2.666  0.6205  1.8964  0.2610
11572TIP3   OH256130   1.514   2.273  16.079 -0.2595 -0.5474  0.4147
11572TIP3    H156131   1.482   2.345  16.025  0.4679 -1.1406 -0.8485
11572TIP3    H256132   1.609   2.274  16.067 -0.2411 -1.7160  0.3542
11573TIP3   OH256133   2.502   2.845  12.146 -0.0885  0.4775  0.1215
11573TIP3    H156134   2.589   2.884  12.145  0.2094 -0.1627 -0.7326
11573TIP3    H256135   2.443   2.914  12.116  0.7888 -0.3815 -4.3152
11574TIP3   OH256136   2.105   1.111  14.617  0.3590 -0.0935  0.6574
11574TIP3    H156137   2.141   1.025  14.593  0.2587  0.2012 -0.6551
11574TIP3    H256138   2.072   1.146  14.534 -0.3331  0.8700  1.3257
11575TIP3   OH256139   4.040   4.011   0.726 -0.2685  0.5870  0.2414
11575TIP3    H156140   3.951   4.047   0.723  0.0602  1.4430  0.4908
11575TIP3    H256141   4.096   4.088   0.732  0.3782 -0.0090  2.7252
11576TIP3   OH256142   1.216   1.210  11.904 -0.0333 -0.1245 -0.0419
11576TIP3    H156143   1.223   1.126  11.858  1.7526  0.7748 -1.5380
11576TIP3    H256144   1.290   1.262  11.872 -0.7512  1.8429  1.2619
11577TIP3   OH256145   1.084   0.681  11.926 -0.1345 -0.2919 -0.3901
11577TIP3    H156146   1.159   0.731  11.892 -0.2728 -0.0830 -0.3852
11577TIP3    H256147   1.057   0.626  11.852 -1.4472  1.3143 -1.1563
11578TIP3   OH256148   2.354   2.196  15.377 -0.3784  0.6063  0.4185
11578TIP3    H156149   2.292   2.144  15.428 -0.8554 -0.8617 -1.5101
11578TIP3    H256150   2.350   2.158  15.289  2.1162  1.4775 -0.1633
11579TIP3   OH256151   1.919   3.316  12.113  0.2812  0.1235  0.2218
11579TIP3    H156152   1.969   3.329  12.032  0.6023  0.6078  0.4953
11579TIP3    H256153   1.838   3.364  12.099  0.5619  0.6546  0.3906
11580TIP3   OH256154   5.943   2.998   5.553 -0.5144 -0.6490  0.1376
11580TIP3    H156155   5.852   2.971   5.540 -1.1474  1.1637  0.5288
11580TIP3    H256156   5.986   2.977   5.470 -1.2288 -1.6898  0.0075
11581TIP3   OH256157   3.576   5.597  15.236  0.1326  0.2647  0.7518
11581TIP3    H156158   3.559   5.677  15.185  1.8576 -0.0989 -0.4847
11581TIP3    H256159   3.491   5.554  15.242 -0.0756 -0.0690 -2.6272
11582TIP3   OH256160   2.626   3.689   6.505 -0.9634  0.5072  0.3836
11582TIP3    H156161   2.547   3.718   6.460 -0.9599  1.1272  0.7587
11582TIP3    H256162   2.665   3.625   6.447 -1.1479  1.0300 -0.3315
11583TIP3   OH256163   4.603   2.089  12.604  0.0526 -0.1604  0.4073
11583TIP3    H156164   4.564   2.027  12.541  0.5956 -0.7764  0.6681
11583TIP3    H256165   4.640   2.158  12.549  1.4579 -1.2112 -0.0495
11584TIP3   OH256166   0.038   0.771  16.960 -0.0166 -0.2918  0.2434
11584TIP3    H156167   0.040   0.688  16.913 -0.8999 -0.7952  1.0494
11584TIP3    H256168   0.032   0.838  16.891  0.6237 -0.8826 -0.4092
11585TIP3   OH256169   5.646   2.961  13.841 -0.3956 -0.5352  0.6711
11585TIP3    H156170   5.708   2.936  13.772 -0.1211 -1.1124  1.1135
11585TIP3    H256171   5.602   3.039  13.807  1.0338  0.2877  0.6185
11586TIP3   OH256172   3.877   2.222   4.855  0.1729  0.4945  0.5659
11586TIP3    H156173   3.833   2.304   4.831 -0.3013  0.2590  0.6169
11586TIP3    H256174   3.812   2.154   4.835  0.6325  0.1156  0.3411
11587TIP3   OH256175   1.683   4.710   2.786  0.0223  0.3375  0.0009
11587TIP3    H156176   1.704   4.800   2.761 -0.8724  0.4891 -0.2534
11587TIP3    H256177   1.768   4.665   2.790  0.5945  1.4443  1.1770
11588TIP3   OH256178   2.805   3.225   0.364 -0.3232 -0.0291  0.0104
11588TIP3    H156179   2.759   3.279   0.300  0.8585  1.7109  0.5407
11588TIP3    H256180   2.742   3.158   0.390 -1.7064  0.8272 -1.0184
11589TIP3   OH256181   2.186   3.728  11.009 -0.1440 -0.2004 -0.5894
11589TIP3    H156182   2.222   3.811  11.038 -0.3365 -0.3511  0.0870
11589TIP3    H256183   2.099   3.750  10.976 -0.3651 -0.1930 -0.0117
11590TIP3   OH256184   1.451   0.766  15.918  0.3727 -0.5078 -0.4431
11590TIP3    H156185   1.509   0.799  15.987  1.0207 -0.0702 -1.1814
11590TIP3    H256186   1.505   0.767  15.839 -0.4004 -0.8722 -0.9858
11591TIP3   OH256187   1.047   5.307   2.319 -0.1153 -0.3908 -0.3910
11591TIP3    H156188   1.042   5.395   2.284  1.2831  0.7900  2.0832
11591TIP3    H256189   1.122   5.267   2.276 -0.6740 -0.3709 -1.4183
11592TIP3   OH256190   4.180   5.735  14.020 -0.4578 -0.5955  0.1082
11592TIP3    H156191   4.101   5.682  14.012  0.8634 -2.8231  0.9121
11592TIP3    H256192   4.210   5.718  14.109  1.6057 -0.8356 -0.5940
11593TIP3   OH256193   3.857   2.194   4.574  0.5934  0.2924 -0.4268
11593TIP3    H156194   3.889   2.279   4.543 -0.3614  0.9472  0.3406
11593TIP3    H256195   3.786   2.215   4.634  1.4353 -0.9851  1.1054
11594TIP3   OH256196   1.055   1.921   1.642 -0.4328  0.0332  0.7917
11594TIP3    H156197   0.965   1.901   1.669 -0.6516 -0.1147 -0.0151
11594TIP3    H256198   1.070   1.865   1.565 -0.1214  1.0302  0.1013
11595TIP3   OH256199   3.447   1.769   2.358  0.2337 -0.3876 -0.2494
11595TIP3    H156200   3.354   1.750   2.373  0.1977  0.2247  0.3647
11595TIP3    H256201   3.458   1.859   2.389  1.2426 -0.7931  0.6405
11596TIP3   OH256202   6.328   4.730  14.365 -0.3609 -0.0693 -0.5111
11596TIP3    H156203   6.245   4.717  14.318 -1.7983  0.6891  1.6564
11596TIP3    H256204   6.335   4.653  14.421  0.8692 -0.5288 -1.2568
11597TIP3   OH256205   5.150   3.996  13.133  0.0136 -0.3548 -0.0604
11597TIP3    H156206   5.217   3.928  13.126  1.0515  0.2220  2.9177
11597TIP3    H256207   5.099   3.973  13.211 -0.3790  1.5902  0.3170
11598TIP3   OH256208   1.235   6.119   5.670  0.0474  0.0536  0.3122
11598TIP3    H156209   1.225   6.175   5.594 -1.0232 -0.4197  0.0907
11598TIP3    H256210   1.147   6.087   5.689  0.1936  0.5793  2.0813
11599TIP3   OH256211   6.459   1.711   1.138 -1.1093 -0.5062 -0.3461
11599TIP3    H156212   6.545   1.672   1.156 -1.2985 -0.7466  0.0561
11599TIP3    H256213   6.419   1.651   1.076 -1.4161 -0.9855  0.3029
11600TIP3   OH256214   3.210   3.635   5.315 -0.7558 -0.8713  0.2643
11600TIP3    H156215   3.247   3.554   5.278  0.2691 -1.2510  1.9883
11600TIP3    H256216   3.276   3.664   5.378 -1.6573  0.6700  0.5343
11601TIP3   OH256217   4.073   5.630  12.617  0.1534 -0.4293  0.4442
11601TIP3    H156218   4.083   5.548  12.666 -1.1566  0.5233  2.4107
11601TIP3    H256219   3.982   5.656  12.633  0.8269  1.9190  0.6852
11602TIP3   OH256220   4.113   6.319  16.841  0.3642 -0.2594 -0.8279
11602TIP3    H156221   4.124   6.392  16.902  0.5220 -0.9506 -0.0064
11602TIP3    H256222   4.192   6.321  16.787  1.8396 -1.5695  1.1270
11603TIP3   OH256223   0.240   4.043   5.500 -0.4637 -0.1308  0.0464
11603TIP3    H156224   0.214   3.985   5.428  0.2839  0.0243 -0.3611
11603TIP3    H256225   0.319   4.003   5.536  0.7284  1.1757 -0.9645
11604TIP3   OH256226   5.881   6.722   1.971  0.3195 -0.3667  0.3419
11604TIP3    H156227   5.795   6.681   1.982  0.8987 -1.3674  1.3007
11604TIP3    H256228   5.876   6.803   2.021 -0.6160  0.4687 -1.0216
11605TIP3   OH256229   6.002   6.442   2.673 -0.1550 -0.2278 -0.2602
11605TIP3    H156230   6.078   6.493   2.645  0.3894  0.4703  2.2080
11605TIP3    H256231   6.039   6.364   2.715 -0.8585 -0.6404 -0.3866
11606TIP3   OH256232   0.558   1.957  15.789 -0.1789  0.3950 -0.0364
11606TIP3    H156233   0.505   2.031  15.821  1.0467  2.1125 -1.7008
11606TIP3    H256234   0.516   1.932  15.707  0.6846  0.7737 -0.6091
11607TIP3   OH256235   3.943   2.160   3.431 -0.5930 -0.2762 -0.1030
11607TIP3    H156236   4.034   2.189   3.423 -0.7824  0.4482  0.2492
11607TIP3    H256237   3.947   2.065   3.426 -0.0059 -0.2005 -1.9517
11608TIP3   OH256238   3.673   5.523  15.499 -0.7871 -0.2541 -0.7828
11608TIP3    H156239   3.663   5.577  15.420 -0.1954  0.0103 -0.6797
11608TIP3    H256240   3.591   5.536  15.547 -0.1110  1.7314 -0.0499
11609TIP3   OH256241   1.200   5.667  14.231  0.0062 -0.3352  0.5041
11609TIP3    H156242   1.189   5.674  14.326 -1.3935 -1.1688  0.4427
11609TIP3    H256243   1.120   5.706  14.195  0.6685  0.2685 -0.3468
11610TIP3   OH256244   0.084   6.230  17.058  0.5722 -0.2949  0.0456
11610TIP3    H156245   0.061   6.239  17.150 -0.7455  2.4508 -0.4559
11610TIP3    H256246   0.031   6.156  17.027  1.3224 -1.4901  1.5261
11611TIP3   OH256247   6.617   4.196   6.123 -0.0373 -0.0661  0.0726
11611TIP3    H156248   6.579   4.177   6.209  0.3893  0.8774  0.4793
11611TIP3    H256249   6.613   4.291   6.115 -0.5224 -0.1762 -1.1739
11612TIP3   OH256250   3.045   3.037   5.228 -0.3650 -0.0031 -0.1503
11612TIP3    H156251   3.132   3.071   5.247 -1.1346  2.2583 -0.3955
11612TIP3    H256252   3.009   3.097   5.162 -1.8549 -1.2932 -0.5920
11613TIP3   OH256253   4.539   1.831   6.382 -0.3295  0.1789 -0.4761
11613TIP3    H156254   4.615   1.889   6.375 -0.2316  0.5381  2.4143
11613TIP3    H256255   4.471   1.885   6.421 -1.2416 -0.8602 -0.5700
11614TIP3   OH256256   5.320   0.036   4.863  0.5129 -0.7432 -0.8472
11614TIP3    H156257   5.233  -0.004   4.854  0.1377 -0.1653 -0.0019
11614TIP3    H256258   5.357   0.032   4.775 -1.0603  0.5163 -1.6287
11615TIP3   OH256259   4.633   5.486   2.709 -0.9526  0.3889 -0.1478
11615TIP3    H156260   4.561   5.453   2.656 -0.7463  1.1002 -0.9072
11615TIP3    H256261   4.642   5.424   2.781 -1.4276 -0.4516 -0.8052
11616TIP3   OH256262   5.028   3.991  11.465  0.4670 -0.0477  0.4850
11616TIP3    H156263   4.967   4.034  11.404 -0.1596  0.5452  1.5000
11616TIP3    H256264   4.976   3.973  11.542  1.7808  1.3756  1.7874
11617TIP3   OH256265   2.129   3.403   0.742 -0.3630  0.4250 -0.9476
11617TIP3    H156266   2.068   3.443   0.680 -4.3099 -0.4249  1.9729
11617TIP3    H256267   2.156   3.475   0.798 -1.6010  0.3079 -0.1484
11618TIP3   OH256268   3.456   0.700  14.892 -0.3175  0.3460  0.2065
11618TIP3    H156269   3.502   0.773  14.850  0.2082  0.6237  1.2398
11618TIP3    H256270   3.420   0.649  14.819  1.8660 -0.0301 -0.6764
11619TIP3   OH256271   5.151   6.429  11.713  0.8423  0.0909 -0.4766
11619TIP3    H156272   5.145   6.525  11.714  2.1029  0.3920 -4.5377
11619TIP3    H256273   5.094   6.402  11.641  0.4615 -2.3072  0.6080
11620TIP3   OH256274   4.674   2.695  13.663 -0.5134  0.3404  0.0655
11620TIP3    H156275   4.675   2.609  13.705  0.8361  0.8859  1.2544
11620TIP3    H256276   4.747   2.692  13.602 -0.2121  0.7511  0.3964
11621TIP3   OH256277   1.136   5.065   3.063  0.3190  0.0292  0.1209
11621TIP3    H156278   1.200   4.997   3.086  0.1982 -0.2189 -0.2613
11621TIP3    H256279   1.185   5.126   3.007  0.2585 -0.0918 -0.0659
11622TIP3   OH256280   3.253   4.742  16.554  0.1761  0.0361 -0.2669
11622TIP3    H156281   3.252   4.646  16.557  1.2457 -0.0376 -1.4685
11622TIP3    H256282   3.331   4.766  16.604 -0.2702  0.3059  0.3057
11623TIP3   OH256283   3.168   6.120   4.410  0.2568 -0.0783  0.0219
11623TIP3    H156284   3.206   6.035   4.388  0.4837  0.3023 -1.1181
11623TIP3    H256285   3.096   6.100   4.469 -0.3997 -1.1623 -1.1280
11624TIP3   OH256286   4.184   6.528   0.981 -0.0111  0.6449  0.1577
11624TIP3    H156287   4.198   6.435   0.964  0.5612  0.7849 -0.1750
11624TIP3    H256288   4.091   6.541   0.964  0.0153  0.2401 -0.3517
11625TIP3   OH256289   3.344   4.885  14.134 -0.1071  0.8813  0.6869
11625TIP3    H156290   3.397   4.943  14.079 -2.0762 -0.0330 -2.4603
11625TIP3    H256291   3.327   4.936  14.213  2.4582  2.5138  0.3143
11626TIP3   OH256292   3.017   4.174   0.579 -0.0203 -0.2740  0.6721
11626TIP3    H156293   2.928   4.207   0.591 -0.2373 -1.2275  1.8382
11626TIP3    H256294   3.029   4.172   0.484 -0.2559  2.3857  0.5311
11627TIP3   OH256295   5.636   1.607   2.782  0.1577 -0.2621 -0.0555
11627TIP3    H156296   5.644   1.665   2.857  1.8421  0.0551 -0.4333
11627TIP3    H256297   5.557   1.636   2.737 -0.9922 -0.5932  1.6707
11628TIP3   OH256298   3.623   4.980  11.401  0.2266 -0.1194  0.1254
11628TIP3    H156299   3.682   4.921  11.448  0.9132  1.8948  1.9860
11628TIP3    H256300   3.607   5.051  11.463 -0.3480  1.7843 -2.0713
11629TIP3   OH256301   4.015   6.057   3.235 -0.3460  0.1931 -0.4523
11629TIP3    H156302   3.938   6.061   3.178  1.6943 -0.9797 -3.4938
11629TIP3    H256303   4.017   6.143   3.277 -3.1253  0.3516 -0.4350
11630TIP3   OH256304   2.892   5.645  12.599 -0.1887  0.5447  0.5663
11630TIP3    H156305   2.896   5.557  12.637 -0.5781  0.8039  1.2303
11630TIP3    H256306   2.984   5.666  12.579 -0.0964 -0.0168  0.3894
11631TIP3   OH256307   0.628   4.368  16.033 -0.1166 -0.0702 -0.4274
11631TIP3    H156308   0.641   4.340  15.943  0.5962 -1.6364  0.1253
11631TIP3    H256309   0.538   4.340  16.054 -1.1936  2.4137 -1.3321
11632TIP3   OH256310   2.902   0.600   3.323  0.2218 -0.2556 -0.2083
11632TIP3    H156311   2.812   0.601   3.291  1.2550  1.4205 -3.4152
11632TIP3    H256312   2.906   0.672   3.386 -0.2049  1.1093 -1.6937
11633TIP3   OH256313   0.607   1.203   6.405  0.1053 -0.5376 -0.2563
11633TIP3    H156314   0.536   1.139   6.409 -0.3119 -0.0837 -0.3469
11633TIP3    H256315   0.575   1.271   6.346  0.1344  0.2596  0.6187
11634TIP3   OH256316   3.677   0.105   1.635 -0.8375 -0.2273 -0.0025
11634TIP3    H156317   3.623   0.077   1.709 -3.7396  0.4486 -1.7078
11634TIP3    H256318   3.637   0.062   1.559  0.7076  0.7677 -1.4426
11635TIP3   OH256319   5.960   4.542  13.095 -0.4403  0.2323  0.1603
11635TIP3    H156320   5.960   4.561  13.189  0.4972 -1.2619  0.5049
11635TIP3    H256321   6.039   4.584  13.062 -1.8361  2.5691 -0.4282
11636TIP3   OH256322   1.648   3.592   6.168 -0.2202 -0.0578  0.0388
11636TIP3    H156323   1.582   3.557   6.229 -1.2027  3.5441  1.3624
11636TIP3    H256324   1.724   3.609   6.223 -0.1954  0.8431 -0.2541
11637TIP3   OH256325   3.093   0.709  10.922  0.1061  0.1667  0.1190
11637TIP3    H156326   3.009   0.683  10.958 -0.8369  1.6823 -0.8977
11637TIP3    H256327   3.102   0.802  10.946  0.0877  0.8419 -2.2586
11638TIP3   OH256328   0.624   5.839  11.436 -0.1951  0.3772  0.2650
11638TIP3    H156329   0.570   5.916  11.453  0.4573  0.5499  1.6368
11638TIP3    H256330   0.565   5.765  11.450 -0.9984  0.5902 -1.6733
11639TIP3   OH256331   5.370   3.484   5.583  0.4769 -0.1607  0.6624
11639TIP3    H156332   5.301   3.420   5.598  0.3969 -0.4804 -0.9253
11639TIP3    H256333   5.344   3.560   5.637 -2.0764  0.3906 -1.1747
11640TIP3   OH256334   3.468   3.180   4.128 -0.3503  0.1876  0.0150
11640TIP3    H156335   3.415   3.260   4.121 -0.0418  0.4588  0.7206
11640TIP3    H256336   3.537   3.202   4.190 -0.1117 -0.5520  0.0237
11641TIP3   OH256337   5.328   2.471  15.531 -0.5822  0.1960 -0.2075
11641TIP3    H156338   5.417   2.482  15.564 -0.9820  1.4300  0.5380
11641TIP3    H256339   5.307   2.379  15.548  0.1806  0.1522  0.5722
11642TIP3   OH256340   3.977   2.711  15.018  0.1647 -0.7097 -0.0824
11642TIP3    H156341   3.984   2.630  15.069  0.0807 -1.5182 -1.3022
11642TIP3    H256342   3.922   2.688  14.943  2.4540 -0.3865 -2.0298
11643TIP3   OH256343   5.116   0.499  14.315 -0.9982 -0.0606  0.4686
11643TIP3    H156344   5.138   0.507  14.223 -4.2227 -0.9757 -0.5099
11643TIP3    H256345   5.153   0.415  14.342  1.1738  0.8463  0.4833
11644TIP3   OH256346   4.528   6.535   3.500 -0.0200 -0.0800 -0.2880
11644TIP3    H156347   4.445   6.511   3.540  0.4883  0.0333  0.8829
11644TIP3    H256348   4.505   6.598   3.432 -0.7790  1.0899  0.9968
11645TIP3   OH256349   1.603   5.864  16.792  0.0700 -0.2381  0.2513
11645TIP3    H156350   1.635   5.850  16.881  0.3417 -2.3947 -0.1242
11645TIP3    H256351   1.508   5.856  16.799  0.0081  0.7064  0.5161
11646TIP3   OH256352   4.922   5.558   3.260  0.1198 -0.3861  0.1388
11646TIP3    H156353   4.979   5.580   3.334  1.2930 -1.4001 -0.4278
11646TIP3    H256354   4.856   5.628   3.259  0.1792 -0.2453  2.0110
11647TIP3   OH256355   6.082   1.073   1.185 -0.1812 -0.0011  0.1355
11647TIP3    H156356   6.171   1.078   1.149 -0.7831 -0.1122 -1.4370
11647TIP3    H256357   6.078   0.987   1.227 -0.2979 -1.1043 -1.9974
11648TIP3   OH256358   3.474   0.338   3.531  0.2510  0.7779  0.2439
11648TIP3    H156359   3.561   0.364   3.559  0.3588  1.5267 -0.7314
11648TIP3    H256360   3.453   0.396   3.458 -0.8573  0.2763  0.1310
11649TIP3   OH256361   5.853   4.518  12.019  0.0969 -0.0743 -0.3346
11649TIP3    H156362   5.927   4.578  12.029  0.4855  0.0687 -3.0989
11649TIP3    H256363   5.776   4.575  12.015  0.2948  0.1452 -1.3298
11650TIP3   OH256364   3.775   2.914  15.760 -0.0519 -0.0180 -0.0735
11650TIP3    H156365   3.792   2.885  15.850  0.1616  1.0039  0.2307
11650TIP3    H256366   3.756   3.008  15.769 -0.8120 -0.0734 -1.0039
11651TIP3   OH256367   1.635   0.843   4.299  0.0205 -0.2618  0.4581
11651TIP3    H156368   1.595   0.873   4.218 -0.1323 -1.5522  0.0343
11651TIP3    H256369   1.604   0.905   4.366 -0.2238  0.5340 -0.3720
11652TIP3   OH256370   1.380   2.659  12.187  0.2178  0.2335 -0.1016
11652TIP3    H156371   1.304   2.714  12.203 -0.7358 -1.4369  1.4992
11652TIP3    H256372   1.454   2.709  12.222 -0.7312  0.2123  2.0625
11653TIP3   OH256373   2.460   6.445  11.780  0.1457 -0.2167 -0.1549
11653TIP3    H156374   2.552   6.469  11.778 -0.0906  0.7082 -0.4868
11653TIP3    H256375   2.437   6.428  11.689  0.0331 -0.6677 -0.0487
11654TIP3   OH256376   5.144   1.831   3.230 -0.0219  0.4622  0.7953
11654TIP3    H156377   5.212   1.795   3.287 -1.4702 -0.0300  2.2727
11654TIP3    H256378   5.142   1.924   3.252  2.0534  1.0978 -1.2942
11655TIP3   OH256379   1.934   0.498  15.486 -0.5908  0.0081  0.2436
11655TIP3    H156380   1.850   0.475  15.447 -0.8812 -0.3648  1.0586
11655TIP3    H256381   1.993   0.508  15.412 -1.8062  2.3163 -0.4871
11656TIP3   OH256382   4.666   6.475   0.167 -0.0899 -0.6929  0.9306
11656TIP3    H156383   4.584   6.521   0.182  1.1336  1.4991  1.2682
11656TIP3    H256384   4.680   6.423   0.246 -0.5048 -0.0386  1.4426
11657TIP3   OH256385   2.293   2.987  16.975 -0.0129  0.4514  0.2164
11657TIP3    H156386   2.375   2.995  16.926 -0.0818 -0.8532 -0.1392
11657TIP3    H256387   2.229   3.037  16.924 -0.0286 -0.7001 -0.9420
11658TIP3   OH256388   6.768   0.914  12.735  0.0729  0.0755  0.3249
11658TIP3    H156389   6.861   0.927  12.751 -0.0160  0.3091  0.6483
11658TIP3    H256390   6.734   0.880  12.817 -0.0876 -0.2170  0.1382
11659TIP3   OH256391   0.949   0.153   5.314  0.2752 -0.2105  0.1841
11659TIP3    H156392   0.928   0.139   5.406 -1.5077  0.0003 -0.1617
11659TIP3    H256393   0.874   0.201   5.279  1.3174  0.4831 -1.1845
11660TIP3   OH256394   1.051   4.900   1.273  0.4803 -0.2601  0.0841
11660TIP3    H156395   1.107   4.852   1.334  1.3122 -1.5409 -1.5730
11660TIP3    H256396   1.080   4.870   1.186 -1.8825  0.0642 -0.8960
11661TIP3   OH256397   4.953   5.803  16.683 -0.4114 -0.4053  0.3013
11661TIP3    H156398   5.030   5.765  16.725  0.8727  1.1883 -0.5211
11661TIP3    H256399   4.918   5.733  16.629  0.5967 -1.0825  0.5013
11662TIP3   OH256400   1.328   0.806   6.028 -0.2883 -0.2600  1.0665
11662TIP3    H156401   1.330   0.711   6.020  1.6031 -0.3397  1.9809
11662TIP3    H256402   1.412   0.835   5.994 -1.6536  1.3531 -1.3127
11663TIP3   OH256403   5.727   4.964  14.381  0.3848 -0.2347 -0.0843
11663TIP3    H156404   5.715   5.059  14.381  3.3225  0.2241  0.9553
11663TIP3    H256405   5.700   4.937  14.293  0.9607  1.7913 -0.9456
11664TIP3   OH256406   1.832   3.675  14.923 -0.1622  0.4395  0.3933
11664TIP3    H156407   1.749   3.682  14.971  0.3743 -0.0153  1.4149
11664TIP3    H256408   1.878   3.757  14.943 -1.1173  1.5776 -1.7147
11665TIP3   OH256409   3.385   3.980  15.221  0.0305  0.6886 -0.9477
11665TIP3    H156410   3.405   4.047  15.155 -1.4606  2.0779 -0.0539
11665TIP3    H256411   3.290   3.970  15.218  0.2248 -1.5830 -1.1855
11666TIP3   OH256412   0.482   4.890   2.830  0.2356  0.4597  0.1112
11666TIP3    H156413   0.542   4.863   2.899  0.2509  0.0223 -0.0643
11666TIP3    H256414   0.397   4.899   2.873  0.4914  1.4368  0.4313
11667TIP3   OH256415   2.234   1.190  15.973  0.4572  0.3247 -0.3739
11667TIP3    H156416   2.170   1.259  15.990  1.9088  1.4368  0.7707
11667TIP3    H256417   2.216   1.163  15.883  0.1859  2.5468 -1.0491
11668TIP3   OH256418   0.505   2.228   1.626 -0.1347  0.1393 -0.8116
11668TIP3    H156419   0.436   2.254   1.687  1.9260  0.6795  1.4234
11668TIP3    H256420   0.495   2.133   1.617  0.0954 -0.1032  1.1741
11669TIP3   OH256421   0.742   2.070   4.667  0.4414 -0.1423  0.1722
11669TIP3    H156422   0.795   2.145   4.639 -0.1488  0.0404 -0.4759
11669TIP3    H256423   0.678   2.108   4.727 -1.1980  0.2612 -1.7554
11670TIP3   OH256424   1.540   6.249   0.204  0.3726 -0.5571  0.0243
11670TIP3    H156425   1.572   6.280   0.288 -1.1785  0.1988  0.3703
11670TIP3    H256426   1.519   6.157   0.218 -0.8203 -0.1907  0.7834
11671TIP3   OH256427   6.185   1.875   2.127  0.3049 -0.2450 -0.0093
11671TIP3    H156428   6.101   1.916   2.105  0.3693  0.6039  1.2155
11671TIP3    H256429   6.190   1.880   2.223  1.9626  0.1703 -0.0833
11672TIP3   OH256430   2.791   1.792  11.767 -0.0998  0.3266  0.1212
11672TIP3    H156431   2.868   1.737  11.784 -0.1537  0.5997  1.3263
11672TIP3    H256432   2.729   1.734  11.723  0.4468 -0.1439 -0.0353
11673TIP3   OH256433   5.308   6.077  16.371  0.2319 -0.1466  0.3406
11673TIP3    H156434   5.331   6.161  16.412 -1.1224  0.4459 -0.0486
11673TIP3    H256435   5.228   6.050  16.416 -1.5135  0.6997 -2.0522
11674TIP3   OH256436   6.573   4.835   3.427 -0.1945  0.9510 -0.0331
11674TIP3    H156437   6.584   4.861   3.336 -0.6514  1.2103 -0.0183
11674TIP3    H256438   6.490   4.787   3.429  0.5430 -0.3470 -0.0157
11675TIP3   OH256439   2.928   4.842   6.215 -0.1465  0.5489 -0.1711
11675TIP3    H156440   2.960   4.927   6.247 -1.0425  0.4411  1.0731
11675TIP3    H256441   2.981   4.778   6.261 -0.1768  0.4161 -0.3219
11676TIP3   OH256442   0.699   5.229  16.627  0.3725  0.0131  0.1589
11676TIP3    H156443   0.676   5.212  16.535  0.3999  0.7894 -0.0011
11676TIP3    H256444   0.793   5.211  16.632  0.3281 -0.2423  0.0879
11677TIP3   OH256445   4.629   5.532  17.114 -0.6360 -0.5340 -0.3317
11677TIP3    H156446   4.629   5.515  17.020 -1.2912 -2.0878 -0.0850
11677TIP3    H256447   4.714   5.500  17.144  0.0755  1.0667 -0.5384
11678TIP3   OH256448   3.322   0.768   4.803 -0.0204 -0.1140  0.1045
11678TIP3    H156449   3.311   0.723   4.887 -1.2968 -0.7353 -0.3583
11678TIP3    H256450   3.407   0.811   4.810 -0.2977  0.2500  1.8970
11679TIP3   OH256451   6.397   2.337   0.994  0.4857 -0.5514 -0.3622
11679TIP3    H156452   6.419   2.299   0.909  0.9489  0.3228 -0.6439
11679TIP3    H256453   6.357   2.422   0.973 -1.4890 -1.2816  0.2079
11680TIP3   OH256454   5.865   0.504   2.734  0.3171  0.3657  0.1481
11680TIP3    H156455   5.778   0.493   2.773  0.6090 -0.6971  0.5463
11680TIP3    H256456   5.858   0.464   2.648  1.0223 -1.9419  1.0890
11681TIP3   OH256457   0.214   4.798   5.121 -0.5196 -0.1915 -0.5826
11681TIP3    H156458   0.199   4.884   5.160  1.0483 -1.4107  3.1863
11681TIP3    H256459   0.146   4.742   5.160  0.0097 -1.1408 -0.9846
11682TIP3   OH256460   3.994   6.562  13.293  0.1123  0.2966 -0.0600
11682TIP3    H156461   3.992   6.639  13.238 -0.2034 -1.6007 -2.9130
11682TIP3    H256462   3.911   6.565  13.342 -0.5127  1.1043 -1.1242
11683TIP3   OH256463   3.303   4.364   5.226  0.5533 -0.5694 -0.0242
11683TIP3    H156464   3.261   4.355   5.141 -0.5367  0.9730  0.3162
11683TIP3    H256465   3.279   4.452   5.256  2.9156 -0.1233  0.8039
11684TIP3   OH256466   5.282   3.708   2.190  0.4331  0.5229  0.0301
11684TIP3    H156467   5.291   3.621   2.152  1.0308  0.4731  0.2666
11684TIP3    H256468   5.365   3.723   2.235 -0.0700  0.7830  0.8952
11685TIP3   OH256469   5.251   3.354   5.015 -0.2230  0.5911  0.1780
11685TIP3    H156470   5.318   3.421   5.029  1.2119 -0.4276 -1.3200
11685TIP3    H256471   5.238   3.314   5.101  1.0118  0.9156  0.5343
11686TIP3   OH256472   5.816   5.506   0.090  0.0782  0.3623 -0.1362
11686TIP3    H156473   5.867   5.425   0.095  1.0535  1.0104  2.2510
11686TIP3    H256474   5.759   5.494   0.015 -1.8395 -3.7238  1.6438
11687TIP3   OH256475   3.036   5.518  12.923  0.0562 -0.1167  0.7306
11687TIP3    H156476   3.127   5.512  12.893 -0.6351 -0.2857 -1.5855
11687TIP3    H256477   3.026   5.607  12.956  0.7145  0.4010 -0.3991
11688TIP3   OH256478   5.981   3.290   2.084  0.7641  0.2527  0.0378
11688TIP3    H156479   5.971   3.212   2.029  0.2171 -0.1285  0.6630
11688TIP3    H256480   6.069   3.283   2.120  1.3655  0.8304 -1.2688
11689TIP3   OH256481   6.700   0.907   0.117 -0.2631  0.7262 -0.0454
11689TIP3    H156482   6.689   0.825   0.068  0.2250  0.3831  0.4060
11689TIP3    H256483   6.653   0.892   0.199 -2.8139  2.0342 -1.1668
11690TIP3   OH256484   1.589   1.624   1.001  0.4887 -0.2613  0.5731
11690TIP3    H156485   1.588   1.558   0.932 -0.6880 -1.3816  1.6072
11690TIP3    H256486   1.635   1.581   1.073  1.2750  0.7161  0.6660
11691TIP3   OH256487   3.995   3.123   4.988 -0.7873  0.4449 -0.4132
11691TIP3    H156488   4.031   3.167   4.911  1.3184  0.2857  0.4105
11691TIP3    H256489   4.071   3.083   5.030 -2.1157 -0.8370  0.8858
11692TIP3   OH256490   6.471   5.962   4.949  0.0983  0.0017  0.1213
11692TIP3    H156491   6.514   6.029   5.002  0.5647  0.1312 -0.4192
11692TIP3    H256492   6.541   5.904   4.921 -0.3259 -0.8384  0.7446
11693TIP3   OH256493   1.894   2.995   6.025 -0.0795  0.1398 -0.8882
11693TIP3    H156494   1.975   2.996   5.975 -0.3754  0.0279 -1.3848
11693TIP3    H256495   1.920   2.972   6.114  0.3142 -0.9761 -1.2713
11694TIP3   OH256496   5.621   2.011   4.051  0.3173  0.0387 -0.2012
11694TIP3    H156497   5.626   1.974   4.139 -2.0216  0.2219  0.0758
11694TIP3    H256498   5.527   2.011   4.030  0.5373  2.5902 -1.5934
11695TIP3   OH256499   1.812   2.627   5.499  0.5651 -0.5326 -0.1368
11695TIP3    H156500   1.882   2.598   5.558  1.3734  0.3467 -0.6479
11695TIP3    H256501   1.838   2.715   5.472  0.0131 -0.7735 -1.5039
11696TIP3   OH256502   1.654   3.436   4.336  0.1970 -0.2736  0.4288
11696TIP3    H156503   1.712   3.382   4.390  0.0145 -0.5513  0.3491
11696TIP3    H256504   1.583   3.460   4.395  0.0943 -0.4191  0.3628
11697TIP3   OH256505   5.305   3.772  16.936  0.5742 -0.1759  0.3660
11697TIP3    H156506   5.303   3.826  16.857 -1.1940 -2.1143 -1.0303
11697TIP3    H256507   5.307   3.835  17.008 -1.8613  1.8234 -1.1524
11698TIP3   OH256508   3.355   5.461   5.009  0.7104 -0.3874  0.3803
11698TIP3    H156509   3.412   5.537   5.008  0.8561 -0.4825 -1.0461
11698TIP3    H256510   3.408   5.391   5.048  2.4128 -1.0173 -2.7204
11699TIP3   OH256511   4.182   3.231   6.299 -0.1400 -0.4830  0.0230
11699TIP3    H156512   4.110   3.277   6.342  1.0202  0.7943  0.6655
11699TIP3    H256513   4.201   3.157   6.356  0.9141  0.7936  1.4090
11700TIP3   OH256514   5.070   4.347  11.953  0.2013 -0.1003  0.1438
11700TIP3    H156515   5.151   4.339  11.902  0.4237 -0.6188  0.5721
11700TIP3    H256516   5.060   4.441  11.968 -1.0125  0.3105 -2.6765
11701TIP3   OH256517   0.229   3.715   5.517  0.0933  0.2595  0.0584
11701TIP3    H156518   0.149   3.662   5.524  0.3085 -0.1051 -0.1983
11701TIP3    H256519   0.232   3.765   5.598  0.0046 -0.2950  0.4093
11702TIP3   OH256520   3.864   5.304   0.182 -0.0846 -0.4776 -0.1105
11702TIP3    H156521   3.832   5.248   0.112 -0.8550 -0.3974  0.1723
11702TIP3    H256522   3.785   5.333   0.229  0.4672 -1.4604  1.5107
11703TIP3   OH256523   4.002   5.456  14.616  0.4798  0.0469  0.0311
11703TIP3    H156524   4.050   5.534  14.587 -0.0630  0.1683 -0.5748
11703TIP3    H256525   4.068   5.387  14.618  0.5714  0.0691 -1.3934
11704TIP3   OH256526   1.094   2.797  16.222 -0.4899 -0.0744 -0.0874
11704TIP3    H156527   1.043   2.870  16.258  1.5579  1.7462 -0.7110
11704TIP3    H256528   1.093   2.731  16.291 -1.7239  0.8543  0.8265
11705TIP3   OH256529   0.088   0.460   5.898 -0.4691 -0.1813 -0.0160
11705TIP3    H156530   0.043   0.540   5.925 -0.7717 -0.4084  0.1549
11705TIP3    H256531   0.152   0.444   5.968 -0.8071 -0.4088  0.2443
11706TIP3   OH256532   2.863   1.787   2.883 -0.6856 -0.4894 -0.3753
11706TIP3    H156533   2.788   1.825   2.836 -0.0859 -0.5565 -1.3999
11706TIP3    H256534   2.862   1.695   2.859 -0.3904 -0.5322 -0.2225
11707TIP3   OH256535   0.477   0.507  11.414 -0.0119 -0.0996  0.4619
11707TIP3    H156536   0.561   0.550  11.430 -0.3701  0.8826 -0.1597
11707TIP3    H256537   0.412   0.577  11.426 -0.6314 -0.5048 -0.4211
11708TIP3   OH256538   4.568   6.112  12.831  0.0611 -0.1371 -0.1681
11708TIP3    H156539   4.540   6.061  12.755  1.1399  0.1215 -0.7548
11708TIP3    H256540   4.573   6.202  12.800  2.2176 -0.2632 -0.3139
11709TIP3   OH256541   2.902   4.393  17.044 -0.4440 -0.2218 -0.1698
11709TIP3    H156542   2.910   4.298  17.041  0.5107 -0.1537  0.0362
11709TIP3    H256543   2.808   4.409  17.034 -0.7598 -1.2378  0.9739
11710TIP3   OH256544   3.791   3.468   6.042 -0.8435 -0.6055  0.0772
11710TIP3    H156545   3.826   3.523   5.971  1.2398  0.2421  1.6652
11710TIP3    H256546   3.864   3.412   6.067 -1.7367 -1.3175  1.1619
11711TIP3   OH256547   0.554   3.839   1.098  0.1983 -0.0307  0.3821
11711TIP3    H156548   0.466   3.871   1.119  0.0136 -1.1078  1.3919
11711TIP3    H256549   0.590   3.904   1.037 -1.6885 -0.1378 -0.9185
11712TIP3   OH256550   2.550   2.510   2.409 -0.5716  0.3113  0.5226
11712TIP3    H156551   2.612   2.439   2.398 -1.4495 -0.1325 -2.6795
11712TIP3    H256552   2.573   2.550   2.492  4.2884  0.4674 -0.6195
11713TIP3   OH256553   0.830   0.084  13.084 -0.1445 -0.0915 -0.2554
11713TIP3    H156554   0.873   0.007  13.047 -2.5749 -1.4753 -0.4458
11713TIP3    H256555   0.811   0.060  13.174  1.0730  1.2129  0.3790
11714TIP3   OH256556   1.191   3.200  11.817 -0.0631  0.5859 -0.0338
11714TIP3    H156557   1.196   3.264  11.889 -1.5368  2.1212 -1.2225
11714TIP3    H256558   1.278   3.204  11.777  0.0119  1.5066  0.1919
11715TIP3   OH256559   0.821   4.825  14.981  0.2384  0.1525  0.1789
11715TIP3    H156560   0.777   4.782  14.908  0.3786  0.1581  0.0900
11715TIP3    H256561   0.778   4.789  15.059  0.3649 -0.1613  0.1059
11716TIP3   OH256562   2.843   2.744  14.809  0.1925 -0.3323 -0.4057
11716TIP3    H156563   2.782   2.712  14.876 -0.7745 -0.4428 -1.3046
11716TIP3    H256564   2.802   2.720  14.726  1.1412  0.2023 -1.0513
11717TIP3   OH256565   0.869   6.297  16.205  0.1115 -0.4699 -0.0913
11717TIP3    H156566   0.909   6.220  16.164 -0.6715 -0.4458 -0.9250
11717TIP3    H256567   0.912   6.304  16.290  5.5085  2.4379 -2.6123
11718TIP3   OH256568   5.973   4.175  15.848  0.0375 -0.0362 -0.2555
11718TIP3    H156569   6.035   4.177  15.775  0.1846  1.3974 -0.1250
11718TIP3    H256570   5.975   4.084  15.879  2.6827  0.0970  0.2267
11719TIP3   OH256571   2.761   5.771  14.823 -0.3624 -0.5790  0.6909
11719TIP3    H156572   2.736   5.708  14.756  1.7179  0.1669 -0.9194
11719TIP3    H256573   2.724   5.854  14.793 -0.0532 -0.3797  0.8540
11720TIP3   OH256574   5.349   6.424  11.161 -0.0443  0.2439 -0.1599
11720TIP3    H156575   5.299   6.372  11.223 -2.9087  0.7872 -1.8336
11720TIP3    H256576   5.411   6.363  11.122 -1.4921 -1.2618 -0.1808
11721TIP3   OH256577   2.404   5.139  12.698  0.4652 -0.5313  0.0856
11721TIP3    H156578   2.396   5.089  12.780 -1.1592  0.0839  0.3477
11721TIP3    H256579   2.358   5.221  12.716  0.6023 -0.1409 -1.2665
11722TIP3   OH256580   6.272   3.837  16.770 -0.5634  0.0189 -0.1998
11722TIP3    H156581   6.209   3.769  16.793 -0.2893 -0.6514 -1.3612
11722TIP3    H256582   6.337   3.835  16.840 -1.1007 -0.2049  0.3016
11723TIP3   OH256583   4.240   4.552   2.528  0.0603 -0.1681 -0.7986
11723TIP3    H156584   4.276   4.467   2.553 -1.1329 -0.3855  0.3186
11723TIP3    H256585   4.147   4.535   2.510 -0.4803  1.0722  0.5963
11724TIP3   OH256586   4.182   3.860  17.056  0.8050  0.0854 -0.4945
11724TIP3    H156587   4.128   3.807  16.998  1.5128  0.0721 -1.1696
11724TIP3    H256588   4.121   3.895  17.121  0.0979 -0.4061 -0.8767
11725TIP3   OH256589   1.520   5.029   4.945 -0.5354 -0.1795  0.7019
11725TIP3    H156590   1.571   5.098   4.902 -0.6602 -1.5072 -1.7439
11725TIP3    H256591   1.530   5.047   5.039  2.1868  1.1812  0.2540
11726TIP3   OH256592   6.276   0.783   2.356  0.3574  0.3004 -0.0290
11726TIP3    H156593   6.318   0.863   2.388 -1.1645  0.6588  1.2105
11726TIP3    H256594   6.185   0.791   2.384 -0.4787 -0.6229 -2.2407
11727TIP3   OH256595   3.019   1.854   2.152  0.7432 -0.3038  0.0306
11727TIP3    H156596   3.060   1.941   2.159 -0.1659  0.1190  0.2282
11727TIP3    H256597   2.943   1.869   2.095 -1.3775 -0.2169  2.6753
11728TIP3   OH256598   3.138   5.843   2.379 -0.6742 -0.0112 -0.5305
11728TIP3    H156599   3.216   5.851   2.324  0.6068  0.5187  1.2603
11728TIP3    H256600   3.161   5.775   2.443 -0.4812  2.1523  1.8407
11729TIP3   OH256601   4.625   5.784  14.321  0.9188 -0.4804 -0.7177
11729TIP3    H156602   4.649   5.740  14.403  0.4643 -0.8660 -0.7867
11729TIP3    H256603   4.639   5.718  14.253  0.6337 -0.3835 -0.8714
11730TIP3   OH256604   0.235   0.595  12.883  0.5430 -0.2594  0.3938
11730TIP3    H156605   0.251   0.552  12.799 -1.9953  0.0450 -0.3220
11730TIP3    H256606   0.286   0.544  12.946  1.9992 -0.8818 -1.2094
11731TIP3   OH256607   3.355   3.617   2.859  0.2616  0.2097 -0.3882
11731TIP3    H156608   3.415   3.638   2.930 -0.5595  1.3149  0.0074
11731TIP3    H256609   3.328   3.702   2.823 -1.6659 -0.1920 -0.0112
11732TIP3   OH256610   1.381   1.019  14.036  0.3630  0.2593  0.5690
11732TIP3    H156611   1.294   0.990  14.007 -0.2003 -0.1597  2.5022
11732TIP3    H256612   1.382   1.000  14.130  0.8789  4.2672  1.5307
11733TIP3   OH256613   6.347   5.071  11.476  0.1243 -0.2323 -0.0325
11733TIP3    H156614   6.382   4.984  11.458 -0.8609 -0.9940  1.4750
11733TIP3    H256615   6.252   5.056  11.484 -0.4647  1.5004 -2.6356
11734TIP3   OH256616   4.810   6.598   2.994  0.1681  0.1365 -0.3302
11734TIP3    H156617   4.771   6.598   3.082  0.9339  1.3202  0.0339
11734TIP3    H256618   4.899   6.631   3.008  0.4322 -0.0589 -1.4993
11735TIP3   OH256619   4.761   1.597   5.752 -0.4138 -0.3924  0.2100
11735TIP3    H156620   4.739   1.646   5.672 -1.0434  0.2428  0.7668
11735TIP3    H256621   4.723   1.511   5.738  1.4059 -1.0508 -1.1429
11736TIP3   OH256622   4.731   1.863   6.094 -0.0581  0.5889  0.3788
11736TIP3    H156623   4.692   1.795   6.039  1.4064 -0.3257  0.4128
11736TIP3    H256624   4.691   1.944   6.063  0.2572  0.0428 -1.6427
11737TIP3   OH256625   6.125   4.722   3.596  0.4355 -0.6105  0.4583
11737TIP3    H156626   6.032   4.742   3.597 -0.0555 -2.6502  1.4915
11737TIP3    H256627   6.145   4.692   3.684  1.6663 -1.8365 -0.1832
11738TIP3   OH256628   3.387   3.597   4.973  0.2599  0.4988 -0.3963
11738TIP3    H156629   3.408   3.521   4.918 -0.4451  0.6214 -0.8525
11738TIP3    H256630   3.409   3.672   4.919 -0.2776  0.6187 -0.4600
11739TIP3   OH256631   4.375   0.035   3.074  0.2466 -0.0763  0.2635
11739TIP3    H156632   4.390   0.122   3.036 -0.1290 -0.8133 -1.6443
11739TIP3    H256633   4.443  -0.020   3.037  0.6883 -0.5724  1.7240
11740TIP3   OH256634   2.942   3.316   0.618 -0.5276 -0.0460 -0.1378
11740TIP3    H156635   2.881   3.346   0.684 -1.4374 -1.0391 -0.4956
11740TIP3    H256636   2.890   3.311   0.537  0.5613  1.1706 -0.9504
11741TIP3   OH256637   3.198   1.899   5.279  0.0870  0.7596 -0.5842
11741TIP3    H156638   3.277   1.930   5.323  0.6727 -2.8660  1.3457
11741TIP3    H256639   3.130   1.904   5.346 -0.4092  0.3866 -1.0506
11742TIP3   OH256640   5.775   6.649   5.567 -0.4620 -0.6125  0.2190
11742TIP3    H156641   5.865   6.616   5.564 -0.1452  0.2131  0.1596
11742TIP3    H256642   5.725   6.588   5.513 -0.1212 -1.5889  0.9702
11743TIP3   OH256643   4.410   6.000   0.937  0.2307 -0.0677 -0.0907
11743TIP3    H156644   4.497   6.019   0.972 -0.0485 -1.6260  1.5633
11743TIP3    H256645   4.414   5.908   0.910 -1.1085 -0.3852  0.7115
11744TIP3   OH256646   0.845   0.986   2.864 -0.2451  0.1788 -0.2537
11744TIP3    H156647   0.933   0.980   2.901  0.2872  2.8286 -0.8345
11744TIP3    H256648   0.839   0.912   2.804  0.7328 -1.2906  1.3730
11745TIP3   OH256649   4.898   2.100   5.711  0.1369  0.1484  0.1942
11745TIP3    H156650   4.803   2.108   5.726  0.1835  1.2890  0.0029
11745TIP3    H256651   4.909   2.014   5.671 -0.9503  0.3895 -0.6773
11746TIP3   OH256652   4.312   3.714  16.575  0.0376 -0.2114 -0.1949
11746TIP3    H156653   4.315   3.805  16.605 -1.4239 -0.0508 -0.4883
11746TIP3    H256654   4.324   3.720  16.480  0.1013 -0.3380 -0.1934
11747TIP3   OH256655   1.267   5.771   5.639  0.0948  0.2070 -0.0805
11747TIP3    H156656   1.312   5.800   5.718 -0.2290  2.5800 -0.6880
11747TIP3    H256657   1.329   5.790   5.568  0.4838 -2.0965 -0.4558
11748TIP3   OH256658   6.566   0.059   0.955  0.6612 -0.1763 -0.2862
11748TIP3    H156659   6.569  -0.028   0.915 -1.2668 -0.3661 -0.1425
11748TIP3    H256660   6.497   0.104   0.906  0.8698  0.8927  0.3823
11749TIP3   OH256661   3.818   6.172   3.718 -0.6286  0.0370 -0.7944
11749TIP3    H156662   3.902   6.132   3.697  0.4883  1.3180  0.9803
11749TIP3    H256663   3.764   6.100   3.749  0.7784 -0.3922  0.7634
11750TIP3   OH256664   3.642   2.591  16.549 -0.4452 -0.8004  0.2628
11750TIP3    H156665   3.597   2.552  16.474 -1.1604  0.3847  0.0590
11750TIP3    H256666   3.585   2.571  16.624 -1.7508  1.2769 -0.0883
11751TIP3   OH256667   0.636   1.199  17.266  0.4232  0.0280  0.2394
11751TIP3    H156668   0.651   1.193  17.172 -0.5370 -0.4800  0.0984
11751TIP3    H256669   0.690   1.129  17.304  0.3194 -0.1900 -0.0085
11752TIP3   OH256670   1.909   3.971  16.853 -0.6083 -0.1183 -0.1465
11752TIP3    H156671   1.832   3.976  16.910 -2.8147 -1.3071 -2.7964
11752TIP3    H256672   1.933   3.879  16.853  2.1311  0.4276  2.0217
11753TIP3   OH256673   4.475   2.550  12.663 -0.3863  0.1576 -0.6227
11753TIP3    H156674   4.499   2.581  12.575 -0.2919  1.0394 -0.2967
11753TIP3    H256675   4.455   2.458  12.651  1.5618 -0.2329 -1.2300
11754TIP3   OH256676   0.259   1.963  15.647  0.2801  0.1428 -0.0823
11754TIP3    H156677   0.280   2.023  15.719 -0.4641 -2.7441  2.8075
11754TIP3    H256678   0.163   1.966  15.641  0.0188 -2.1313  1.6066
11755TIP3   OH256679   0.404   2.348   1.386 -0.3865 -1.0238 -0.2449
11755TIP3    H156680   0.351   2.413   1.432  1.3639 -0.5403  1.2190
11755TIP3    H256681   0.440   2.292   1.455  0.5424 -1.6845 -1.2180
11756TIP3   OH256682   6.101   0.350  15.611  0.3864  0.1209 -0.8238
11756TIP3    H156683   6.026   0.291  15.601  1.8829 -2.0120 -0.1926
11756TIP3    H256684   6.172   0.294  15.643  2.4456  1.9251 -1.9470
11757TIP3   OH256685   2.290   0.858   2.556  0.1795  0.0691 -0.0315
11757TIP3    H156686   2.266   0.842   2.648  0.1128  2.0212  0.3478
11757TIP3    H256687   2.366   0.916   2.561  0.3237 -0.0022 -1.2162
11758TIP3   OH256688   4.763   4.488  16.048 -0.5252 -0.2491  0.1506
11758TIP3    H156689   4.800   4.400  16.046  0.3251  0.1008  0.2178
11758TIP3    H256690   4.691   4.482  16.111 -1.7596 -1.3700 -1.2839
11759TIP3   OH256691   0.516   5.931  13.273 -0.1241  0.0432 -1.4481
11759TIP3    H156692   0.509   5.926  13.178 -1.2355 -1.5418 -1.3230
11759TIP3    H256693   0.610   5.940  13.290  0.5059 -3.0156 -2.6367
11760TIP3   OH256694   3.994   4.134   2.208  0.9261 -0.2275 -0.2337
11760TIP3    H156695   3.956   4.048   2.229 -0.1735  0.0870 -0.8654
11760TIP3    H256696   3.979   4.145   2.114  1.4821  0.4598 -0.2513
11761TIP3   OH256697   3.736   4.424   0.811 -0.1461  0.4573  0.0087
11761TIP3    H156698   3.721   4.431   0.717 -0.9878 -0.6863  0.0296
11761TIP3    H256699   3.649   4.428   0.850  0.1469  0.3632  0.6921
11762TIP3   OH256700   2.863   0.103   0.462  0.0689 -0.1544  0.1754
11762TIP3    H156701   2.816   0.061   0.390 -0.4448 -0.1965  0.5278
11762TIP3    H256702   2.834   0.194   0.460  0.5479 -0.0063 -0.0716
11763TIP3   OH256703   4.978   6.662   1.030 -0.0236  0.3389  0.2400
11763TIP3    H156704   5.020   6.708   0.957 -0.7271 -1.0553 -1.1116
11763TIP3    H256705   5.050   6.619   1.076  0.7942  3.4790  2.1687
11764TIP3   OH256706   1.237   2.004   2.233 -0.1243  0.1290  0.2918
11764TIP3    H156707   1.246   2.094   2.200  0.4611 -0.9795 -2.9416
11764TIP3    H256708   1.158   1.971   2.191  1.2196 -1.7273 -0.9365
11765TIP3   OH256709   3.325   1.924   3.965  0.3062  0.0966 -0.1142
11765TIP3    H156710   3.397   1.987   3.968  1.2379 -0.9632  2.3957
11765TIP3    H256711   3.360   1.850   3.915 -0.1083  0.7272 -1.3825
11766TIP3   OH256712   5.598   6.262  11.365  0.1187 -0.6394 -0.6644
11766TIP3    H156713   5.602   6.167  11.354 -1.4887 -0.5328 -2.5921
11766TIP3    H256714   5.603   6.298  11.277 -2.5540  0.8849 -0.3125
11767TIP3   OH256715   5.505   1.295   3.029  0.4353 -0.1826 -0.1149
11767TIP3    H156716   5.525   1.386   3.051  0.1393 -0.1511  0.0228
11767TIP3    H256717   5.554   1.279   2.948  0.9387 -0.0749  0.1654
11768TIP3   OH256718   1.982   5.403   6.569  0.3050  0.3463  0.1397
11768TIP3    H156719   2.071   5.416   6.537  0.8963 -0.4794  1.3929
11768TIP3    H256720   1.929   5.466   6.519  1.5672  0.8094 -0.6487
11769TIP3   OH256721   4.882   2.401  12.300 -0.2697  0.4543  0.3439
11769TIP3    H156722   4.889   2.479  12.354  2.6542  0.3929  0.1911
11769TIP3    H256723   4.971   2.366  12.296 -1.1646 -1.9079 -1.0425
11770TIP3   OH256724   3.724   6.206   4.489 -0.2346  0.2696  0.2771
11770TIP3    H156725   3.674   6.176   4.413 -1.4395  0.5751  0.9165
11770TIP3    H256726   3.657   6.223   4.556  0.7046  1.1370  1.0220
11771TIP3   OH256727   4.625   0.651   2.944 -0.1548 -0.0871 -0.0113
11771TIP3    H156728   4.589   0.562   2.945 -0.3294 -0.0240 -0.5559
11771TIP3    H256729   4.610   0.683   3.033 -3.1509  0.6003 -0.6419
11772TIP3   OH256730   2.270   0.691   4.362  0.2074  0.4859 -0.4701
11772TIP3    H156731   2.203   0.725   4.421  2.9161  5.0117  0.5051
11772TIP3    H256732   2.298   0.608   4.402 -2.4841  0.0662  0.7765
11773TIP3   OH256733   3.002   4.389  12.566  0.0080 -0.8249 -0.2131
11773TIP3    H156734   3.072   4.326  12.547  0.7880 -0.0886  0.1368
11773TIP3    H256735   3.026   4.426  12.651 -2.2295 -2.4491  1.2295
11774TIP3   OH256736   3.945   4.103  12.053  0.1038  0.1045  0.0552
11774TIP3    H156737   3.968   4.037  11.988  0.9614  0.5058 -0.0638
11774TIP3    H256738   3.968   4.062  12.137  0.1318  0.0499  0.0209
11775TIP3   OH256739   6.379   4.657   3.832 -0.1022  0.4030  0.3114
11775TIP3    H156740   6.286   4.644   3.814 -0.0727  1.3127 -0.5254
11775TIP3    H256741   6.422   4.654   3.747  1.0171 -2.6160  0.8377
11776TIP3   OH256742   4.351   3.983  16.494 -0.0478  0.9599  0.6651
11776TIP3    H156743   4.274   3.967  16.439  0.0540 -2.7348  1.3305
11776TIP3    H256744   4.426   3.969  16.435  0.2304  4.0059  0.1561
11777TIP3   OH256745   6.769   1.981   0.143 -0.3043 -0.9719  0.4807
11777TIP3    H156746   6.821   1.908   0.176 -0.6553 -1.7769 -0.7127
11777TIP3    H256747   6.775   2.047   0.213 -0.2555 -2.2441  1.7360
11778TIP3   OH256748   4.662   3.852   2.998 -0.0530 -0.0426  0.0195
11778TIP3    H156749   4.652   3.856   3.093  1.0044 -0.0822  0.1537
11778TIP3    H256750   4.726   3.782   2.984 -0.8885 -0.6745 -0.7887
11779TIP3   OH256751   0.930   5.505  12.405 -0.8580  0.6216 -0.5938
11779TIP3    H156752   1.013   5.498  12.451 -0.7213 -0.7749 -1.0125
11779TIP3    H256753   0.928   5.595  12.373  1.5510  0.1087 -2.4671
11780TIP3   OH256754   0.894   4.992   1.906 -0.1253 -0.4133  0.0631
11780TIP3    H156755   0.886   5.088   1.907 -2.1481 -0.5159 -0.6933
11780TIP3    H256756   0.985   4.975   1.932  0.3912  1.7140 -0.1429
11781TIP3   OH256757   2.964   3.641  15.621 -0.2040 -0.2177  0.8530
11781TIP3    H156758   2.902   3.714  15.623  1.4550  1.2930  0.8135
11781TIP3    H256759   2.965   3.608  15.710 -0.7306  0.0414  0.9594
11782TIP3   OH256760   0.369   5.294  16.783  0.4239  0.2573  0.2906
11782TIP3    H156761   0.385   5.346  16.861  1.6748  1.3907 -0.6794
11782TIP3    H256762   0.377   5.203  16.812  0.9025  0.6638  1.4599
11783TIP3   OH256763   6.535   6.309   5.021 -0.1693 -0.0802 -0.7580
11783TIP3    H156764   6.584   6.245   5.073 -2.4370 -1.8754 -0.6667
11783TIP3    H256765   6.580   6.311   4.937  0.7886 -0.7220 -0.2759
11784TIP3   OH256766   2.848   0.757   4.368 -0.3385 -0.3876  0.0549
11784TIP3    H156767   2.845   0.728   4.276 -1.0483 -1.2722  0.3457
11784TIP3    H256768   2.927   0.811   4.373 -1.3715  1.4270 -1.5873
11785TIP3   OH256769   2.486   3.087   0.181 -0.2447 -0.2077 -0.0527
11785TIP3    H156770   2.505   3.022   0.249 -0.5966  0.1255  0.3690
11785TIP3    H256771   2.459   3.034   0.105 -1.2953 -0.5458  0.5322
11786TIP3   OH256772   3.371   3.973  12.815 -0.3463  0.2443  0.0300
11786TIP3    H156773   3.317   4.030  12.869 -1.8707 -0.3049 -0.8616
11786TIP3    H256774   3.460   3.985  12.849 -1.2220 -0.0548  2.6260
11787TIP3   OH256775   6.299   1.433  13.565  0.0377  0.3944 -0.2976
11787TIP3    H156776   6.282   1.508  13.623  1.2785 -0.4193  1.1634
11787TIP3    H256777   6.393   1.419  13.571 -0.1929 -1.3537 -0.4724
11788TIP3   OH256778   2.381   0.582   0.863  0.0849 -0.1787 -0.0338
11788TIP3    H156779   2.367   0.675   0.841  1.3441 -0.1262 -0.7423
11788TIP3    H256780   2.296   0.552   0.895 -0.6783  0.9106 -0.9297
11789TIP3   OH256781   5.883   0.652   5.906 -0.1894  0.0961  0.0861
11789TIP3    H156782   5.953   0.636   5.841 -0.4037  1.8163 -0.6247
11789TIP3    H256783   5.911   0.602   5.983  0.8636 -0.7678 -0.7995
11790TIP3   OH256784   0.925   4.696   5.604  0.1632  0.0116  0.3299
11790TIP3    H156785   0.979   4.655   5.671 -0.2303  1.1324  1.3809
11790TIP3    H256786   0.870   4.758   5.652 -2.1781 -1.1804 -0.6743
11791TIP3   OH256787   5.469   0.932   5.098  0.4643  0.3042  0.2588
11791TIP3    H156788   5.406   0.862   5.087 -0.6103  1.3406 -0.3728
11791TIP3    H256789   5.448   0.971   5.184  0.9192  0.0096  0.5112
11792TIP3   OH256790   0.654   3.030   3.432  0.1111 -0.2116 -0.5577
11792TIP3    H156791   0.741   2.991   3.426  0.5057  0.5781 -0.1055
11792TIP3    H256792   0.604   2.968   3.486 -0.0704 -1.4223 -2.0452
11793TIP3   OH256793   6.576   6.373  14.436  0.2027 -0.2653  0.0489
11793TIP3    H156794   6.631   6.429  14.491 -0.5990  1.0790 -0.4906
11793TIP3    H256795   6.535   6.432  14.373  0.3614 -1.6449 -1.4156
11794TIP3   OH256796   0.476   3.990   6.082 -0.0672  0.4313  0.2862
11794TIP3    H156797   0.518   3.962   6.163 -0.7864  0.9708  0.8648
11794TIP3    H256798   0.502   4.081   6.071 -0.1252  0.4160  0.0121
11795TIP3   OH256799   6.415   3.986  15.660  0.1938  0.0456  0.2970
11795TIP3    H156800   6.387   3.954  15.575  0.8992  1.2524 -0.4195
11795TIP3    H256801   6.491   3.933  15.683  0.9752  0.7704 -0.5817
11796TIP3   OH256802   1.039   0.695   0.383 -0.2743 -0.5375  0.4395
11796TIP3    H156803   0.967   0.659   0.435 -1.1221  1.5399  0.8075
11796TIP3    H256804   1.000   0.716   0.299  0.2749 -0.8060  0.1144
11797TIP3   OH256805   2.701   0.295  12.220 -0.4738  0.1546  0.1766
11797TIP3    H156806   2.747   0.302  12.137  0.4068  0.4587  0.6725
11797TIP3    H256807   2.674   0.384  12.241 -2.4236 -0.1957 -0.7148
11798TIP3   OH256808   5.197   6.614  15.924  0.1577 -0.1628  0.3351
11798TIP3    H156809   5.259   6.569  15.867  1.7826 -1.4409  2.9607
11798TIP3    H256810   5.247   6.686  15.962 -0.4570 -0.1618  1.1788
11799TIP3   OH256811   5.300   1.440   3.203  0.1425 -0.0249  0.1837
11799TIP3    H156812   5.254   1.491   3.137  2.4031  1.7097 -0.1261
11799TIP3    H256813   5.358   1.382   3.154 -1.0460 -1.6851  0.6049
11800TIP3   OH256814   5.440   4.681   1.369  0.0815 -0.3414  0.2634
11800TIP3    H156815   5.367   4.657   1.312 -0.1946 -0.5696  0.7091
11800TIP3    H256816   5.414   4.650   1.456  0.6446 -0.2982  0.4524
11801TIP3   OH256817   4.918   3.033  11.634 -0.0588 -0.0319  0.1575
11801TIP3    H156818   4.994   3.084  11.660  0.1199  1.1375 -2.3612
11801TIP3    H256819   4.863   3.029  11.712  0.9518  2.1739  1.0470
11802TIP3   OH256820   4.558   2.191   2.877 -0.0029 -0.4828 -0.2402
11802TIP3    H156821   4.565   2.284   2.895 -0.5301 -0.4435 -0.2323
11802TIP3    H256822   4.479   2.163   2.923  0.7831 -1.1714  0.7366
11803TIP3   OH256823   3.401   0.842   1.724 -0.2904 -0.0307  0.0370
11803TIP3    H156824   3.469   0.838   1.656 -0.5480  1.3791 -0.3202
11803TIP3    H256825   3.384   0.750   1.745  1.3955 -0.4418 -0.1887
11804TIP3   OH256826   5.982   2.286   4.170  0.2685 -0.3152  0.2775
11804TIP3    H156827   5.965   2.376   4.198 -0.2182  0.2882 -1.7713
11804TIP3    H256828   5.985   2.235   4.251 -2.3163  1.0590  1.3548
11805TIP3   OH256829   3.119   4.938   1.305  0.2682 -0.2443  0.1416
11805TIP3    H156830   3.167   4.954   1.387 -0.5527  0.6218  0.4637
11805TIP3    H256831   3.077   5.022   1.285  0.8971 -0.2661 -1.4769
11806TIP3   OH256832   0.615   3.660  11.478  0.2529  0.3123 -0.0648
11806TIP3    H156833   0.570   3.722  11.535  1.6489 -0.5144  2.0574
11806TIP3    H256834   0.704   3.695  11.468  1.2324 -1.4846  1.5966
11807TIP3   OH256835   6.423   1.257  12.217 -0.2328 -0.7774  0.7948
11807TIP3    H156836   6.368   1.191  12.174 -0.3194  0.1666 -0.6037
11807TIP3    H256837   6.360   1.312  12.265 -0.8064  1.0836 -1.8263
11808TIP3   OH256838   1.125   4.874   0.216 -0.7047  0.3843  0.5663
11808TIP3    H156839   1.118   4.850   0.309 -0.8684 -2.9873 -0.1807
11808TIP3    H256840   1.218   4.865   0.196 -0.6654  1.1329  0.3869
11809TIP3   OH256841   2.922   6.010  11.353 -0.4328  0.4514  0.0370
11809TIP3    H156842   3.014   6.020  11.331  0.1249 -0.5752  1.6862
11809TIP3    H256843   2.876   6.020  11.270  1.1712  0.7695 -0.8506
11810TIP3   OH256844   6.311   5.551   3.499 -0.1273 -0.1087 -0.6371
11810TIP3    H156845   6.265   5.543   3.415  0.9359  0.2910 -1.2789
11810TIP3    H256846   6.359   5.634   3.493 -0.1089 -0.0277  0.4080
11811TIP3   OH256847   0.659   4.390  12.584  0.1536 -0.4897 -0.0497
11811TIP3    H156848   0.656   4.303  12.624  1.2333 -1.5689 -2.1239
11811TIP3    H256849   0.731   4.385  12.521  0.6934  2.1579  0.2317
11812TIP3   OH256850   1.098   2.969   2.597  0.2176 -0.2367 -0.8629
11812TIP3    H156851   1.133   2.948   2.683  0.6091  1.3603 -0.6008
11812TIP3    H256852   1.140   3.052   2.573  1.0616 -1.2165 -3.1432
11813TIP3   OH256853   2.064   3.611   0.103  0.2123 -0.2541 -0.5514
11813TIP3    H156854   2.131   3.649   0.161 -1.6816  1.6875  0.4879
11813TIP3    H256855   2.074   3.516   0.115  0.7019  0.0447  2.0943
11814TIP3   OH256856   5.408   6.095   2.720 -0.6788  0.0228 -0.4351
11814TIP3    H156857   5.375   6.118   2.807 -1.4119 -0.4813 -0.5703
11814TIP3    H256858   5.479   6.033   2.736 -0.2254  0.6085 -0.1648
11815TIP3   OH256859   4.345   1.005   5.927  0.0479  0.1578  0.1588
11815TIP3    H156860   4.411   0.937   5.942 -1.6590 -1.3074  1.4782
11815TIP3    H256861   4.367   1.074   5.989  0.7362  0.0056  0.0982
11816TIP3   OH256862   3.596   6.148  12.707 -0.3998  0.1987 -0.1327
11816TIP3    H156863   3.538   6.180  12.776  3.1178  0.2145  3.1661
11816TIP3    H256864   3.590   6.053  12.711 -0.1019  0.1979  0.3217
11817TIP3   OH256865   6.545   0.255   2.506  0.6302  0.0240 -0.1100
11817TIP3    H156866   6.469   0.253   2.447  0.2654 -1.1497  0.3728
11817TIP3    H256867   6.598   0.181   2.478 -0.0614 -1.1975  1.6637
11818TIP3   OH256868   0.748   0.873   3.133 -0.4382  0.3464 -0.6447
11818TIP3    H156869   0.712   0.961   3.143  1.7074  1.4280 -1.6985
11818TIP3    H256870   0.725   0.847   3.043 -1.1273 -0.2132 -0.3136
11819TIP3   OH256871   5.248   5.034  13.581 -0.4231  0.0739  0.2601
11819TIP3    H156872   5.313   5.080  13.527 -0.5370  0.1725  0.2065
11819TIP3    H256873   5.232   4.952  13.534 -1.0422  0.4656 -0.2276
11820TIP3   OH256874   2.096   6.379  16.459  0.0670 -0.0455 -0.7849
11820TIP3    H156875   2.037   6.304  16.459  1.0840 -0.9268  1.5151
11820TIP3    H256876   2.123   6.389  16.550  3.0521  0.6310 -1.6438
11821TIP3   OH256877   6.524   1.244   2.467 -0.5865  0.4616  0.5075
11821TIP3    H156878   6.459   1.174   2.476 -0.5951  0.5909  1.5975
11821TIP3    H256879   6.536   1.277   2.556  1.0188  0.4061  0.3389
11822TIP3   OH256880   2.863   5.143   6.332 -0.4872  0.0373  0.4062
11822TIP3    H156881   2.904   5.133   6.418 -1.7974  0.2121  1.0770
11822TIP3    H256882   2.776   5.104   6.343 -0.3920 -0.6569 -1.0818
11823TIP3   OH256883   6.396   0.141  10.877  0.2203  0.0414  0.2596
11823TIP3    H156884   6.486   0.116  10.854  1.3507  1.8014  2.3850
11823TIP3    H256885   6.373   0.208  10.812  0.3047 -0.6361 -0.4811
11824TIP3   OH256886   2.504   3.103   1.735  0.6465 -0.1401  0.4818
11824TIP3    H156887   2.594   3.132   1.721  0.3161  0.5666 -0.2294
11824TIP3    H256888   2.457   3.181   1.766 -0.0842 -0.0735 -0.7475
11825TIP3   OH256889   6.542   0.333  11.331 -0.4894  0.1260  0.1098
11825TIP3    H156890   6.479   0.262  11.319 -2.1492  1.2310  1.7971
11825TIP3    H256891   6.515   0.377  11.412  2.1140  1.0353  0.5933
11826TIP3   OH256892   2.024   2.219  14.863  0.4115  0.9708  0.6033
11826TIP3    H156893   2.078   2.176  14.930 -1.5959 -1.3633  0.8679
11826TIP3    H256894   2.070   2.202  14.781  0.5372 -0.2840  0.9062
11827TIP3   OH256895   2.556   0.695  13.484 -0.5661  0.3662  0.0419
11827TIP3    H156896   2.488   0.637  13.519 -1.6692  1.1671 -0.7191
11827TIP3    H256897   2.609   0.718  13.561 -0.0715 -1.6390  0.3516
11828TIP3   OH256898   4.672   2.247   3.905  0.6237 -0.1122 -0.3207
11828TIP3    H156899   4.752   2.266   3.856  0.5709  0.4786 -0.1865
11828TIP3    H256900   4.601   2.272   3.846  0.5512 -0.0322 -0.2002
11829TIP3   OH256901   5.313   3.434  15.535 -0.5527  0.1848 -0.0867
11829TIP3    H156902   5.290   3.515  15.580  0.0827  0.4067 -0.1533
11829TIP3    H256903   5.377   3.392  15.592 -1.6025 -0.7576  0.4322
11830TIP3   OH256904   4.930   0.821   5.728 -0.2988  0.5509 -0.1433
11830TIP3    H156905   4.991   0.887   5.694  0.2986  0.4627  0.7201
11830TIP3    H256906   4.844   0.856   5.708 -0.0820  2.7538  2.2778
11831TIP3   OH256907   1.903   2.022  15.181  0.0058  0.8972 -0.2702
11831TIP3    H156908   1.935   1.933  15.170  1.3218  1.3473 -0.3069
11831TIP3    H256909   1.846   2.018  15.257  0.2867  0.0739 -0.0962
11832TIP3   OH256910   0.810   2.265  16.372 -0.7236 -0.5905  0.2923
11832TIP3    H156911   0.796   2.360  16.375 -0.9699 -0.6304  0.4603
11832TIP3    H256912   0.834   2.247  16.281  0.8719 -0.1623  0.6146
11833TIP3   OH256913   6.059   3.415   0.072  0.0315  0.2730  0.4174
11833TIP3    H156914   6.143   3.369   0.068  0.4193  1.0375 -0.7739
11833TIP3    H256915   6.034   3.411   0.165  1.8892  0.8943  1.0035
11834TIP3   OH256916   4.791   0.781  12.282 -0.1808  0.0702 -0.6761
11834TIP3    H156917   4.797   0.695  12.323  0.1619  0.7560  0.7628
11834TIP3    H256918   4.882   0.802  12.258  0.1064  0.9407  0.9890
11835TIP3   OH256919   6.402   3.238  14.524  0.3506 -0.6383  0.0367
11835TIP3    H156920   6.414   3.330  14.500  1.0688  0.1419  2.9103
11835TIP3    H256921   6.316   3.215  14.488 -0.1946  1.4265 -0.1146
11836TIP3   OH256922   6.610   5.103  12.011  0.2332  0.2603 -0.7918
11836TIP3    H156923   6.621   5.059  12.095  1.9898  0.0182 -1.1144
11836TIP3    H256924   6.566   5.185  12.032  0.5274  0.1472  0.3394
11837TIP3   OH256925   2.085   3.938   0.671 -0.4006 -0.1047 -0.4728
11837TIP3    H156926   2.138   3.987   0.609  0.5335  0.3353  0.6289
11837TIP3    H256927   2.026   4.003   0.710 -1.1109 -0.4121 -1.0181
11838TIP3   OH256928   5.001   3.930  12.895  0.0848 -0.3628 -0.0127
11838TIP3    H156929   5.062   3.942  12.968  0.3509  0.7090 -0.4020
11838TIP3    H256930   4.915   3.920  12.937  0.1653  0.7352  0.4302
11839TIP3   OH256931   6.750   6.567  14.532  0.2901  0.0824  0.2251
11839TIP3    H156932   6.782   6.653  14.505  0.4284 -0.1768 -0.4609
11839TIP3    H256933   6.784   6.555  14.621 -0.6562  1.2015  0.7673
11840TIP3   OH256934   1.406   0.144  16.742  0.3180 -0.4030  0.0351
11840TIP3    H156935   1.458   0.214  16.781  0.7043  1.1221 -2.8933
11840TIP3    H256936   1.315   0.167  16.763  0.5523 -0.3829  1.0931
11841TIP3   OH256937   3.057   3.859   4.169 -0.4829 -0.2868  0.4335
11841TIP3    H156938   3.137   3.865   4.116 -0.8937 -1.6100 -0.3883
11841TIP3    H256939   3.079   3.796   4.238 -0.9861 -1.1206 -0.1513
11842TIP3   OH256940   0.469   3.404   0.901  0.1405  0.4063  0.0789
11842TIP3    H156941   0.472   3.460   0.979  0.9696 -0.8579  0.9996
11842TIP3    H256942   0.399   3.341   0.920 -0.2356  0.6215 -0.5844
11843TIP3   OH256943   4.033   0.460  13.952  0.0951 -0.0800  0.5057
11843TIP3    H156944   3.989   0.410  13.884 -0.1341 -0.4627  0.9322
11843TIP3    H256945   4.116   0.415  13.966 -0.6324 -1.0901  1.7571
11844TIP3   OH256946   1.682   5.338   3.490 -0.0762  0.4347 -0.1443
11844TIP3    H156947   1.624   5.294   3.428 -3.4766  2.4931  1.2301
11844TIP3    H256948   1.680   5.283   3.568 -2.2264  1.5255  0.6763
11845TIP3   OH256949   6.248   2.479   5.916 -0.2433  0.2390 -0.3138
11845TIP3    H156950   6.152   2.479   5.922 -0.1741 -0.5604  1.4479
11845TIP3    H256951   6.273   2.387   5.929  0.7815  0.5541  0.0487
11846TIP3   OH256952   5.847   5.337   4.312  0.3619 -0.5369 -0.2849
11846TIP3    H156953   5.927   5.326   4.261 -0.5450 -0.9227 -1.6639
11846TIP3    H256954   5.845   5.260   4.369  0.8592 -0.6346 -0.3917
11847TIP3   OH256955   1.663   5.620  12.388 -0.4482 -0.6333  0.4045
11847TIP3    H156956   1.635   5.544  12.337  0.4651 -0.2403 -0.7319
11847TIP3    H256957   1.758   5.623  12.378 -0.5053  0.9700 -0.0407
11848TIP3   OH256958   0.333   6.232   4.590  0.2029  0.3169  0.0302
11848TIP3    H156959   0.416   6.184   4.595 -0.0354 -0.1131 -0.1332
11848TIP3    H256960   0.311   6.250   4.681  1.2778  1.8336  0.0296
11849TIP3   OH256961   0.381   5.352   0.295 -0.1904 -0.4228 -0.0825
11849TIP3    H156962   0.475   5.339   0.283 -0.3098 -0.9719 -0.4398
11849TIP3    H256963   0.347   5.368   0.207 -0.9776 -3.8662 -0.5690
11850TIP3   OH256964   5.600   4.762  14.977 -0.1213  0.1114  0.0002
11850TIP3    H156965   5.589   4.805  14.892 -2.4748  1.2926  0.8056
11850TIP3    H256966   5.605   4.834  15.040 -1.3947 -0.7333  1.1320
11851TIP3   OH256967   1.579   2.043   1.133  0.1966 -0.5956 -0.0739
11851TIP3    H156968   1.667   2.061   1.166  0.5724  0.8484 -1.7281
11851TIP3    H256969   1.588   1.959   1.087  0.6941 -0.5231 -0.1186
11852TIP3   OH256970   5.906   2.274  13.069  0.1037  0.3309  0.0539
11852TIP3    H156971   5.872   2.329  12.998 -1.7930  0.5579  1.0862
11852TIP3    H256972   5.953   2.335  13.126 -0.1577  0.5041  0.0826
11853TIP3   OH256973   3.825   5.466  11.461  0.5818 -0.8194 -0.4609
11853TIP3    H156974   3.866   5.390  11.420  1.3377 -2.4827  3.0680
11853TIP3    H256975   3.772   5.430  11.532  1.7822  1.9322  2.0246
11854TIP3   OH256976   2.653   4.155  16.635  0.0277  0.0957  0.2036
11854TIP3    H156977   2.667   4.201  16.552 -0.4465 -0.5672 -0.2501
11854TIP3    H256978   2.722   4.089  16.638  0.8847  1.0026  0.9912
11855TIP3   OH256979   0.417   3.236   3.817  0.1430  0.0952  0.3810
11855TIP3    H156980   0.374   3.152   3.834  1.2194 -0.3503  1.0521
11855TIP3    H256981   0.348   3.293   3.784 -0.7550 -0.8505  0.5897
11856TIP3   OH256982   3.524   5.357   6.339 -0.4381 -0.1355 -0.1522
11856TIP3    H156983   3.507   5.328   6.249  0.1881 -2.4216  0.3965
11856TIP3    H256984   3.452   5.321   6.390  0.0083 -0.1596  0.4717
11857TIP3   OH256985   1.650   1.666   0.086  0.3846  0.2249  0.7480
11857TIP3    H156986   1.676   1.757   0.102 -1.7315  0.6066  2.5946
11857TIP3    H256987   1.683   1.618   0.162  0.5860 -0.3501  0.3008
11858TIP3   OH256988   6.351   5.549  16.787  0.5402  0.7612 -0.2056
11858TIP3    H156989   6.277   5.525  16.842 -0.0655 -0.2433 -1.3972
11858TIP3    H256990   6.428   5.522  16.837 -0.0088 -0.6013 -0.0415
11859TIP3   OH256991   5.222   5.992  14.307 -0.1742  0.3041 -0.3348
11859TIP3    H156992   5.233   6.074  14.355 -0.9393  0.2843 -0.1148
11859TIP3    H256993   5.298   5.939  14.333 -1.0979 -0.1228  1.7124
11860TIP3   OH256994   2.922   4.779   2.635  0.1500 -0.1100 -0.1565
11860TIP3    H156995   2.983   4.704   2.633  0.8875  0.4255  1.0631
11860TIP3    H256996   2.843   4.745   2.677  0.9123  0.0658  1.4708
11861TIP3   OH256997   2.601   1.704   3.442  0.5953 -0.0370 -0.1670
11861TIP3    H156998   2.619   1.750   3.525 -1.9847  0.8132  0.0459
11861TIP3    H256999   2.654   1.750   3.377  1.0445  0.6946  0.6902
11862TIP3   OH257000   3.792   0.073  16.307 -0.4024  0.1581  0.2652
11862TIP3    H157001   3.731   0.140  16.339 -0.1395  0.6731 -0.2906
11862TIP3    H257002   3.739   0.018  16.250 -0.4186  0.4551 -0.0145
11863TIP3   OH257003   3.066   0.775   5.299  0.0675  0.2123  0.0353
11863TIP3    H157004   3.069   0.681   5.281 -1.6731  0.3024 -0.9613
11863TIP3    H257005   2.973   0.798   5.292  0.6796  2.5160 -2.6374
11864TIP3   OH257006   4.053   0.376  16.511 -0.1196 -0.2969  0.2964
11864TIP3    H157007   4.009   0.460  16.496 -0.2668 -0.3886  0.2108
11864TIP3    H257008   4.102   0.360  16.431  0.2394 -0.0928  0.4733
11865TIP3   OH257009   0.857   3.920  12.553 -0.5518  0.3347 -0.0145
11865TIP3    H157010   0.790   3.934  12.620  0.0104 -0.9382  0.8507
11865TIP3    H257011   0.862   3.825  12.544  1.2866  0.3888  0.0875
11866TIP3   OH257012   5.918   1.228   6.792  0.6735  0.4314  0.5010
11866TIP3    H157013   6.010   1.214   6.770  0.7058  1.0160  0.2428
11866TIP3    H257014   5.886   1.288   6.725  0.0358  0.0467  0.4456
11867TIP3   OH257015   2.421   6.593   3.259 -0.2428  0.1992 -0.1342
11867TIP3    H157016   2.450   6.553   3.177 -2.1065 -0.2168 -0.6336
11867TIP3    H257017   2.354   6.655   3.233 -0.5843  0.3485  1.0488
11868TIP3   OH257018   2.360   3.460  14.491  0.1474 -0.0303  1.0145
11868TIP3    H157019   2.437   3.475  14.546  0.1299 -1.2539  1.4145
11868TIP3    H257020   2.345   3.543  14.447  0.7744  0.6781  2.0946
11869TIP3   OH257021   6.707   0.365  16.871 -0.3363 -0.5903 -0.3044
11869TIP3    H157022   6.637   0.312  16.832 -2.5576  0.4964  1.9673
11869TIP3    H257023   6.758   0.302  16.922 -0.9558 -1.0558 -0.2463
11870TIP3   OH257024   3.765   1.508   0.547 -0.0939 -0.1128 -0.6848
11870TIP3    H157025   3.812   1.567   0.606 -0.7768  0.3290 -0.5689
11870TIP3    H257026   3.740   1.433   0.602 -0.5042  0.1786 -0.4702
11871TIP3   OH257027   5.139   5.971   5.617 -0.0613  0.1022  0.8720
11871TIP3    H157028   5.221   5.947   5.661  0.0610  0.5203  0.8796
11871TIP3    H257029   5.164   6.045   5.560 -0.4958  0.4241  1.0989
11872TIP3   OH257030   5.502   0.040  12.025  0.2394  0.2269  0.0093
11872TIP3    H157031   5.565   0.106  11.994  0.0470  0.9339  1.0623
11872TIP3    H257032   5.419   0.065  11.983  0.4726 -0.2268 -0.7425
11873TIP3   OH257033   4.659   1.679  13.373  0.1257 -0.3433  0.5310
11873TIP3    H157034   4.677   1.772  13.357  0.6622 -0.3806  0.8573
11873TIP3    H257035   4.733   1.634  13.332 -1.1746 -0.7832 -1.4656
11874TIP3   OH257036   3.935   5.287   5.209  0.0017 -0.0038  0.1994
11874TIP3    H157037   3.861   5.300   5.268  0.2133  1.6402  0.1631
11874TIP3    H257038   3.926   5.197   5.178 -2.3685  0.3546 -0.3489
11875TIP3   OH257039   2.896   5.652  11.837  0.0515  0.9709 -0.4423
11875TIP3    H157040   2.972   5.599  11.863 -1.4984 -1.4402 -0.5146
11875TIP3    H257041   2.913   5.675  11.746  1.2798  1.5895 -0.0747
11876TIP3   OH257042   0.241   1.245   0.617  0.0681  0.3614 -0.4230
11876TIP3    H157043   0.279   1.168   0.659  0.4572  1.3975  1.2229
11876TIP3    H257044   0.159   1.213   0.579  0.5528 -1.0049 -0.3877
11877TIP3   OH257045   1.945   0.092  16.127  0.3673 -0.2956  0.0934
11877TIP3    H157046   1.851   0.090  16.146  0.2632  1.0060 -0.2040
11877TIP3    H257047   1.953   0.149  16.051  1.1644 -2.3847 -1.4703
11878TIP3   OH257048   0.940   1.821   4.289 -0.6247  0.8291 -0.1366
11878TIP3    H157049   0.978   1.826   4.377 -0.7701  0.9459 -0.0814
11878TIP3    H257050   0.863   1.877   4.293  0.0351  1.7983 -0.6849
11879TIP3   OH257051   6.597   3.442  15.733  0.2863 -0.4552 -0.2637
11879TIP3    H157052   6.616   3.533  15.753  2.2795 -1.1627  1.3802
11879TIP3    H257053   6.658   3.419  15.662 -1.4140 -0.1075 -1.9386
11880TIP3   OH257054   3.498   1.305  16.284 -0.1937 -0.0394 -0.2393
11880TIP3    H157055   3.584   1.287  16.246  1.3892  2.5206  1.7823
11880TIP3    H257056   3.485   1.235  16.349  1.0708  0.3175  0.4319
11881TIP3   OH257057   2.915   6.385  15.388 -0.2631  0.1656  0.4679
11881TIP3    H157058   2.973   6.369  15.462  1.0321 -0.3574 -0.6253
11881TIP3    H257059   2.970   6.428  15.323 -1.5875  1.4054  0.1008
11882TIP3   OH257060   2.691   6.236   4.827  0.7586 -0.0497 -0.0094
11882TIP3    H157061   2.722   6.195   4.908 -0.0175 -0.0891  0.2734
11882TIP3    H257062   2.682   6.329   4.849 -3.2422 -0.5472  1.2206
11883TIP3   OH257063   1.129   1.511   4.082 -0.8047  0.4725  0.2759
11883TIP3    H157064   1.034   1.507   4.093 -0.6997  0.6009  1.3339
11883TIP3    H257065   1.156   1.589   4.131 -0.3730  1.6682 -1.7750
11884TIP3   OH257066   5.049   5.492   2.067  0.0229  0.1191  0.0381
11884TIP3    H157067   5.113   5.517   2.133  0.6971  1.9881 -1.2628
11884TIP3    H257068   4.971   5.544   2.089  0.1980  0.6281 -0.5363
11885TIP3   OH257069   5.820   6.743   0.831 -0.3991  0.3819 -0.2500
11885TIP3    H157070   5.821   6.833   0.799  1.3725  0.3362 -0.4327
11885TIP3    H257071   5.903   6.733   0.879 -0.2196 -1.3444 -0.8286
11886TIP3   OH257072   4.586   5.915   3.923 -0.0717 -0.3020  0.6970
11886TIP3    H157073   4.600   5.830   3.881  0.8568 -0.1007  0.5825
11886TIP3    H257074   4.674   5.946   3.944 -0.1093  2.0793 -2.0759
11887TIP3   OH257075   5.794   4.637  16.711  0.7819  0.6547 -0.3559
11887TIP3    H157076   5.752   4.627  16.626  0.1147  0.4430 -0.0055
11887TIP3    H257077   5.812   4.731  16.718  0.9947  0.6486 -0.8009
11888TIP3   OH257078   5.782   0.327  13.325 -0.6249 -0.0741 -0.0996
11888TIP3    H157079   5.778   0.386  13.401 -1.7854 -2.0729  1.5146
11888TIP3    H257080   5.694   0.291  13.319 -0.0500 -1.3430 -1.2780
11889TIP3   OH257081   2.750   4.637  13.736 -0.3072 -0.6450  0.3808
11889TIP3    H157082   2.695   4.654  13.812 -0.3447  4.5060 -0.4225
11889TIP3    H257083   2.690   4.638  13.662  0.3487  2.7110 -0.2770
11890TIP3   OH257084   5.219   4.568   5.303 -0.5599  0.5142  0.0220
11890TIP3    H157085   5.151   4.626   5.339 -0.8480  2.0996 -2.8491
11890TIP3    H257086   5.300   4.617   5.311  0.0431 -0.6390  1.7336
11891TIP3   OH257087   2.084   6.487  10.883  0.6395  0.7595 -0.4158
11891TIP3    H157088   2.105   6.404  10.925 -0.6167  0.7886  0.3082
11891TIP3    H257089   2.064   6.464  10.792  0.6817  0.3351 -0.3194
11892TIP3   OH257090   3.559   3.371   1.271  0.4609 -0.3983  0.3653
11892TIP3    H157091   3.650   3.360   1.243  0.1034 -1.7395 -0.4069
11892TIP3    H257092   3.548   3.308   1.342 -0.1353 -1.0535 -0.2868
11893TIP3   OH257093   1.091   2.307  15.833  0.5390 -0.0290 -0.1649
11893TIP3    H157094   1.084   2.365  15.909 -1.3639  0.2432 -0.5048
11893TIP3    H257095   1.134   2.361  15.766 -1.5213  1.1715 -0.5904
11894TIP3   OH257096   4.063   0.156  15.126 -0.0296  0.2740  0.4029
11894TIP3    H157097   4.029   0.222  15.187  2.2664  1.4831  0.5235
11894TIP3    H257098   4.135   0.115  15.174 -1.2188 -2.1817  0.1991
11895TIP3   OH257099   1.528   1.237   4.430  0.4562 -0.0567 -0.5418
11895TIP3    H157100   1.585   1.175   4.474 -1.2577  0.7013  3.0844
11895TIP3    H257101   1.581   1.315   4.417  0.8917 -0.1310  0.7143
11896TIP3   OH257102   4.205   1.731  14.304  0.2616  0.7844  0.4292
11896TIP3    H157103   4.185   1.773  14.221  0.8017  0.8287  0.3186
11896TIP3    H257104   4.123   1.736  14.354  0.2984  1.9025  0.3963
11897TIP3   OH257105   1.271   6.364   5.128 -0.0004 -0.4449  1.0361
11897TIP3    H157106   1.291   6.354   5.221  0.6542 -1.6282  0.7964
11897TIP3    H257107   1.245   6.276   5.100 -0.4496 -0.0419  0.1551
11898TIP3   OH257108   0.992   0.490  14.523  0.2547  0.4022 -0.3715
11898TIP3    H157109   0.953   0.567  14.481 -0.4220  0.8083  0.9507
11898TIP3    H257110   1.064   0.525  14.574  0.4109  0.0509 -0.3511
11899TIP3   OH257111   0.663   5.858  13.698 -0.2604 -0.6602 -0.3677
11899TIP3    H157112   0.617   5.923  13.645 -0.6205  0.7756  1.6051
11899TIP3    H257113   0.752   5.857  13.664 -0.1251  1.2393 -0.1644
11900TIP3   OH257114   5.429   2.915   0.529 -0.0269 -0.0189  0.1885
11900TIP3    H157115   5.514   2.957   0.541 -0.0157  0.8386 -2.2768
11900TIP3    H257116   5.445   2.845   0.466 -1.3137  1.0205 -1.3845
11901TIP3   OH257117   3.976   3.569   5.874 -0.0222 -0.0737  0.3214
11901TIP3    H157118   4.028   3.518   5.812 -1.0228 -0.3251 -0.3527
11901TIP3    H257119   4.038   3.599   5.939  0.8288 -1.0086 -0.0265
11902TIP3   OH257120   4.139   2.392  14.986 -0.1181  0.7507 -0.2373
11902TIP3    H157121   4.187   2.474  14.983 -1.6331  1.6770 -0.1958
11902TIP3    H257122   4.108   2.386  15.077  2.1386 -1.2169  0.5146
11903TIP3   OH257123   3.421   0.171   1.131 -0.1793 -0.3660 -0.0543
11903TIP3    H157124   3.333   0.132   1.130  0.0276 -0.8332 -0.6435
11903TIP3    H257125   3.405   0.266   1.126 -0.6382 -0.4942 -1.4240
11904TIP3   OH257126   1.340   0.782   1.532  0.1226  0.2122  0.0023
11904TIP3    H157127   1.288   0.703   1.518  0.1531  0.6029 -2.7916
11904TIP3    H257128   1.425   0.749   1.560 -0.8123 -0.5263  2.2522
11905TIP3   OH257129   5.992   2.495  15.025  0.1118  0.1812  0.1867
11905TIP3    H157130   6.078   2.458  15.005 -1.0063 -2.7630  0.2879
11905TIP3    H257131   5.956   2.520  14.940 -0.0194 -1.2994 -0.2221
11906TIP3   OH257132   0.942   3.187  12.885  0.9547  0.3494  0.3409
11906TIP3    H157133   0.900   3.113  12.841 -0.7301  0.5829  1.4300
11906TIP3    H257134   0.954   3.253  12.817  0.3820 -0.0909 -0.1986
11907TIP3   OH257135   4.748   1.699  16.753  0.5625  0.0822 -0.8506
11907TIP3    H157136   4.749   1.605  16.768  1.8062  0.2325  0.2202
11907TIP3    H257137   4.787   1.736  16.832 -1.3839  1.6275 -0.5288
11908TIP3   OH257138   1.951   0.340  15.173 -0.4051 -0.2151 -0.2018
11908TIP3    H157139   2.040   0.346  15.137 -0.1102 -0.5215  0.4678
11908TIP3    H257140   1.934   0.426  15.211 -0.0764 -0.4058  0.3906
11909TIP3   OH257141   0.241   6.656  17.158 -0.2898  0.8049  0.3937
11909TIP3    H157142   0.221   6.708  17.080  1.1822  1.6190  0.5210
11909TIP3    H257143   0.166   6.669  17.216 -1.5125  0.0257 -0.9289
11910TIP3   OH257144   4.400   4.332  11.417 -0.1108 -0.1495 -0.1847
11910TIP3    H157145   4.398   4.362  11.507  1.1120 -0.1320 -0.1519
11910TIP3    H257146   4.474   4.378  11.377 -0.8656  0.1499 -1.3146
11911TIP3   OH257147   5.698   2.449   0.374  0.3191  0.0216 -0.7834
11911TIP3    H157148   5.777   2.457   0.321  0.7559 -0.5912 -0.2436
11911TIP3    H257149   5.713   2.511   0.446  0.9557 -1.0984  0.0804
11912TIP3   OH257150   5.419   4.375  15.694 -0.0008  0.1380  0.0055
11912TIP3    H157151   5.493   4.421  15.654 -0.9957  0.3279 -1.7118
11912TIP3    H257152   5.453   4.288  15.714  1.3926  0.9888  1.6365
11913TIP3   OH257153   4.698   1.285  16.592  0.9915 -0.5919  0.8444
11913TIP3    H157154   4.628   1.280  16.527  0.3898  0.0753  1.4139
11913TIP3    H257155   4.738   1.199  16.592  0.4873 -0.8292  0.1489
11914TIP3   OH257156   4.749   3.003   2.891  0.3612 -0.0324  0.1340
11914TIP3    H157157   4.788   2.971   2.810 -0.7155 -1.7407  0.2487
11914TIP3    H257158   4.664   3.037   2.864 -0.1247 -0.8760  0.5713
11915TIP3   OH257159   5.967   6.677  15.950 -0.6697 -0.1508  0.5698
11915TIP3    H157160   6.043   6.728  15.978 -0.6806  0.4329 -0.4291
11915TIP3    H257161   5.973   6.673  15.855 -3.4618  2.5712  0.1031
11916TIP3   OH257162   3.016   4.174   2.535  0.1216  0.0991 -0.1070
11916TIP3    H157163   2.923   4.183   2.555 -0.1066 -0.4789 -0.8606
11916TIP3    H257164   3.052   4.127   2.611 -0.1750  0.4032  0.2275
11917TIP3   OH257165   0.337   6.220  13.404  0.0624 -0.0156 -0.5983
11917TIP3    H157166   0.334   6.302  13.355 -0.7532  0.2596 -0.1133
11917TIP3    H257167   0.279   6.235  13.479  0.2331 -0.8909 -0.2797
11918TIP3   OH257168   1.701   5.411   6.306 -0.2608  0.6200  0.2273
11918TIP3    H157169   1.739   5.470   6.371  0.1188 -0.6312  1.1735
11918TIP3    H257170   1.729   5.324   6.333 -0.3217  0.0320 -1.4676
11919TIP3   OH257171   0.692   3.972  11.333  0.3775 -0.3255 -0.3961
11919TIP3    H157172   0.681   3.999  11.242  1.2252 -1.0127 -0.7089
11919TIP3    H257173   0.764   4.026  11.365  0.4903 -0.5214 -0.3176
11920TIP3   OH257174   4.395   4.499  13.132  0.0119  0.0859  0.0096
11920TIP3    H157175   4.473   4.539  13.094  0.9831 -1.1308  0.6464
11920TIP3    H257176   4.361   4.441  13.063  0.8490 -0.9008  0.3976
11921TIP3   OH257177   0.686   5.365   0.545 -0.0690 -0.4452  0.1244
11921TIP3    H157178   0.762   5.424   0.545  0.7681 -1.4919  0.4547
11921TIP3    H257179   0.614   5.419   0.580  0.6258  0.4365  0.2351
11922TIP3   OH257180   4.995   0.927  12.138  0.0837  0.1133 -0.1519
11922TIP3    H157181   5.019   1.015  12.169 -2.0115  1.2141 -1.3799
11922TIP3    H257182   4.942   0.944  12.060  0.9424 -2.3458 -1.3382
11923TIP3   OH257183   5.517   6.532  13.397 -0.0956 -0.0275  0.8455
11923TIP3    H157184   5.447   6.560  13.456 -0.2725  0.0888  0.5800
11923TIP3    H257185   5.512   6.436  13.399  0.2352 -0.0396  1.4210
11924TIP3   OH257186   3.054   4.820  12.783 -0.0109 -0.1602  0.3862
11924TIP3    H157187   3.060   4.877  12.706  1.2405  0.7838  1.1646
11924TIP3    H257188   2.995   4.866  12.843 -0.0715 -0.3489  0.4735
11925TIP3   OH257189   6.151   1.798  12.971 -0.8245 -0.4900  0.4972
11925TIP3    H157190   6.125   1.881  13.010  0.9679  0.0665  0.6283
11925TIP3    H257191   6.141   1.810  12.877  0.2958  0.2296  0.4521
11926TIP3   OH257192   3.642   2.297  10.636 -0.5506  0.2040  0.2249
11926TIP3    H157193   3.566   2.245  10.611 -0.7617  1.0187 -0.9115
11926TIP3    H257194   3.682   2.249  10.709 -0.7372 -1.5504 -0.7862
11927TIP3   OH257195   1.368   4.189  14.782  0.8542 -0.5421  0.0032
11927TIP3    H157196   1.334   4.275  14.760  0.0113  0.2116  3.5612
11927TIP3    H257197   1.462   4.201  14.788  0.8860 -0.2655 -0.9096
11928TIP3   OH257198   1.530   0.082   4.984  0.1011 -0.2869  0.9402
11928TIP3    H157199   1.505   0.060   4.895  2.3881  1.8995 -0.3769
11928TIP3    H257200   1.530  -0.002   5.031 -2.0244 -1.3534 -0.8288
11929TIP3   OH257201   5.546   2.474  13.013  0.2133 -0.0366 -0.4565
11929TIP3    H157202   5.562   2.466  13.107 -1.5529  3.3312  0.3103
11929TIP3    H257203   5.630   2.500  12.977  0.3905  0.9871  0.6283
11930TIP3   OH257204   0.729   2.283  12.430 -0.4549  0.0648  0.3928
11930TIP3    H157205   0.640   2.280  12.396 -0.7460 -0.8163  1.1888
11930TIP3    H257206   0.741   2.200  12.475  0.4408  0.5544  1.1141
11931TIP3   OH257207   2.346   0.378   0.145  0.3359 -0.2367 -0.0043
11931TIP3    H157208   2.386   0.296   0.117  2.8020  0.6747  0.5608
11931TIP3    H257209   2.419   0.431   0.178 -1.6256  0.6200  3.5905
11932TIP3   OH257210   4.036   2.066  12.955  0.4642  0.0358 -0.4340
11932TIP3    H157211   4.001   2.138  13.008  1.4648  1.3755 -1.5213
11932TIP3    H257212   3.959   2.016  12.929 -0.1076 -0.3940  1.8277
11933TIP3   OH257213   6.176   6.290  14.294  1.0123 -0.1284 -0.0603
11933TIP3    H157214   6.154   6.213  14.242  1.3976 -0.7687  0.6974
11933TIP3    H257215   6.092   6.322  14.327  0.8090  0.0474 -0.7265
11934TIP3   OH257216   4.377   6.656  12.815  0.2193 -0.1347  0.0049
11934TIP3    H157217   4.306   6.707  12.854 -0.0832  0.1782 -0.9293
11934TIP3    H257218   4.366   6.669  12.721  2.1752  0.8417 -0.1369
11935TIP3   OH257219   4.297   6.100  13.361  0.1271 -0.4560  0.6563
11935TIP3    H157220   4.239   6.170  13.391  0.0276 -0.6570  0.9367
11935TIP3    H257221   4.261   6.021  13.402  0.8915 -0.5116  1.2467
11936TIP3   OH257222   5.883   1.805   2.728  0.3169 -0.3883  0.1005
11936TIP3    H157223   5.859   1.865   2.799 -0.4045 -2.5096  1.7491
11936TIP3    H257224   5.803   1.757   2.708  1.2881 -2.1098  0.1585
11937TIP3   OH257225   0.417   3.025   1.680  0.8295  0.3500  0.3581
11937TIP3    H157226   0.336   3.075   1.668  1.0260  0.5803 -0.0160
11937TIP3    H257227   0.387   2.939   1.712  0.4807  0.6535  0.8638
11938TIP3   OH257228   6.258   1.156   4.430  0.1592 -0.2253 -0.1266
11938TIP3    H157229   6.327   1.138   4.494  0.2653 -0.8629 -0.4159
11938TIP3    H257230   6.206   1.225   4.471  1.0634  0.3854  0.0197
11939TIP3   OH257231   0.336   4.432   5.653  0.9734 -0.3502  0.5224
11939TIP3    H157232   0.345   4.342   5.623 -0.8774 -0.3670 -0.1183
11939TIP3    H257233   0.327   4.484   5.573  2.1799  0.4482  0.8784
11940TIP3   OH257234   5.490   3.035  12.326 -0.4416  0.0381 -0.3638
11940TIP3    H157235   5.474   2.990  12.243 -1.1243 -1.5160  0.5801
11940TIP3    H257236   5.467   2.972  12.393 -0.7981  1.5815  1.0345
11941TIP3   OH257237   2.211   2.042  11.982 -0.1125  0.2885  0.0847
11941TIP3    H157238   2.253   2.045  12.068 -0.6118  1.7975  0.3164
11941TIP3    H257239   2.187   2.133  11.964 -0.8020 -0.1267 -1.2678
11942TIP3   OH257240   3.639   4.140  10.798 -0.2203  0.0325  0.2206
11942TIP3    H157241   3.605   4.129  10.709  1.8487 -1.3854 -0.4915
11942TIP3    H257242   3.711   4.076  10.804  0.8368  1.2957  2.3107
11943TIP3   OH257243   5.997   4.747  12.006 -0.0355 -0.7751 -0.9411
11943TIP3    H157244   5.944   4.810  12.055  2.8077  0.3186  0.9323
11943TIP3    H257245   5.971   4.760  11.914 -2.2233  0.3745 -0.2207
11944TIP3   OH257246   5.094   4.553   3.554  0.0975  0.1433  0.4771
11944TIP3    H157247   5.004   4.575   3.527 -0.6511 -1.4638  1.4780
11944TIP3    H257248   5.142   4.635   3.546 -1.1524  0.7652 -1.3093
11945TIP3   OH257249   3.110   5.641  13.657  0.5182 -0.2434 -0.1692
11945TIP3    H157250   3.163   5.576  13.611  0.7618 -0.1836  0.0233
11945TIP3    H257251   3.096   5.711  13.593  1.6546  0.2830  0.1176
11946TIP3   OH257252   1.198   6.648   2.961  0.6426 -0.6317  0.0894
11946TIP3    H157253   1.129   6.656   3.026  1.1446 -0.5950  0.6223
11946TIP3    H257254   1.215   6.554   2.954  0.2776 -0.6712 -0.3257
11947TIP3   OH257255   4.247   0.575  12.560 -0.1483  0.6360 -0.8681
11947TIP3    H157256   4.158   0.606  12.577 -0.4560  0.2385 -1.7087
11947TIP3    H257257   4.260   0.504  12.622 -0.3242  0.8590 -0.5730
11948TIP3   OH257258   5.036   0.109   2.190  0.7948  0.9871  0.2209
11948TIP3    H157259   5.069   0.038   2.135  0.5962  0.6738  0.5022
11948TIP3    H257260   5.098   0.181   2.176  1.4713  0.4795  0.5776
11949TIP3   OH257261   0.001   6.009  11.510  0.4173  0.2400 -0.3139
11949TIP3    H157262   0.055   5.934  11.536  1.1578  0.4094 -1.2949
11949TIP3    H257263  -0.061   6.020  11.582  0.4522 -1.1643 -0.0368
11950TIP3   OH257264   0.035   6.356  11.163 -0.2620  0.0104 -0.2146
11950TIP3    H157265   0.050   6.383  11.072 -0.9246  1.3299  0.0440
11950TIP3    H257266  -0.019   6.426  11.200 -1.6306 -1.4509  0.6578
11951TIP3   OH257267   2.136   4.169  12.711 -0.5357  0.2198 -0.5073
11951TIP3    H157268   2.143   4.199  12.801  0.7491  0.4965 -0.6811
11951TIP3    H257269   2.182   4.086  12.709  0.1460  0.5992 -1.0699
11952TIP3   OH257270   6.348   1.717  12.450 -0.0309 -0.0224 -0.2792
11952TIP3    H157271   6.395   1.683  12.373 -2.9111 -1.5286 -1.5268
11952TIP3    H257272   6.322   1.806  12.424  0.3436  0.0569 -0.3947
11953TIP3   OH257273   3.003   4.990   0.615  0.0257 -0.0752  0.0248
11953TIP3    H157274   3.098   4.982   0.621 -0.0644 -0.2629  3.2360
11953TIP3    H257275   2.969   4.916   0.665 -1.8872 -0.4317 -1.6603
11954TIP3   OH257276   0.249   5.287  13.794 -0.0045 -0.4901  0.5318
11954TIP3    H157277   0.249   5.205  13.745 -0.5388 -0.1270 -0.1065
11954TIP3    H257278   0.159   5.297  13.825 -0.1228  0.1800  0.0130
11955TIP3   OH257279   6.341   0.525   5.376 -0.2195  0.5251 -0.1363
11955TIP3    H157280   6.333   0.608   5.423  0.2657  0.4467  0.0851
11955TIP3    H257281   6.411   0.539   5.313  0.2354  0.1189  0.2683
11956TIP3   OH257282   0.146   3.582  11.305 -0.0840 -0.1666 -0.2094
11956TIP3    H157283   0.133   3.502  11.255 -0.9528 -1.2510  1.6557
11956TIP3    H257284   0.076   3.640  11.275 -0.8985 -0.9777  0.0765
11957TIP3   OH257285   3.893   5.953   1.600  0.3287 -0.2813  0.0016
11957TIP3    H157286   3.809   5.921   1.634  0.5479 -0.1629  0.6743
11957TIP3    H257287   3.871   6.037   1.558 -0.1466 -1.0068 -1.2383
11958TIP3   OH257288   5.364   2.244   2.698  0.0545  0.2704 -0.5594
11958TIP3    H157289   5.292   2.204   2.747  0.7693  1.8934  1.9955
11958TIP3    H257290   5.321   2.296   2.631 -0.9859 -1.6859 -1.5071
11959TIP3   OH257291   6.419   0.105   3.872  0.5234  0.1238  0.4117
11959TIP3    H157292   6.376   0.056   3.803  1.8250  1.9014 -1.7904
11959TIP3    H257293   6.502   0.059   3.886  0.0382 -0.5354  1.2166
11960TIP3   OH257294   1.078   0.723   1.119  0.2260 -0.7538  0.3121
11960TIP3    H157295   1.005   0.664   1.138 -0.3199  0.5983  2.8470
11960TIP3    H257296   1.099   0.764   1.203  3.3381 -0.3905 -0.4949
11961TIP3   OH257297   2.422   1.981   2.348  0.4739 -0.5829 -0.0733
11961TIP3    H157298   2.402   1.971   2.255  1.8074 -0.8614 -0.3484
11961TIP3    H257299   2.457   1.895   2.374 -0.7413 -0.7977  0.9194
11962TIP3   OH257300   1.374   5.896   3.446 -0.4756 -0.0917  0.4496
11962TIP3    H157301   1.366   5.802   3.457 -2.0243 -0.2049 -1.1332
11962TIP3    H257302   1.283   5.928   3.447 -0.2368  0.9207 -2.2030
11963TIP3   OH257303   5.089   3.948   0.337  0.3547 -0.1369  0.4684
11963TIP3    H157304   5.029   3.918   0.405 -1.1544  1.8742  0.1408
11963TIP3    H257305   5.040   3.936   0.255 -0.1633  2.5498  0.2855
11964TIP3   OH257306   5.868   0.957  14.289  0.7309 -0.0670  0.4805
11964TIP3    H157307   5.878   1.051  14.271 -0.5198 -0.1656 -0.9049
11964TIP3    H257308   5.801   0.928  14.227  0.8934 -1.8275  1.0888
11965TIP3   OH257309   0.578   1.417  14.763 -0.3074  0.0172 -0.0511
11965TIP3    H157310   0.615   1.506  14.760 -1.7560  0.6457 -2.3539
11965TIP3    H257311   0.550   1.406  14.853  2.8892  0.5457  1.1510
11966TIP3   OH257312   2.921   1.211   2.388 -0.4008  0.1278 -0.3643
11966TIP3    H157313   2.839   1.257   2.369 -0.0933  0.3388 -1.2180
11966TIP3    H257314   2.894   1.136   2.441 -1.0210  0.7470  0.2291
11967TIP3   OH257315   3.853   1.556   1.822  0.4153  0.6055 -0.5968
11967TIP3    H157316   3.851   1.558   1.727  0.7403  1.2565 -0.5989
11967TIP3    H257317   3.914   1.485   1.843 -0.9160 -0.6499 -0.8355
11968TIP3   OH257318   5.509   3.710  15.346 -0.6881 -0.5256  0.3043
11968TIP3    H157319   5.549   3.796  15.338  1.9049 -1.8154 -2.4910
11968TIP3    H257320   5.541   3.676  15.430  1.3994 -0.1822 -0.3063
11969TIP3   OH257321   2.563   0.355  16.198  0.2601 -0.0649 -0.3330
11969TIP3    H157322   2.641   0.355  16.253 -1.2330  3.7414  2.1972
11969TIP3    H257323   2.579   0.425  16.134 -0.1291 -0.9711 -1.4621
11970TIP3   OH257324   3.452   1.597  13.930 -0.1695  0.4130  0.4972
11970TIP3    H157325   3.443   1.676  13.877  5.1261  2.6329  2.1792
11970TIP3    H257326   3.473   1.528  13.867 -1.1471  1.2202 -0.7524
11971TIP3   OH257327   5.732   0.725  13.309  0.3528 -0.4108  0.3452
11971TIP3    H157328   5.691   0.811  13.295 -0.1357 -0.3369  2.0823
11971TIP3    H257329   5.764   0.701  13.222  1.4269  1.9800 -0.0048
11972TIP3   OH257330   5.835   2.206   3.635  0.3789 -0.1697  0.2284
11972TIP3    H157331   5.807   2.116   3.615 -0.6868  0.5441 -1.7166
11972TIP3    H257332   5.928   2.197   3.657  0.5207 -1.6634 -0.7751
11973TIP3   OH257333   3.813   2.784   3.923 -0.2813  0.4566  0.1489
11973TIP3    H157334   3.717   2.789   3.926 -0.3819 -1.1683  0.3355
11973TIP3    H257335   3.841   2.861   3.972 -1.4549  1.7540 -1.1234
11974TIP3   OH257336   4.211   0.806   0.352  0.0228  0.6063 -0.5358
11974TIP3    H157337   4.303   0.789   0.371 -0.0573  0.2599 -0.4467
11974TIP3    H257338   4.211   0.832   0.260  0.2122  0.6265 -0.5319
11975TIP3   OH257339   0.818   2.855  13.764 -0.0122  0.0526 -0.2699
11975TIP3    H157340   0.772   2.826  13.843  0.3726  0.4221  0.0939
11975TIP3    H257341   0.842   2.946  13.781  0.6513 -0.0622 -0.5460
11976TIP3   OH257342   4.408   6.439   4.514  0.5507 -0.0284 -0.0368
11976TIP3    H157343   4.313   6.432   4.521  0.6457 -1.4420  0.0925
11976TIP3    H257344   4.430   6.521   4.559 -0.7750  1.3985 -1.8395
11977TIP3   OH257345   1.311   5.416   4.305 -0.1620  0.3592  0.1600
11977TIP3    H157346   1.373   5.449   4.370  0.0445  0.3582 -0.0360
11977TIP3    H257347   1.225   5.442   4.339 -0.0076  1.0304  0.0527
11978TIP3   OH257348   4.311   1.767   1.439  0.3210  0.0676  0.1782
11978TIP3    H157349   4.350   1.782   1.352  1.6072  1.7166  0.9804
11978TIP3    H257350   4.219   1.749   1.421  0.6054  0.1727 -1.5460
11979TIP3   OH257351   2.879   0.082   1.791 -0.3297  0.3383  0.7404
11979TIP3    H157352   2.932   0.102   1.714 -0.8486 -1.4148 -0.1312
11979TIP3    H257353   2.790   0.101   1.764 -0.4619  0.1891  1.0731
11980TIP3   OH257354   4.479   4.170   5.191 -0.1486 -0.1429 -0.0313
11980TIP3    H157355   4.487   4.260   5.222  1.3282 -0.1637 -0.2604
11980TIP3    H257356   4.396   4.139   5.228  0.0850  0.8018  1.3800
11981TIP3   OH257357   1.467   4.965  17.165  0.1692 -0.9963 -0.3576
11981TIP3    H157358   1.440   4.930  17.080 -1.7950  0.0473 -0.2338
11981TIP3    H257359   1.479   4.888  17.220 -0.6890 -1.6280 -1.0196
11982TIP3   OH257360   2.054   3.635  15.705 -0.0193 -0.3529 -0.1078
11982TIP3    H157361   1.982   3.617  15.644  0.6717 -0.0212 -1.0469
11982TIP3    H257362   2.013   3.637  15.791 -0.8170 -2.2451 -0.3849
11983TIP3   OH257363   1.876   2.303   2.521 -0.2289 -0.2647  0.5720
11983TIP3    H157364   1.841   2.361   2.453  0.3194 -2.7488 -2.0609
11983TIP3    H257365   1.798   2.266   2.563 -0.7147 -0.7531 -0.6825
11984TIP3   OH257366   3.118   6.212  14.463  0.0244 -0.1992  0.1693
11984TIP3    H157367   3.197   6.238  14.416  0.3048 -0.9282  0.2257
11984TIP3    H257368   3.142   6.132  14.508 -0.9867 -0.9047 -0.4892
11985TIP3   OH257369   6.726   2.412   6.551  0.0098  0.2911 -0.9751
11985TIP3    H157370   6.795   2.478   6.546 -0.7003  1.0304 -1.3707
11985TIP3    H257371   6.771   2.329   6.536  1.1957  0.4716  1.1827
11986TIP3   OH257372   3.454   3.432  14.429  0.0190  0.3819 -0.0676
11986TIP3    H157373   3.466   3.341  14.401  1.5445  0.6128 -0.2505
11986TIP3    H257374   3.359   3.443  14.437 -0.3995 -0.2907 -3.0942
11987TIP3   OH257375   3.856   0.922   5.218  0.5981 -0.0483 -0.4405
11987TIP3    H157376   3.892   0.940   5.132  0.5161 -0.3414 -0.5377
11987TIP3    H257377   3.845   1.008   5.258  2.1817  0.0248 -0.0904
11988TIP3   OH257378   4.164   2.781  11.789  0.0084 -0.7565 -0.2210
11988TIP3    H157379   4.232   2.847  11.773 -0.5805 -0.6625 -2.7445
11988TIP3    H257380   4.210   2.710  11.833  1.5336 -0.2524 -0.9286
11989TIP3   OH257381   1.073   6.096   1.994 -0.0507 -0.2339  0.1421
11989TIP3    H157382   1.000   6.129   2.046  0.8294  1.1810  0.5546
11989TIP3    H257383   1.034   6.035   1.932 -1.3696 -0.5896  1.2823
11990TIP3   OH257384   5.459   2.749  16.607  0.3515 -0.2355 -0.9450
11990TIP3    H157385   5.518   2.680  16.636  0.2036 -0.8138 -1.9612
11990TIP3    H257386   5.372   2.709  16.612  0.0451  0.5188  0.2797
11991TIP3   OH257387   3.459   5.201  11.131 -0.4361 -0.5205  0.3574
11991TIP3    H157388   3.532   5.186  11.071 -0.4333 -0.3536  0.3183
11991TIP3    H257389   3.397   5.129  11.113 -0.2992 -0.6411  0.3665
11992TIP3   OH257390   2.335   6.520   2.502 -0.1613 -0.2605 -0.2866
11992TIP3    H157391   2.427   6.518   2.475 -0.4101 -0.8632 -1.1065
11992TIP3    H257392   2.338   6.552   2.592  0.7889  0.5420 -0.5743
11993TIP3   OH257393   2.315   0.679  16.260  0.1236  0.3756  0.6626
11993TIP3    H157394   2.239   0.715  16.306 -0.9744  2.8488 -2.7489
11993TIP3    H257395   2.301   0.584  16.260 -3.3849  0.7776 -0.3948
11994TIP3   OH257396   1.684   4.235   4.514  0.0204 -1.1910  0.0869
11994TIP3    H157397   1.597   4.237   4.554 -0.0520 -0.7953 -0.0807
11994TIP3    H257398   1.743   4.266   4.583  0.0234 -1.4325  0.1918
11995TIP3   OH257399   2.419   4.411  14.391  0.2566 -0.1360  0.7300
11995TIP3    H157400   2.396   4.322  14.418 -0.0457  0.2203  1.6942
11995TIP3    H257401   2.336   4.456  14.383  0.4337  0.1809  0.6602
11996TIP3   OH257402   2.388   4.098  11.595  0.6816  0.3279 -0.1917
11996TIP3    H157403   2.378   4.018  11.648  0.2322  0.2802 -0.3391
11996TIP3    H257404   2.380   4.170  11.658 -2.5729  0.3753 -0.4741
11997TIP3   OH257405   4.826   5.434  17.266 -0.5181  0.1405 -0.2462
11997TIP3    H157406   4.799   5.376  17.336  0.8951  0.5374  0.6749
11997TIP3    H257407   4.919   5.415  17.254  0.3557  3.0568  1.0161
11998TIP3   OH257408   1.849   0.052   4.830 -0.2809  0.1899 -0.3600
11998TIP3    H157409   1.865   0.077   4.921 -0.6256 -0.8883  0.0147
11998TIP3    H257410   1.937   0.042   4.793 -0.0723  3.1881 -0.9459
11999TIP3   OH257411   1.364   4.194  16.538 -0.3269 -0.1858  0.0243
11999TIP3    H157412   1.358   4.267  16.598 -0.6335 -0.1097 -0.0964
11999TIP3    H257413   1.454   4.162  16.547  0.7283  1.9492 -1.9552
12000TIP3   OH257414   0.538   4.586  12.075 -0.1222  0.6643  0.1203
12000TIP3    H157415   0.492   4.513  12.033 -0.0138  1.2293 -1.0184
12000TIP3    H257416   0.495   4.595  12.160 -0.7836 -0.1017 -0.1161
12001TIP3   OH257417   0.952   4.900  11.893  0.0998 -0.5570 -0.4998
12001TIP3    H157418   0.941   4.856  11.978 -0.0630  0.0307 -0.2128
12001TIP3    H257419   0.884   4.967  11.892  0.4989 -0.1529 -0.8328
12002TIP3   OH257420   4.400   4.417  11.678 -0.1459 -0.1157  0.2190
12002TIP3    H157421   4.404   4.510  11.653 -1.5337 -0.2135 -0.4417
12002TIP3    H257422   4.451   4.413  11.759 -0.7295  1.3913  0.7091
12003TIP3   OH257423   3.451   1.038  15.363 -0.0381  0.2181 -0.4421
12003TIP3    H157424   3.461   1.064  15.271  0.7144  0.1672 -0.3823
12003TIP3    H257425   3.443   0.943  15.360  1.9571 -0.0026 -0.3422
12004TIP3   OH257426   1.715   3.942  16.125 -0.0450  0.6555  0.2377
12004TIP3    H157427   1.658   3.958  16.201 -1.5474 -0.6680 -0.5546
12004TIP3    H257428   1.801   3.973  16.153 -0.6411  0.5780  2.3367
12005TIP3   OH257429   0.705   0.637  11.464 -0.4555 -0.3045  0.0172
12005TIP3    H157430   0.700   0.616  11.557 -2.1426 -0.8853 -0.1766
12005TIP3    H257431   0.655   0.717  11.454 -0.7500 -0.5462 -0.4790
12006TIP3   OH257432   0.380   1.647   3.466  0.2391 -0.1199  0.1707
12006TIP3    H157433   0.468   1.625   3.497  0.1051 -1.5846 -0.4300
12006TIP3    H257434   0.322   1.608   3.531  0.0073 -0.8500 -0.4681
12007TIP3   OH257435   3.535   5.630  13.720  0.1436  0.7123  0.2799
12007TIP3    H157436   3.556   5.545  13.760  1.1767  1.6164  1.7557
12007TIP3    H257437   3.486   5.677  13.788 -0.0183  1.4739 -0.3524
12008TIP3   OH257438   1.119   2.908  14.490  0.7398 -0.0214 -0.2616
12008TIP3    H157439   1.194   2.906  14.550  0.5086 -0.7948  0.0097
12008TIP3    H257440   1.042   2.911  14.546  0.5484  3.1689 -0.5193
12009TIP3   OH257441   3.244   6.345   1.877  0.1931 -0.5472  0.1963
12009TIP3    H157442   3.229   6.344   1.972 -0.2201  3.8434  0.3943
12009TIP3    H257443   3.166   6.303   1.841 -0.3812 -0.9281  1.7617
12010TIP3   OH257444   1.520   0.674   5.748  0.5827 -0.2476  0.1989
12010TIP3    H157445   1.570   0.593   5.752 -0.0853 -0.9047 -2.9119
12010TIP3    H257446   1.557   0.722   5.674 -0.0771  1.5998  1.0068
12011TIP3   OH257447   6.063   2.315  11.898  0.2431  0.1960 -0.3519
12011TIP3    H157448   6.055   2.242  11.836  1.3959 -1.0844  0.9293
12011TIP3    H257449   6.098   2.387  11.846  0.3322 -0.5733 -1.3875
12012TIP3   OH257450   1.649   4.319  12.372  0.4049 -0.5915  0.9339
12012TIP3    H157451   1.741   4.292  12.372  0.4900 -0.3115  1.1086
12012TIP3    H257452   1.634   4.352  12.461  0.0858 -0.8010  0.9593
12013TIP3   OH257453   2.008   1.772   2.187 -0.3509  0.4819  0.1102
12013TIP3    H157454   2.074   1.748   2.252 -0.2761 -0.7994 -0.3921
12013TIP3    H257455   1.925   1.743   2.226 -0.3533  0.1032 -0.1652
12014TIP3   OH257456   0.783   1.199   3.006 -0.2734 -0.0603 -0.5841
12014TIP3    H157457   0.702   1.166   3.047  0.2993 -1.6115 -0.6254
12014TIP3    H257458   0.801   1.137   2.936  2.0484 -0.9962  0.7142
12015TIP3   OH257459   0.320   0.701   4.552 -0.1206 -0.3330  0.1407
12015TIP3    H157460   0.391   0.751   4.592 -0.7492  0.0131  0.8357
12015TIP3    H257461   0.299   0.749   4.472 -0.0453 -0.0420  0.2937
12016TIP3   OH257462   3.128   4.771   6.415 -0.2349 -0.4265 -0.1509
12016TIP3    H157463   3.128   4.685   6.457 -2.0337 -1.5455 -2.2389
12016TIP3    H257464   3.110   4.832   6.486  0.0825 -1.8496  1.2156
12017TIP3   OH257465   3.027   4.699   1.686  0.0751 -0.0271 -0.3229
12017TIP3    H157466   2.982   4.761   1.628  0.6749 -0.1695 -0.9607
12017TIP3    H257467   2.961   4.633   1.707 -0.2485  0.2137 -0.5693
12018TIP3   OH257468   1.092   1.890  13.201  0.4737  0.4586 -0.4597
12018TIP3    H157469   1.063   1.981  13.210  2.2072  0.9371  0.6905
12018TIP3    H257470   1.026   1.839  13.246  0.3991  1.3318  0.4493
12019TIP3   OH257471   5.228   4.963   3.037  0.0076  0.0241  0.3279
12019TIP3    H157472   5.277   4.883   3.019 -0.4996 -0.1165 -0.4560
12019TIP3    H257473   5.283   5.010   3.100  0.6136 -0.6388  0.3181
12020TIP3   OH257474   2.816   3.883  14.352 -0.5787  0.7631 -0.0915
12020TIP3    H157475   2.767   3.892  14.270 -0.1887  0.6305 -0.3438
12020TIP3    H257476   2.750   3.859  14.417 -1.0148  1.5811 -0.2091
12021TIP3   OH257477   1.252   0.241   1.552 -0.3116  0.1632  0.2388
12021TIP3    H157478   1.162   0.219   1.578 -0.3149 -0.0502  0.0484
12021TIP3    H257479   1.307   0.200   1.619 -0.0157 -4.4895 -2.4081
12022TIP3   OH257480   2.460   3.676  10.982 -0.1986  0.5485 -0.5469
12022TIP3    H157481   2.365   3.675  10.991 -0.1034 -0.5023  0.7133
12022TIP3    H257482   2.478   3.614  10.912 -0.4105 -0.0402 -0.0944
12023TIP3   OH257483   2.742   5.847  15.184 -0.2555 -0.1703 -0.5183
12023TIP3    H157484   2.818   5.885  15.141 -0.4580 -0.0860 -0.8111
12023TIP3    H257485   2.725   5.904  15.259  0.6138 -0.8066  0.1700
12024TIP3   OH257486   3.769   0.574   0.751  0.6972 -0.5253 -0.6049
12024TIP3    H157487   3.760   0.626   0.672  0.4027  1.0877  0.4533
12024TIP3    H257488   3.863   0.573   0.769  0.6330  0.3466 -0.1872
12025TIP3   OH257489   5.767   1.856   4.701 -0.0754 -0.2854  0.3969
12025TIP3    H157490   5.691   1.912   4.717  0.0557 -0.3590  1.3692
12025TIP3    H257491   5.733   1.784   4.648 -0.0676  1.1073 -1.6099
12026TIP3   OH257492   4.257   0.087   5.263 -0.1502 -0.5105  0.3175
12026TIP3    H157493   4.259   0.171   5.308  1.9260 -0.4053  0.1223
12026TIP3    H257494   4.300   0.027   5.324 -0.7708 -1.2382  0.0574
12027TIP3   OH257495   5.370   5.844  13.266 -0.5436  0.6460 -0.0223
12027TIP3    H157496   5.362   5.905  13.339 -1.9709  0.2201  0.1998
12027TIP3    H257497   5.282   5.838  13.230 -0.5732 -1.6627  0.2710
12028TIP3   OH257498   5.519   5.949  12.354  0.3977  0.4005  0.7374
12028TIP3    H157499   5.571   5.993  12.421  0.2226  0.9024  0.5502
12028TIP3    H257500   5.483   6.020  12.301 -0.0245  0.0388  0.5282
12029TIP3   OH257501   1.325   4.641  15.319  0.2643 -0.5520 -0.2019
12029TIP3    H157502   1.332   4.555  15.277  0.8184 -0.2455 -0.7540
12029TIP3    H257503   1.384   4.697  15.268 -0.4724  0.2766 -0.1611
12030TIP3   OH257504   2.441   6.160   3.291  0.0205 -0.1427  0.0547
12030TIP3    H157505   2.411   6.218   3.361 -0.9920  0.7638 -1.0734
12030TIP3    H257506   2.360   6.128   3.251  0.5599 -2.4157  0.6897
12031TIP3   OH257507   0.271   3.172   3.512  0.0665  0.1549 -0.6742
12031TIP3    H157508   0.301   3.083   3.530  3.6131  1.5039  0.9229
12031TIP3    H257509   0.347   3.217   3.475 -1.2731  2.7957 -0.4710
12032TIP3   OH257510   1.825   0.310   5.612  0.2065  0.0387 -0.4634
12032TIP3    H157511   1.849   0.218   5.623  0.2630  0.2697  2.0533
12032TIP3    H257512   1.902   0.358   5.643 -0.1283  0.9241 -0.9822
12033TIP3   OH257513   5.145   5.794  15.356  0.7061 -0.1800 -0.0305
12033TIP3    H157514   5.099   5.868  15.395 -0.7030 -0.3276 -1.3422
12033TIP3    H257515   5.238   5.820  15.358  0.1888  1.9623 -1.1573
12034TIP3   OH257516   4.628   2.096   5.943 -0.7010 -0.6206  0.3618
12034TIP3    H157517   4.592   2.169   5.992 -0.7142  0.3615 -1.0465
12034TIP3    H257518   4.552   2.053   5.903 -0.6737 -1.2762  0.9955
12035TIP3   OH257519   2.618   4.882   1.550  0.6100  0.1655 -0.2278
12035TIP3    H157520   2.615   4.938   1.473  1.2966 -1.0456 -1.1796
12035TIP3    H257521   2.539   4.904   1.599 -0.0674  0.6619 -1.4954
12036TIP3   OH257522   3.538   2.114  16.205 -0.1253 -0.3403  0.2202
12036TIP3    H157523   3.588   2.142  16.282  0.7334 -1.4311  0.0808
12036TIP3    H257524   3.567   2.024  16.188 -2.2291 -1.0866  0.1954
12037TIP3   OH257525   0.494   6.590   6.008  0.1689  0.4927  0.6175
12037TIP3    H157526   0.510   6.506   6.051  0.3264 -0.0037 -0.3612
12037TIP3    H257527   0.580   6.631   6.002  0.5322 -0.4019 -1.0924
12038TIP3   OH257528   1.084   4.999   5.918 -0.5154  0.2099  0.3138
12038TIP3    H157529   1.108   5.005   5.825 -1.1133 -0.2727  0.1247
12038TIP3    H257530   1.121   4.915   5.947  0.0973  0.5830  0.6491
12039TIP3   OH257531   6.517   5.762  13.037 -0.0437  0.1665 -0.1581
12039TIP3    H157532   6.551   5.791  12.952  0.0572 -0.4899 -0.3509
12039TIP3    H257533   6.572   5.807  13.101 -0.1095  0.6563 -0.4402
12040TIP3   OH257534   0.343   5.696  13.749 -0.1291 -0.1807  0.9315
12040TIP3    H157535   0.373   5.776  13.792  2.0423 -0.2062 -0.4298
12040TIP3    H257536   0.404   5.628  13.778  1.3347 -0.2255 -1.9653
12041TIP3   OH257537   2.925   2.415  14.726  0.1959 -0.0835  0.2550
12041TIP3    H157538   2.930   2.466  14.645  1.0669  1.3774  1.1902
12041TIP3    H257539   2.999   2.355  14.721  1.9888  1.8994  1.1352
12042TIP3   OH257540   2.555   2.168  16.083  0.2421  0.0859  0.2963
12042TIP3    H157541   2.536   2.154  15.991 -0.5897  3.1143 -0.0750
12042TIP3    H257542   2.579   2.260  16.090  0.8361 -0.1813  3.0274
12043TIP3   OH257543   5.807   3.252  12.074  0.1684  0.1795  0.1182
12043TIP3    H157544   5.859   3.327  12.102  0.2073 -0.4294  1.8071
12043TIP3    H257545   5.821   3.247  11.980  1.5089  1.2850  0.2216
12044TIP3   OH257546   2.900   5.130   0.106  0.0255 -0.6511 -0.0721
12044TIP3    H157547   2.887   5.115   0.200  0.1889 -0.0242  0.0510
12044TIP3    H257548   2.959   5.060   0.079  0.8313 -0.2182  0.5153
12045TIP3   OH257549   4.365   0.303   2.163 -0.4458 -0.1184 -0.1557
12045TIP3    H157550   4.372   0.259   2.248 -1.3354  0.1815  0.0779
12045TIP3    H257551   4.435   0.264   2.110  1.0025  0.6527  1.1252
12046TIP3   OH257552   5.317   3.157  15.894 -0.0047 -0.1621  0.4338
12046TIP3    H157553   5.262   3.147  15.816 -1.9681  0.0881  1.7111
12046TIP3    H257554   5.340   3.250  15.895  4.4883 -0.9060 -2.5584
12047TIP3   OH257555   3.730   4.413  15.108 -0.1921  0.1161  0.3459
12047TIP3    H157556   3.673   4.368  15.046 -0.2902 -0.7928  1.0757
12047TIP3    H257557   3.685   4.495  15.127 -0.5253  0.0616 -0.2100
12048TIP3   OH257558   5.041   5.433   0.646  0.3777 -0.2941 -0.3319
12048TIP3    H157559   4.952   5.401   0.633  1.0855 -1.6812 -2.4112
12048TIP3    H257560   5.071   5.457   0.558  2.2796 -0.5241  0.2024
12049TIP3   OH257561   5.888   2.265   1.552 -0.3964  0.2451  0.7660
12049TIP3    H157562   5.948   2.201   1.589 -0.6434 -0.6519 -0.3329
12049TIP3    H257563   5.933   2.300   1.475 -2.1195 -2.2367 -1.5721
12050TIP3   OH257564   0.602   6.547  14.476 -0.1235  0.2474  0.6389
12050TIP3    H157565   0.672   6.547  14.541  2.1504 -1.8102 -1.5660
12050TIP3    H257566   0.612   6.464  14.429 -1.3184  1.7087 -2.5366
12051TIP3   OH257567   4.581   2.886  12.222  0.9416  0.1336  0.2802
12051TIP3    H157568   4.554   2.955  12.161 -0.7637  1.6492  2.6070
12051TIP3    H257569   4.503   2.830  12.230  2.0893 -1.7658 -1.0558
12052TIP3   OH257570   3.595   1.303  12.602  0.1105 -0.0306 -0.4268
12052TIP3    H157571   3.654   1.229  12.622  0.9841  0.6251 -0.5237
12052TIP3    H257572   3.580   1.344  12.687 -1.6910 -1.2557 -0.1131
12053TIP3   OH257573   2.428   3.378   1.898 -0.1618 -0.1087  0.6031
12053TIP3    H157574   2.349   3.381   1.953  1.8027 -0.0314  3.6727
12053TIP3    H257575   2.445   3.470   1.877  0.8196  0.2549  2.7376
12054TIP3   OH257576   5.088   3.693   5.991 -0.0328  1.0594  0.0536
12054TIP3    H157577   5.095   3.709   5.897 -1.7828  1.0816 -0.1154
12054TIP3    H257578   5.065   3.779   6.028 -2.8942  0.4320 -0.0128
12055TIP3   OH257579   6.226   5.819   4.145 -0.5780 -0.1615  0.5374
12055TIP3    H157580   6.235   5.846   4.054 -0.9004  2.8409  1.2876
12055TIP3    H257581   6.132   5.806   4.158 -0.5767 -0.1479  0.5597
12056TIP3   OH257582   4.471   4.565  13.394  0.4146 -0.5166 -0.5631
12056TIP3    H157583   4.457   4.538  13.303  1.2524 -0.4574 -0.7182
12056TIP3    H257584   4.409   4.511  13.444 -0.2612 -0.3395 -1.1880
12057TIP3   OH257585   6.207   1.915  16.979  0.0022  0.7544  0.6888
12057TIP3    H157586   6.167   1.998  16.953 -0.0223  0.4379 -0.3665
12057TIP3    H257587   6.159   1.887  17.056 -1.0146  0.9684  0.1415
12058TIP3   OH257588   6.161   5.002  14.028 -0.2200  0.5348 -0.0746
12058TIP3    H157589   6.119   5.052  14.098 -0.1526 -0.2584  0.5552
12058TIP3    H257590   6.197   4.925  14.072 -1.0044 -0.4661 -1.1265
12059TIP3   OH257591   1.328   6.712  15.765 -0.0554 -0.2201  0.5703
12059TIP3    H157592   1.266   6.649  15.802  1.1212 -0.8435  1.5660
12059TIP3    H257593   1.337   6.779  15.833  0.9013 -0.5277  0.7693
12060TIP3   OH257594   5.894   4.601  14.198  0.4437 -0.3628  0.5270
12060TIP3    H157595   5.923   4.692  14.205 -0.1447  0.2725 -3.2989
12060TIP3    H257596   5.856   4.582  14.284  2.8618  2.0760  2.3334
12061TIP3   OH257597   2.054   3.092   2.745 -0.0570  0.1668 -0.1057
12061TIP3    H157598   1.976   3.040   2.730 -0.1441 -0.2667  1.6355
12061TIP3    H257599   2.024   3.167   2.796  0.3040  1.2012 -1.3754
12062TIP3   OH257600   6.725   4.086   4.788 -0.1808  0.6895  1.0295
12062TIP3    H157601   6.666   4.016   4.759 -0.3627  1.2194  0.1040
12062TIP3    H257602   6.787   4.097   4.716  0.0615  1.2460  1.3196
12063TIP3   OH257603   0.190   4.582   1.485  0.3230 -0.5193 -0.3813
12063TIP3    H157604   0.124   4.604   1.419  0.3322 -0.4419 -0.3643
12063TIP3    H257605   0.192   4.657   1.543  0.1220 -0.7020 -0.1387
12064TIP3   OH257606   1.392   5.850   5.329  0.0903  0.9848 -0.0522
12064TIP3    H157607   1.340   5.771   5.342 -1.4866  1.9624 -0.0755
12064TIP3    H257608   1.479   5.819   5.304 -0.1236 -0.7318  1.2092
12065TIP3   OH257609   5.908   3.827   1.271 -0.3476 -0.1433  0.2127
12065TIP3    H157610   5.860   3.901   1.234 -0.9693  0.0325  1.3209
12065TIP3    H257611   5.997   3.861   1.286  0.5965 -0.8453 -3.0498
12066TIP3   OH257612   2.770   5.309  11.302  0.1194  0.1503  0.4692
12066TIP3    H157613   2.728   5.366  11.237 -0.1823 -0.1618  0.3899
12066TIP3    H257614   2.709   5.237  11.314  0.0862  0.2855  1.2211
12067TIP3   OH257615   6.661   6.034   2.553  0.2737 -0.2807 -0.2976
12067TIP3    H157616   6.731   6.049   2.490 -0.8316 -0.9733 -1.7480
12067TIP3    H257617   6.583   6.022   2.499 -0.9181  0.1706  1.2542
12068TIP3   OH257618   6.388   0.982   2.532  0.5044 -0.0695  0.4777
12068TIP3    H157619   6.325   0.968   2.603  0.7856  2.0892  1.2388
12068TIP3    H257620   6.467   0.938   2.561 -0.0057 -1.0057  0.4941
12069TIP3   OH257621   3.815   4.818  11.502 -0.0969 -0.4345 -0.2177
12069TIP3    H157622   3.809   4.781  11.590  0.7488 -0.5957 -0.2238
12069TIP3    H257623   3.909   4.825  11.485 -0.0009  3.9488  0.7360
12070TIP3   OH257624   6.501   5.396   3.926  0.6900  0.0227 -0.1939
12070TIP3    H157625   6.470   5.371   3.839  1.6567  1.5421 -1.0400
12070TIP3    H257626   6.477   5.323   3.983 -0.8786 -0.5566 -1.5276
12071TIP3   OH257627   1.672   0.711  12.144  0.2347 -0.0197 -0.4179
12071TIP3    H157628   1.687   0.718  12.238 -2.7075 -0.6436  0.1936
12071TIP3    H257629   1.614   0.784  12.122 -1.0937 -1.2267 -1.1945
12072TIP3   OH257630   6.535   0.261   5.240 -0.0533 -0.4096  0.2201
12072TIP3    H157631   6.561   0.260   5.148  0.7422  0.0507  0.4254
12072TIP3    H257632   6.440   0.256   5.239 -0.2489  2.1453 -0.7459
12073TIP3   OH257633   4.867   4.283   2.706  0.1372 -0.2226 -0.0337
12073TIP3    H157634   4.838   4.310   2.620  0.2922 -0.1483 -0.0625
12073TIP3    H257635   4.790   4.241   2.746 -0.6425  1.7889  0.6911
12074TIP3   OH257636   0.580   1.891   5.422  0.4638 -0.3258  0.2841
12074TIP3    H157637   0.613   1.885   5.332 -2.0168 -1.2602 -0.6411
12074TIP3    H257638   0.573   1.800   5.451 -0.7816 -0.1573  0.5817
12075TIP3   OH257639   1.062   6.240   1.365 -0.1584  0.6265  0.2704
12075TIP3    H157640   1.129   6.212   1.428  0.0529 -0.3371 -0.3535
12075TIP3    H257641   1.030   6.158   1.327  0.3208  1.2093 -1.4912
12076TIP3   OH257642   3.978   6.413  16.155  0.0006 -0.0817 -0.1172
12076TIP3    H157643   3.919   6.400  16.229 -0.2074  1.4696  0.0147
12076TIP3    H257644   3.966   6.334  16.101 -0.8280 -0.6208  0.8188
12077TIP3   OH257645   6.759   2.771   5.515 -0.1230  0.2134 -0.1944
12077TIP3    H157646   6.691   2.713   5.549 -0.4256  1.1505  0.8696
12077TIP3    H257647   6.721   2.858   5.519  0.5813  0.5832 -1.0908
12078TIP3   OH257648   6.569   4.404   3.829  0.4591  0.0277  0.0703
12078TIP3    H157649   6.532   4.478   3.781  2.8696  1.3500  0.0731
12078TIP3    H257650   6.600   4.345   3.761 -1.0191 -0.7857  0.0690
12079TIP3   OH257651   1.962   0.625  15.218  1.1958 -0.3261  0.1067
12079TIP3    H157652   2.010   0.636  15.136  1.6871 -0.2482  0.3961
12079TIP3    H257653   2.011   0.679  15.281 -0.0733  0.8926  0.0999
12080TIP3   OH257654   4.927   2.156   2.305  0.0332 -0.2129 -0.1530
12080TIP3    H157655   4.980   2.147   2.384  0.0733 -2.5292 -0.3912
12080TIP3    H257656   4.843   2.116   2.327 -0.3884  0.2340 -0.9036
12081TIP3   OH257657   2.398   2.711  16.031  0.3288  0.0855 -0.3748
12081TIP3    H157658   2.400   2.694  16.126 -0.2518 -0.1287 -0.3954
12081TIP3    H257659   2.474   2.766  16.015  0.2101  0.4629  0.2881
12082TIP3   OH257660   3.342   2.098   1.178  0.1432 -0.1228 -0.3159
12082TIP3    H157661   3.380   2.068   1.096  0.8853  1.1403 -0.4501
12082TIP3    H257662   3.266   2.041   1.191  0.1200 -0.4646 -1.7679
12083TIP3   OH257663   6.168   2.702  15.729  0.1590 -0.5784  0.2069
12083TIP3    H157664   6.241   2.748  15.689  0.7979 -1.9738 -0.2917
12083TIP3    H257665   6.129   2.651  15.657 -0.6356 -0.6873  0.6991
12084TIP3   OH257666   2.516   3.472   3.213 -0.4262  0.0334  0.5330
12084TIP3    H157667   2.502   3.473   3.307  1.2484 -1.4977  0.8399
12084TIP3    H257668   2.474   3.391   3.183  1.3665 -0.8930  0.4117
12085TIP3   OH257669   1.685   5.954   0.899  0.2992 -1.0911  0.8130
12085TIP3    H157670   1.744   6.024   0.873 -2.6996  0.5902 -2.3927
12085TIP3    H257671   1.731   5.874   0.876  2.3083 -0.0117  0.8696
12086TIP3   OH257672   2.669   4.595  11.982 -0.6993 -0.4851  0.2937
12086TIP3    H157673   2.646   4.503  11.995 -2.2298  0.0497  1.7898
12086TIP3    H257674   2.589   4.643  12.002  0.7062  1.3230  1.9944
12087TIP3   OH257675   4.770   0.815   0.312 -0.1295  0.5653 -0.3388
12087TIP3    H157676   4.701   0.780   0.370  0.2028  0.8069  0.2097
12087TIP3    H257677   4.850   0.774   0.343  0.1621  1.2677 -0.1511
12088TIP3   OH257678   0.932   5.255  13.237 -0.2993  0.0123  0.5508
12088TIP3    H157679   0.895   5.168  13.254  0.0406 -0.2973 -0.2636
12088TIP3    H257680   0.860   5.305  13.197 -0.2131 -0.1917  0.1409
12089TIP3   OH257681   2.943   1.605  12.706 -0.0682 -0.2482  0.5839
12089TIP3    H157682   3.034   1.632  12.692 -0.0690  0.5288  1.8913
12089TIP3    H257683   2.895   1.687  12.717 -1.3021 -0.5527 -1.8613
12090TIP3   OH257684   1.988   0.278   1.710  0.1718 -0.6856 -0.4781
12090TIP3    H157685   1.992   0.355   1.767 -0.1479 -0.8521 -0.2306
12090TIP3    H257686   2.059   0.222   1.741 -0.7929 -1.3526  0.6008
12091TIP3   OH257687   4.216   2.281  11.366 -0.5740  0.3660  0.5782
12091TIP3    H157688   4.267   2.308  11.442  0.8316  1.7125 -0.7468
12091TIP3    H257689   4.273   2.219  11.320 -0.5633  1.0270 -0.3397
12092TIP3   OH257690   4.273   2.961  13.759 -0.1240 -0.1560  0.2823
12092TIP3    H157691   4.259   2.978  13.666 -1.2425  4.0443  0.9839
12092TIP3    H257692   4.316   2.876  13.762 -3.5862 -2.4151 -3.7574
12093TIP3   OH257693   4.485   5.396  12.961  0.8743 -0.3537  0.0683
12093TIP3    H157694   4.535   5.467  13.002  0.5027 -1.4354  2.5364
12093TIP3    H257695   4.395   5.410  12.989  0.6121 -1.2107 -0.3090
12094TIP3   OH257696   1.664   1.169  11.773  0.0375  0.0077  0.0770
12094TIP3    H157697   1.751   1.202  11.797 -0.1989  1.3325 -0.7975
12094TIP3    H257698   1.650   1.095  11.832  1.7358 -0.2040  0.2818
12095TIP3   OH257699   1.181   0.972  12.141  0.4296  0.2877 -0.1412
12095TIP3    H157700   1.200   1.040  12.206 -1.8594 -0.0134  0.9521
12095TIP3    H257701   1.104   1.004  12.095 -0.6368 -1.4641  0.3360
12096TIP3   OH257702   3.190   2.453  13.305 -0.0975 -0.1638  0.6858
12096TIP3    H157703   3.258   2.521  13.309  0.0915 -0.2473 -0.6393
12096TIP3    H257704   3.175   2.440  13.211 -2.0835 -0.0157  0.9485
12097TIP3   OH257705   3.144   4.968   5.527 -0.2373  0.3248  0.2897
12097TIP3    H157706   3.211   4.950   5.461 -1.0570  0.7311 -0.6772
12097TIP3    H257707   3.179   4.931   5.608  1.5673  1.3327  0.0095
12098TIP3   OH257708   6.041   5.265  12.660 -0.0320  0.5188  0.3236
12098TIP3    H157709   6.084   5.297  12.580 -0.0702  0.0731  0.1230
12098TIP3    H257710   5.998   5.184  12.634  1.6702 -0.7510  1.2563
12099TIP3   OH257711   0.845   1.003  16.523  0.7398 -0.1384 -0.3205
12099TIP3    H157712   0.874   0.912  16.514 -0.1396 -0.3485 -1.2921
12099TIP3    H257713   0.901   1.052  16.463  0.8781 -0.1204 -0.1759
12100TIP3   OH257714   3.483   4.184  12.423  0.6817 -0.2018  0.0762
12100TIP3    H157715   3.548   4.253  12.432  1.3247 -0.9467  1.4292
12100TIP3    H257716   3.515   4.130  12.351  1.2639 -0.2598  0.3773
12101TIP3   OH257717   5.970   3.199   4.987  0.3023 -0.7701  0.1420
12101TIP3    H157718   5.895   3.253   4.961 -0.3014 -1.7871 -0.2610
12101TIP3    H257719   6.042   3.232   4.934 -0.0120 -0.2237  0.0454
12102TIP3   OH257720   0.652   1.723   2.560 -0.3875 -0.3082  0.0445
12102TIP3    H157721   0.664   1.632   2.532 -0.8230 -0.4021  0.1586
12102TIP3    H257722   0.737   1.748   2.597  0.0312 -0.3493 -0.8779
12103TIP3   OH257723   3.687   1.887   3.601  0.2085 -0.0802 -0.5756
12103TIP3    H157724   3.710   1.798   3.628 -1.2831 -0.4427 -0.3978
12103TIP3    H257725   3.710   1.941   3.676 -0.4326 -0.5622 -0.0164
12104TIP3   OH257726   5.903   5.057   5.956  0.2667 -0.5160 -0.0332
12104TIP3    H157727   5.926   4.964   5.960 -1.0421 -0.8378  0.4104
12104TIP3    H257728   5.857   5.074   6.038  0.1423  0.4310 -0.2863
12105TIP3   OH257729   0.054   0.205  17.052  0.4556 -0.6001  0.0733
12105TIP3    H157730   0.026   0.254  17.129 -0.8730 -0.4137 -0.5056
12105TIP3    H257731   0.006   0.122  17.058  0.1719 -0.4908 -0.6704
12106TIP3   OH257732   2.077   4.461  11.145  0.0081  0.7252 -0.4381
12106TIP3    H157733   2.022   4.398  11.099 -0.7277  0.8510  0.2475
12106TIP3    H257734   2.034   4.546  11.130 -0.2117  0.7715  0.4247
12107TIP3   OH257735   4.543   5.692  15.491  0.2227  0.1181 -0.1924
12107TIP3    H157736   4.529   5.601  15.515  0.1624 -0.4003 -2.0211
12107TIP3    H257737   4.524   5.742  15.570 -2.4061 -1.2532  0.1412
12108TIP3   OH257738   5.715   3.778   0.560  0.0146  0.2348  0.1865
12108TIP3    H157739   5.724   3.868   0.529 -1.2560  0.6976  1.1144
12108TIP3    H257740   5.671   3.733   0.488  0.5921  0.3497 -0.2530
12109TIP3   OH257741   0.944   4.460   5.350  0.7290  0.0421 -0.2296
12109TIP3    H157742   0.883   4.524   5.386  1.0355  0.3358 -0.2245
12109TIP3    H257743   0.897   4.422   5.275  0.6293  0.4372 -0.3720
12110TIP3   OH257744   2.183   4.280   3.599 -0.6644  0.1652  0.2384
12110TIP3    H157745   2.106   4.312   3.645 -0.0392 -0.0725  1.4913
12110TIP3    H257746   2.226   4.358   3.566 -1.0307  0.3517  0.1956
12111TIP3   OH257747   4.889   6.617   6.554 -0.0917  0.0551  0.6665
12111TIP3    H157748   4.901   6.525   6.575  1.7950 -0.1465 -0.9935
12111TIP3    H257749   4.967   6.660   6.589 -0.4837  0.8768  0.5553
12112TIP3   OH257750   0.929   3.025  12.320 -0.2932 -0.6141  0.0977
12112TIP3    H157751   0.896   3.044  12.232 -1.6566 -2.1049  0.2289
12112TIP3    H257752   1.022   3.044  12.315 -0.2195 -1.1801 -1.8642
12113TIP3   OH257753   0.942   4.101   2.601 -0.4420 -0.1964 -0.0215
12113TIP3    H157754   0.849   4.121   2.615 -0.7299 -1.4638 -0.0052
12113TIP3    H257755   0.944   4.058   2.516  0.1146 -0.3030  0.0461
12114TIP3   OH257756   6.691   1.292   0.570 -0.4515  0.4034  0.1245
12114TIP3    H157757   6.616   1.349   0.587 -2.0281 -1.4029 -0.3847
12114TIP3    H257758   6.655   1.203   0.577  2.2532 -0.6337  2.6155
12115TIP3   OH257759   2.673   6.768   0.278  0.0713 -0.4171  0.2988
12115TIP3    H157760   2.663   6.764   0.183  1.9514 -0.4869  0.0663
12115TIP3    H257761   2.596   6.724   0.313 -1.9543  1.7615 -1.1043
12116TIP3   OH257762   0.549   5.051   2.091 -0.4918 -0.4959 -0.1935
12116TIP3    H157763   0.610   5.053   2.164  1.6062 -1.7784 -1.7763
12116TIP3    H257764   0.598   5.091   2.018 -1.7162 -1.1093 -1.3951
12117TIP3   OH257765   6.630   5.129   2.666  0.1223 -0.0049 -0.4044
12117TIP3    H157766   6.631   5.045   2.619 -0.9534  0.1098 -0.6507
12117TIP3    H257767   6.638   5.195   2.598  0.1033  0.1232 -0.2833
12118TIP3   OH257768   4.988   5.558  10.709 -0.4240 -0.0521  0.2669
12118TIP3    H157769   4.962   5.529  10.622  1.1200  0.9093 -0.5579
12118TIP3    H257770   5.069   5.509  10.728  0.2245  1.0157  0.3751
12119TIP3   OH257771   4.513   2.438   2.487  0.5393  0.0210  0.3308
12119TIP3    H157772   4.587   2.486   2.451  0.6403 -1.0640 -0.9959
12119TIP3    H257773   4.437   2.493   2.466  0.9444  1.3094  2.0101
12120TIP3   OH257774   6.426   4.334   0.778 -0.0166  0.0429 -0.4511
12120TIP3    H157775   6.521   4.324   0.786  0.3896  0.6227 -3.3365
12120TIP3    H257776   6.402   4.273   0.708 -1.5050  0.9398 -0.7655
12121TIP3   OH257777   4.923   3.197  14.776  0.1785  0.2668 -0.3444
12121TIP3    H157778   4.991   3.265  14.770 -0.8854  1.3267 -0.7138
12121TIP3    H257779   4.843   3.245  14.797 -0.4279 -0.9909  0.2863
12122TIP3   OH257780   0.910   1.006   2.549 -0.4135 -0.6763 -0.3487
12122TIP3    H157781   0.936   0.925   2.591 -1.9834 -0.4518  1.1309
12122TIP3    H257782   0.958   1.074   2.596 -0.4949 -0.5925 -0.3867
12123TIP3   OH257783   2.858   5.432   4.595 -0.1744 -0.1534  0.0354
12123TIP3    H157784   2.867   5.527   4.591 -0.1983 -0.1476  0.1121
12123TIP3    H257785   2.814   5.415   4.679  1.0177 -0.3203  0.6488
12124TIP3   OH257786   5.223   1.886  13.463 -0.4406  0.0836 -0.1759
12124TIP3    H157787   5.274   1.963  13.485 -0.5988 -0.2820  1.5585
12124TIP3    H257788   5.265   1.850  13.385  0.6057  1.0059 -0.0437
12125TIP3   OH257789   5.446   0.239  13.865  0.8469 -0.1916 -0.1242
12125TIP3    H157790   5.514   0.182  13.827  0.9395 -0.9468  1.1081
12125TIP3    H257791   5.495   0.302  13.917  0.6193 -1.2278  1.4173
12126TIP3   OH257792   4.283   0.110   4.198 -0.3891 -0.5240 -0.9374
12126TIP3    H157793   4.309   0.054   4.124 -2.5207 -2.4278 -0.3539
12126TIP3    H257794   4.188   0.109   4.197 -0.4781  0.2495  1.2282
12127TIP3   OH257795   4.154   6.037  11.257  0.2073  0.3509 -0.3178
12127TIP3    H157796   4.212   6.105  11.224 -1.5568  1.5547 -1.0851
12127TIP3    H257797   4.066   6.067  11.234 -0.6624 -2.0253 -0.3928
12128TIP3   OH257798   5.290   0.681   3.575  0.2152 -0.0505  0.6514
12128TIP3    H157799   5.304   0.586   3.574 -0.6602 -0.2116 -0.8887
12128TIP3    H257800   5.217   0.694   3.636 -0.4703 -0.5418 -0.0346
12129TIP3   OH257801   6.027   0.883   2.423 -0.5586  0.4740 -0.4474
12129TIP3    H157802   5.954   0.874   2.484 -0.2559  0.7937 -0.0324
12129TIP3    H257803   6.003   0.957   2.368 -1.3145 -0.4640 -1.4086
12130TIP3   OH257804   5.256   4.643  10.984 -0.5898 -0.4831 -0.7481
12130TIP3    H157805   5.267   4.569  11.043 -0.3652  0.5973  0.6477
12130TIP3    H257806   5.172   4.628  10.941 -0.9715 -1.1102  0.1828
12131TIP3   OH257807   0.686   1.573  12.952  0.5915 -0.1932  0.1401
12131TIP3    H157808   0.743   1.531  13.017  1.1073 -1.3515 -1.0136
12131TIP3    H257809   0.743   1.587  12.876  0.2325  1.9284  0.1951
12132TIP3   OH257810   1.256   5.337   6.316  0.3423  0.1285  0.3994
12132TIP3    H157811   1.191   5.345   6.386 -0.7772 -0.8095 -0.4751
12132TIP3    H257812   1.238   5.252   6.277  1.4378  0.3085 -0.5547
12133TIP3   OH257813   4.169   0.956   2.759  0.5896  0.0062 -0.2804
12133TIP3    H157814   4.250   0.972   2.807  0.4871 -0.1993 -0.0366
12133TIP3    H257815   4.193   0.888   2.695  0.4909 -0.4022  0.1133
12134TIP3   OH257816   1.618   4.749   5.079  0.0899  0.1260  0.1818
12134TIP3    H157817   1.524   4.766   5.086  0.2015  0.2904  1.4215
12134TIP3    H257818   1.651   4.758   5.168  1.2567 -0.1229 -0.2092
12135TIP3   OH257819   1.669   2.913  15.428 -0.4050 -0.6692  0.1776
12135TIP3    H157820   1.658   2.957  15.343  0.3252 -0.5256  0.1527
12135TIP3    H257821   1.740   2.960  15.470 -0.4283 -1.0644  0.6641
12136TIP3   OH257822   1.835   5.849   0.555 -0.3216 -0.1134 -0.1359
12136TIP3    H157823   1.901   5.836   0.622 -0.2386 -1.6199 -0.4647
12136TIP3    H257824   1.878   5.901   0.488  0.0084  0.2796  0.3741
12137TIP3   OH257825   3.176   4.380   4.226 -0.3147  0.3669  0.0020
12137TIP3    H157826   3.109   4.350   4.165 -1.2427  1.1991  0.5598
12137TIP3    H257827   3.250   4.322   4.212 -1.1474 -0.5716 -0.6581
12138TIP3   OH257828   6.340   0.969   6.092 -0.2297 -0.1172 -0.1933
12138TIP3    H157829   6.318   0.876   6.083  0.1904 -0.1575 -0.9399
12138TIP3    H257830   6.427   0.968   6.134 -1.7006  0.0468  3.2075
12139TIP3   OH257831   3.455   3.063   6.467 -0.0016  0.2661  0.1122
12139TIP3    H157832   3.414   3.103   6.544 -0.1344 -1.3361  0.9257
12139TIP3    H257833   3.519   3.002   6.503 -0.4173 -0.8947 -1.0239
12140TIP3   OH257834   6.259   4.799   4.478  0.2515 -0.5323  0.2943
12140TIP3    H157835   6.174   4.828   4.509  1.2835  1.9592  0.9635
12140TIP3    H257836   6.250   4.797   4.382 -0.4597 -0.0045  0.3451
12141TIP3   OH257837   5.530   4.436  16.230  0.0257  0.0596 -0.3915
12141TIP3    H157838   5.623   4.415  16.240 -0.4238 -1.6937  0.4257
12141TIP3    H257839   5.524   4.476  16.144  1.4687 -0.2419 -0.6597
12142TIP3   OH257840   4.817   2.206   2.056 -0.4213  0.2350 -0.1326
12142TIP3    H157841   4.761   2.281   2.036  0.0644  0.9389  1.0127
12142TIP3    H257842   4.842   2.220   2.148  0.1234 -1.0427 -0.0767
12143TIP3   OH257843   2.652   6.450   2.571 -0.0101  0.0299  0.1689
12143TIP3    H157844   2.658   6.521   2.635  1.5194  1.2703 -1.2616
12143TIP3    H257845   2.631   6.372   2.623  1.3455  0.9443  2.2000
12144TIP3   OH257846   4.182   1.754  16.587 -0.0498  0.1280 -0.0650
12144TIP3    H157847   4.214   1.844  16.583  0.6932 -0.1111  0.2353
12144TIP3    H257848   4.215   1.721  16.670 -1.4563 -0.0082  0.4582
12145TIP3   OH257849   2.912   3.886   2.718  0.2610 -0.1638  0.5878
12145TIP3    H157850   2.882   3.874   2.628  2.1975  0.9325 -0.2662
12145TIP3    H257851   2.851   3.835   2.771  0.2136 -2.4543 -1.5162
12146TIP3   OH257852   0.298   0.883   4.922 -0.4536  0.7279 -0.2216
12146TIP3    H157853   0.235   0.851   4.858 -0.9502  0.5917  0.3292
12146TIP3    H257854   0.255   0.872   5.006 -0.5104  2.5120  0.0266
12147TIP3   OH257855   2.667   0.253   4.073  0.3276 -0.0831  0.1192
12147TIP3    H157856   2.650   0.347   4.080  0.7812 -0.1280  2.2836
12147TIP3    H257857   2.597   0.213   4.124  1.7804 -0.7261  1.6909
12148TIP3   OH257858   0.513   4.164   0.729 -0.2913  0.5360 -0.1429
12148TIP3    H157859   0.600   4.166   0.689 -0.3482 -0.4103 -0.3289
12148TIP3    H257860   0.461   4.109   0.670 -1.1917  1.6099 -0.3766
12149TIP3   OH257861   5.982   6.387  15.505  0.3227  0.1423  0.5195
12149TIP3    H157862   6.010   6.374  15.415 -0.0612 -0.1611  0.4466
12149TIP3    H257863   5.915   6.321  15.520 -1.2008  1.5829  0.3318
12150TIP3   OH257864   4.070   4.459   6.685 -0.1591  0.1762  0.0206
12150TIP3    H157865   4.023   4.542   6.685  0.0532  0.2979 -0.0769
12150TIP3    H257866   4.003   4.393   6.700 -0.2408  0.4199  0.8165
12151TIP3   OH257867   0.110   5.283   1.825 -0.0810  0.0006  0.3890
12151TIP3    H157868   0.175   5.245   1.765  0.1307  0.9202  0.0180
12151TIP3    H257869   0.062   5.345   1.771 -1.5338 -0.9315  0.5632
12152TIP3   OH257870   3.237   3.455  16.550 -1.4554 -0.6838 -0.1766
12152TIP3    H157871   3.236   3.536  16.499 -1.3677 -1.5764 -1.6446
12152TIP3    H257872   3.218   3.386  16.487  0.4392 -2.0350  0.6091
12153TIP3   OH257873   4.223   5.066   1.485  0.6418 -0.2962  0.1087
12153TIP3    H157874   4.267   5.126   1.425  0.0884  0.0073 -0.0024
12153TIP3    H257875   4.220   5.113   1.568  1.5384 -0.7747  0.4227
12154TIP3   OH257876   3.462   6.176  15.824 -0.1250 -0.0973  1.0584
12154TIP3    H157877   3.383   6.152  15.776  0.4156  0.8770 -0.3810
12154TIP3    H257878   3.432   6.237  15.892 -0.8862 -1.4343  1.9615
12155TIP3   OH257879   2.153   1.235  11.248 -0.0606  0.0356 -0.0730
12155TIP3    H157880   2.142   1.187  11.330 -1.4576 -0.8662 -0.7456
12155TIP3    H257881   2.064   1.261  11.223  0.4833  1.4071 -0.6693
12156TIP3   OH257882   5.504   2.509  12.400 -0.4528 -0.6888  0.1523
12156TIP3    H157883   5.547   2.572  12.458  0.5412 -0.3787 -0.9007
12156TIP3    H257884   5.472   2.440  12.459 -0.1917  0.0204  1.1481
12157TIP3   OH257885   4.466   5.960  12.651  0.0929 -0.3521 -0.1957
12157TIP3    H157886   4.382   5.916  12.645 -0.1253  0.1574 -0.9352
12157TIP3    H257887   4.504   5.953  12.563  1.3354 -1.5620  0.3915
12158TIP3   OH257888   4.629   0.556   1.670 -0.0115  0.0118 -0.3265
12158TIP3    H157889   4.713   0.513   1.653 -0.0797 -0.8870  1.4500
12158TIP3    H257890   4.645   0.648   1.645  0.9547 -0.4708 -1.6149
12159TIP3   OH257891   4.727   4.094  15.575  0.2473  0.0382  0.0646
12159TIP3    H157892   4.797   4.159  15.566  0.6185  0.0072  2.2506
12159TIP3    H257893   4.667   4.132  15.639 -0.8013 -0.7439 -0.4241
12160TIP3   OH257894   4.524   6.238   4.712  0.7298 -0.1180 -0.3864
12160TIP3    H157895   4.558   6.188   4.786  1.7642  1.2335  0.0881
12160TIP3    H257896   4.502   6.171   4.647 -0.9888 -1.4202  1.3974
12161TIP3   OH257897   1.766   1.891  16.972 -0.1949  0.0441 -1.1969
12161TIP3    H157898   1.702   1.853  16.913 -0.2325 -0.0696 -1.0826
12161TIP3    H257899   1.717   1.909  17.052  0.2407 -1.4470 -0.5673
12162TIP3   OH257900   5.064   2.949   4.686  0.0105  0.3508  0.3083
12162TIP3    H157901   5.039   2.862   4.654  1.7304 -0.2458  0.4822
12162TIP3    H257902   5.038   2.949   4.778 -0.3576  0.1784  0.2066
12163TIP3   OH257903   4.625   3.966  16.358  0.3349 -0.4121  0.2382
12163TIP3    H157904   4.675   3.921  16.290 -0.8214 -1.4712  0.0486
12163TIP3    H257905   4.687   3.979  16.429  1.2656 -0.3235 -0.5703
12164TIP3   OH257906   2.620   4.356  13.292  0.1626  0.0109 -0.3245
12164TIP3    H157907   2.536   4.311  13.299 -0.4809  1.3665  1.2953
12164TIP3    H257908   2.683   4.286  13.275 -1.0513 -1.2419  0.1078
12165TIP3   OH257909   6.236   4.235   2.962 -0.6001 -0.6533 -0.4017
12165TIP3    H157910   6.142   4.222   2.949 -1.2186  2.2027  0.4282
12165TIP3    H257911   6.259   4.177   3.034 -2.7308  1.3381  2.1024
12166TIP3   OH257912   5.922   3.245  15.090  0.2393 -0.0526 -0.2172
12166TIP3    H157913   5.880   3.318  15.135  0.5006  0.5427 -0.9354
12166TIP3    H257914   5.926   3.176  15.157  1.1353  0.9973  0.8683
12167TIP3   OH257915   3.144   3.281   4.947  0.5359  0.2744 -0.0458
12167TIP3    H157916   3.142   3.187   4.927 -0.5368 -0.3170  2.3983
12167TIP3    H257917   3.054   3.310   4.935  0.7433  0.8660 -0.2150
12168TIP3   OH257918   3.668   5.380  16.390 -0.2918  0.2945 -0.0735
12168TIP3    H157919   3.693   5.379  16.482 -0.7297 -0.0023  0.0497
12168TIP3    H257920   3.751   5.380  16.342 -0.0365 -0.9600  0.3119
12169TIP3   OH257921   1.880   1.373  11.066 -0.3545  0.0055 -0.1046
12169TIP3    H157922   1.805   1.405  11.017 -2.1150 -1.7611  1.2999
12169TIP3    H257923   1.859   1.283  11.088  2.6051 -0.8614 -0.4088
12170TIP3   OH257924   0.470   3.987   3.148 -0.1382 -1.0152 -0.8811
12170TIP3    H157925   0.437   3.897   3.153  1.3840 -1.6374 -1.4299
12170TIP3    H257926   0.534   3.993   3.218 -0.8952 -0.0342 -0.2476
12171TIP3   OH257927   4.372   1.395   2.330 -0.2815 -0.4294 -0.1521
12171TIP3    H157928   4.456   1.408   2.287  0.5532  0.2902  1.6094
12171TIP3    H257929   4.349   1.481   2.365 -1.0222 -0.9374  0.6603
12172TIP3   OH257930   5.493   3.840   4.779  0.0999 -0.3719  0.2195
12172TIP3    H157931   5.578   3.796   4.787 -0.8483 -2.3236  0.2165
12172TIP3    H257932   5.461   3.845   4.869  1.0362  2.2667  0.5095
12173TIP3   OH257933   4.961   6.393   5.410  0.2955  0.4779 -0.3641
12173TIP3    H157934   4.952   6.479   5.370 -0.5979  0.8163  0.5248
12173TIP3    H257935   4.924   6.403   5.497  3.1582  0.0407  1.0142
12174TIP3   OH257936   2.972   3.127   2.817 -0.1148 -1.0053 -0.5427
12174TIP3    H157937   2.921   3.053   2.784  2.0585 -1.8270 -2.2850
12174TIP3    H257938   3.063   3.102   2.803  0.8778  0.2096  2.8580
12175TIP3   OH257939   1.900   6.764   0.647  0.0608  0.7538 -0.3572
12175TIP3    H157940   1.963   6.702   0.609 -0.4737 -0.6971  0.9985
12175TIP3    H257941   1.837   6.780   0.578 -0.8814 -1.7999 -0.1909
12176TIP3   OH257942   4.564   5.356  16.270 -0.1554  0.2687 -0.1401
12176TIP3    H157943   4.624   5.402  16.330 -0.8892 -0.4680  1.2194
12176TIP3    H257944   4.512   5.299  16.328 -0.8560 -0.5238 -1.5046
12177TIP3   OH257945   2.481   1.586  15.834 -0.1104 -0.7339  0.0887
12177TIP3    H157946   2.503   1.587  15.927 -0.0082  1.1713  0.0921
12177TIP3    H257947   2.563   1.602  15.789 -0.2917 -0.8482 -0.2881
12178TIP3   OH257948   3.957   3.179   0.600  0.0677 -0.0827  0.2475
12178TIP3    H157949   3.927   3.137   0.520  1.6102 -1.3092  0.2582
12178TIP3    H257950   3.925   3.269   0.594 -1.5437 -0.6858 -0.7683
12179TIP3   OH257951   4.666   0.124  14.507 -0.2293  0.2874 -0.1483
12179TIP3    H157952   4.571   0.116  14.500 -0.0769 -1.4580 -0.8583
12179TIP3    H257953   4.686   0.099  14.597 -0.4009  0.0518 -0.1734
12180TIP3   OH257954   5.580   3.291   1.091  0.1337 -0.1422 -0.1258
12180TIP3    H157955   5.530   3.357   1.138 -1.8045 -2.6747  1.6375
12180TIP3    H257956   5.631   3.246   1.159  2.2219  0.1186 -1.4159
12181TIP3   OH257957   3.263   6.635   0.345  0.2515 -0.1861 -0.0991
12181TIP3    H157958   3.315   6.646   0.424  3.4995 -2.1299 -1.7689
12181TIP3    H257959   3.255   6.540   0.334  0.7412 -0.0057 -2.5440
12182TIP3   OH257960   2.237   6.552  13.348  0.0089  0.1343 -0.0752
12182TIP3    H157961   2.284   6.522  13.425  0.8202  0.5477 -0.3966
12182TIP3    H257962   2.159   6.595  13.382 -0.6428 -1.3620  0.4334
12183TIP3   OH257963   5.818   4.967  13.316 -0.0973  0.1474  0.6802
12183TIP3    H157964   5.894   4.931  13.271  0.1079 -1.1082  1.9643
12183TIP3    H257965   5.842   5.058  13.334  0.4571  0.2014 -0.2942
12184TIP3   OH257966   1.078   2.918   1.499 -0.2183 -0.6307  0.2108
12184TIP3    H157967   1.156   2.907   1.444  0.1187 -0.0551  0.5648
12184TIP3    H257968   1.007   2.881   1.446 -0.4158  2.3712 -1.9070
12185TIP3   OH257969   4.007   3.685   4.845  0.3381  0.3427 -0.3862
12185TIP3    H157970   4.020   3.592   4.864 -0.4333  0.2270 -0.4177
12185TIP3    H257971   3.930   3.688   4.789  0.1995  1.0247 -0.1705
12186TIP3   OH257972   2.054   5.944   5.155 -0.0268 -0.3513 -0.0198
12186TIP3    H157973   2.083   5.922   5.243  0.4195  0.0481 -0.0610
12186TIP3    H257974   2.091   6.031   5.139 -0.7812 -0.0768 -0.2960
12187TIP3   OH257975   0.365   5.447   4.083  0.2395 -0.1878 -0.0998
12187TIP3    H157976   0.446   5.493   4.104  0.8999 -1.8215  1.1532
12187TIP3    H257977   0.296   5.504   4.115  0.9240  0.8564 -0.4479
12188TIP3   OH257978   4.777   2.049   4.393 -0.0741 -0.0090 -0.1001
12188TIP3    H157979   4.731   1.972   4.428 -0.7149 -0.1916 -1.3064
12188TIP3    H257980   4.821   2.017   4.314  0.8706  0.5327  0.1876
12189TIP3   OH257981   2.933   2.107   1.766  0.1540  0.2347  0.0765
12189TIP3    H157982   2.950   2.132   1.675 -2.1191 -0.7389 -0.7057
12189TIP3    H257983   2.865   2.167   1.795 -0.9595 -1.0441  0.2262
12190TIP3   OH257984   0.588   0.234   4.977 -0.4196 -0.3943  0.5962
12190TIP3    H157985   0.607   0.161   4.920 -1.6349 -0.9130  0.8219
12190TIP3    H257986   0.644   0.305   4.945  0.5764 -1.3217  0.2112
12191TIP3   OH257987   6.033   4.777  11.346 -0.2031  0.4784 -0.8143
12191TIP3    H157988   6.022   4.825  11.264 -1.6112 -0.1041 -0.9912
12191TIP3    H257989   5.997   4.836  11.413 -0.3678  0.3695 -0.8065
12192TIP3   OH257990   0.015   3.371  14.771 -0.0193 -0.6202 -0.1700
12192TIP3    H157991  -0.006   3.378  14.678 -0.0367  0.0087 -0.1279
12192TIP3    H257992  -0.053   3.314  14.807 -2.9418  2.8087  0.3199
12193TIP3   OH257993   5.773   4.816   2.654 -0.0800  0.2579  0.2007
12193TIP3    H157994   5.689   4.806   2.610 -0.6789 -0.0384  1.3620
12193TIP3    H257995   5.798   4.728   2.681 -0.3798  0.5580  1.5657
12194TIP3   OH257996   0.998   1.465   5.892  0.2680 -0.1202 -0.0182
12194TIP3    H157997   0.969   1.380   5.924  0.6261  0.2309  1.3117
12194TIP3    H257998   1.093   1.460   5.893  0.3028  0.5141  0.7327
12195TIP3   OH257999   5.312   4.723   2.180  0.3608 -0.3393 -0.0055
12195TIP3    H158000   5.377   4.774   2.229 -0.1033  0.8267 -0.5405
12195TIP3    H258001   5.317   4.635   2.216  1.4840 -0.0124  0.6921
12196TIP3   OH258002   0.230   1.768   5.687 -0.8683  0.3420 -0.0953
12196TIP3    H158003   0.227   1.827   5.763 -3.7872  2.7696 -1.8422
12196TIP3    H258004   0.273   1.820   5.619  2.1221 -1.9555 -0.1708
12197TIP3   OH258005   5.076   2.662   4.127 -0.5023  0.0865  1.0609
12197TIP3    H158006   5.029   2.583   4.155  0.8599 -0.4119  2.0475
12197TIP3    H258007   5.154   2.629   4.084 -1.1543  0.9100 -0.8403
12198TIP3   OH258008   4.371   6.477   5.597 -0.1025 -0.3827  0.4227
12198TIP3    H158009   4.438   6.450   5.661 -1.4268  0.6280  2.3407
12198TIP3    H258010   4.288   6.448   5.636 -0.8200 -2.3219 -2.2752
12199TIP3   OH258011   0.743   5.213   4.898 -0.3647 -0.3605 -0.3015
12199TIP3    H158012   0.751   5.216   4.802  1.0168 -0.4924 -0.2073
12199TIP3    H258013   0.772   5.125   4.921 -2.3659 -0.9577  0.1265
12200TIP3   OH258014   6.446   2.249   0.737 -0.6056  0.4321 -0.2526
12200TIP3    H158015   6.452   2.157   0.713  1.5156  0.9893 -2.2269
12200TIP3    H258016   6.379   2.285   0.679 -0.4291  0.4053 -0.4739
12201TIP3   OH258017   5.579   3.356  15.895  0.1926  0.2399  0.3349
12201TIP3    H158018   5.503   3.413  15.892 -1.0402 -1.3543  0.2151
12201TIP3    H258019   5.649   3.411  15.932 -1.6529  1.0461  2.9433
12202TIP3   OH258020   2.711   1.464  12.197 -0.2482  0.6432  0.6206
12202TIP3    H158021   2.761   1.542  12.220  0.4893  0.9574 -1.8199
12202TIP3    H258022   2.771   1.391  12.214 -0.2587  0.7313  1.0580
12203TIP3   OH258023   5.510   4.308   1.493 -0.2592 -0.0913  0.2459
12203TIP3    H158024   5.483   4.396   1.519 -0.7309  1.3714 -4.3843
12203TIP3    H258025   5.435   4.253   1.515 -0.9949  1.1485  0.9377
12204TIP3   OH258026   3.443   0.421  12.875  0.3677  0.0702 -0.1615
12204TIP3    H158027   3.421   0.515  12.872  2.9781  0.8275  1.4404
12204TIP3    H258028   3.477   0.407  12.963  4.4872 -1.2523 -1.7557
12205TIP3   OH258029   3.531   4.124   0.889  0.2739  0.5485  0.3067
12205TIP3    H158030   3.558   4.187   0.956 -1.0162  0.2613  1.1254
12205TIP3    H258031   3.519   4.177   0.810 -3.3624  1.9182  1.5697
12206TIP3   OH258032   6.574   0.746  16.133  0.2464 -0.6710 -0.8575
12206TIP3    H158033   6.501   0.801  16.104 -1.1745 -1.4403  1.0473
12206TIP3    H258034   6.549   0.717  16.221  3.2045 -0.3878  0.1739
12207TIP3   OH258035   2.198   3.096   0.261  0.3366 -0.4389  0.2441
12207TIP3    H158036   2.286   3.134   0.253  0.4316 -0.6825  0.1297
12207TIP3    H258037   2.193   3.031   0.191 -0.5035  0.6618 -0.7628
12208TIP3   OH258038   2.375   5.692   6.149 -0.6634 -0.1962 -0.4281
12208TIP3    H158039   2.360   5.627   6.218  0.6550 -0.5420 -0.4409
12208TIP3    H258040   2.314   5.667   6.080 -1.0208 -0.6909  0.0597
12209TIP3   OH258041   5.997   4.896   1.488 -0.6974 -0.0202  0.3243
12209TIP3    H158042   5.974   4.812   1.447 -1.1272  0.9763 -1.5692
12209TIP3    H258043   5.915   4.928   1.525 -0.9316  0.3617 -0.4971
12210TIP3   OH258044   0.273   1.020  14.862 -0.4641 -0.1031  0.1628
12210TIP3    H158045   0.294   1.087  14.797  0.1553  3.3333  3.5313
12210TIP3    H258046   0.355   0.973  14.875 -0.3373 -0.1770 -0.8613
12211TIP3   OH258047   4.204   1.749   1.065  0.1852 -0.1205  0.5930
12211TIP3    H158048   4.141   1.734   0.995  1.8487  1.1048 -1.2876
12211TIP3    H258049   4.167   1.704   1.141 -3.0166  0.7323 -0.3112
12212TIP3   OH258050   5.470   1.433   4.600 -0.0770  0.2740 -0.2351
12212TIP3    H158051   5.402   1.497   4.579 -0.5944 -0.4708 -0.8794
12212TIP3    H258052   5.433   1.381   4.671 -1.5611 -2.1421 -2.5820
12213TIP3   OH258053   6.190   1.096  15.177  0.4950 -0.2175  0.2772
12213TIP3    H158054   6.172   1.015  15.128  0.6807  0.6946 -1.3815
12213TIP3    H258055   6.137   1.163  15.134  1.3525  0.8098  0.7557
12214TIP3   OH258056   0.600   6.023  15.632 -0.1031 -0.1460 -0.0699
12214TIP3    H158057   0.516   5.982  15.611  0.0487 -0.3272 -0.3377
12214TIP3    H258058   0.643   5.960  15.690 -0.0211 -0.2013 -0.1897
12215TIP3   OH258059   1.371   2.337   2.585 -0.0845  0.5638 -0.4396
12215TIP3    H158060   1.286   2.376   2.607 -0.2617 -1.0652  2.2742
12215TIP3    H258061   1.434   2.392   2.632 -0.0645 -0.4966  0.8443
12216TIP3   OH258062   0.767   1.720   1.811  0.5466  0.4968 -0.2410
12216TIP3    H158063   0.732   1.631   1.812 -1.0994  1.1023  0.8043
12216TIP3    H258064   0.770   1.745   1.904  2.2431  1.0900 -0.4153
12217TIP3   OH258065   4.717   0.008  12.763  0.4525  0.5027 -0.0317
12217TIP3    H158066   4.643  -0.026  12.813 -0.0942  1.0413 -0.4473
12217TIP3    H258067   4.724  -0.050  12.688  2.7495 -1.7352  1.7546
12218TIP3   OH258068   3.834   6.295   2.757  0.1600 -0.4323 -0.0733
12218TIP3    H158069   3.885   6.243   2.695  1.4944 -0.1297  0.7360
12218TIP3    H258070   3.809   6.373   2.707  2.3960  0.4745  0.0927
12219TIP3   OH258071   3.885   4.525  11.452 -0.2853  0.0490  0.2440
12219TIP3    H158072   3.834   4.516  11.372  0.5427 -2.4532 -0.0825
12219TIP3    H258073   3.821   4.552  11.518 -1.3806  0.1027 -0.8022
12220TIP3   OH258074   2.581   5.421   0.107 -0.0904 -0.4670 -1.0341
12220TIP3    H158075   2.517   5.491   0.121  1.0611  0.5534 -0.7298
12220TIP3    H258076   2.537   5.361   0.047 -0.6794  1.1437 -2.3089
12221TIP3   OH258077   2.635   4.180  11.586 -0.0503 -0.2500 -0.2064
12221TIP3    H158078   2.548   4.148  11.564  0.2954 -1.2503 -0.1844
12221TIP3    H258079   2.629   4.275  11.579 -0.7407 -0.3852 -1.7339
12222TIP3   OH258080   5.554   3.402  10.847  0.4074  0.5373  0.0814
12222TIP3    H158081   5.521   3.463  10.913 -3.8621 -0.2587 -1.0177
12222TIP3    H258082   5.625   3.450  10.804  1.0996  2.3630  2.9608
12223TIP3   OH258083   1.136   5.092  11.908 -0.4851 -0.1703  0.0538
12223TIP3    H158084   1.118   5.183  11.883  0.7447  0.1300  0.1858
12223TIP3    H258085   1.052   5.058  11.936 -0.6784  1.4814  1.6818
12224TIP3   OH258086   4.084   4.687  15.101 -0.3650  0.8811 -0.2632
12224TIP3    H158087   4.069   4.675  15.007 -0.1052  1.3457 -0.3652
12224TIP3    H258088   4.092   4.598  15.135 -1.5767  0.6598 -0.4924
12225TIP3   OH258089   2.222   6.199   3.115  0.7074  0.2485 -0.5406
12225TIP3    H158090   2.262   6.173   3.032 -1.9008  2.0009 -2.5217
12225TIP3    H258091   2.223   6.295   3.113 -1.4857  0.3451  0.3118
12226TIP3   OH258092   1.769   4.790  11.975  0.4763 -0.0081  0.3414
12226TIP3    H158093   1.718   4.864  12.008  2.0869  0.4324  2.0157
12226TIP3    H258094   1.786   4.811  11.884 -0.0563  1.1251  0.4853
12227TIP3   OH258095   1.493   1.517   2.001  0.1151  0.1006  0.5875
12227TIP3    H158096   1.445   1.454   1.948  0.6162 -0.6779  1.0413
12227TIP3    H258097   1.538   1.573   1.937 -0.5137  0.1548  0.1836
12228TIP3   OH258098   3.777   4.152  13.976  0.3334  0.7035 -0.7459
12228TIP3    H158099   3.863   4.167  13.938  0.5773 -0.8160 -0.8704
12228TIP3    H258100   3.722   4.127  13.901  0.8969 -2.6443 -0.2369
12229TIP3   OH258101   3.505   2.882  13.965 -0.4264  0.1769  0.0847
12229TIP3    H158102   3.440   2.829  14.012 -0.0410 -0.4716 -0.1049
12229TIP3    H258103   3.541   2.940  14.032 -0.3506 -0.2863  0.4499
12230TIP3   OH258104   4.120   5.524  15.641  0.1664 -0.0802 -0.0088
12230TIP3    H158105   4.179   5.559  15.708  0.3789 -0.4346 -0.0057
12230TIP3    H258106   4.144   5.570  15.561 -0.2952  0.5655  0.2211
12231TIP3   OH258107   5.978   4.836   2.457  0.0388  0.1165  0.5549
12231TIP3    H158108   6.035   4.912   2.451 -0.6908  0.6668  0.5175
12231TIP3    H258109   5.929   4.849   2.538 -2.8653  1.6832 -1.2615
12232TIP3   OH258110   6.454   0.392  13.625 -0.2181  0.5565  0.5146
12232TIP3    H158111   6.445   0.476  13.671  0.8877  0.4261  1.0065
12232TIP3    H258112   6.378   0.341  13.653 -0.4018  1.0571  0.9448
12233TIP3   OH258113   5.014   5.871  12.430 -0.0246  0.2061  0.2331
12233TIP3    H158114   5.050   5.853  12.344 -0.6870 -3.1681  0.4969
12233TIP3    H258115   4.965   5.953  12.420  2.6567  1.7116 -1.6313
12234TIP3   OH258116   2.828   3.931   3.511  0.3917  0.0811 -0.1557
12234TIP3    H158117   2.842   3.890   3.596  1.3501  0.9620  0.1288
12234TIP3    H258118   2.882   3.880   3.451  0.3005 -0.0778 -0.1047
12235TIP3   OH258119   2.865   5.402  12.725 -0.4556 -0.4189 -0.7339
12235TIP3    H158120   2.926   5.432  12.793 -1.2968  1.9390 -0.9099
12235TIP3    H258121   2.790   5.367  12.774 -0.8572  0.8426 -0.4012
12236TIP3   OH258122   6.499   1.853   3.747 -0.2642 -0.3824  0.0047
12236TIP3    H158123   6.530   1.842   3.657  1.1080 -0.0526  0.4256
12236TIP3    H258124   6.559   1.916   3.786 -2.1056  1.1533  0.5444
12237TIP3   OH258125   5.590   5.815   0.117  0.4170 -0.1587 -0.7522
12237TIP3    H158126   5.552   5.879   0.177 -0.0746 -0.2212 -0.9929
12237TIP3    H258127   5.666   5.780   0.164  0.3757  0.2120 -0.4041
12238TIP3   OH258128   0.453   4.830   0.519 -0.4609  0.4456 -0.3196
12238TIP3    H158129   0.366   4.858   0.491 -0.9279 -1.2116 -0.6844
12238TIP3    H258130   0.468   4.874   0.602 -2.0114  0.1157  0.1568
12239TIP3   OH258131   5.934   3.296  12.509 -0.1786  0.2046 -0.3207
12239TIP3    H158132   5.842   3.270  12.505 -1.2175  3.2844  0.7588
12239TIP3    H258133   5.967   3.253  12.588 -0.4968 -1.3224 -0.9831
12240TIP3   OH258134   4.066   0.324   5.968  0.3023 -0.1092 -0.4526
12240TIP3    H158135   4.046   0.230   5.968  0.2405 -0.0954 -0.9848
12240TIP3    H258136   4.096   0.342   6.058 -0.6309 -0.4350 -0.0592
12241TIP3   OH258137   3.422   4.046   3.874 -0.1872  0.0753  0.6287
12241TIP3    H158138   3.389   4.085   3.792  2.7830 -0.2909 -0.8599
12241TIP3    H258139   3.517   4.055   3.869  0.2463 -1.9477  3.0588
12242TIP3   OH258140   5.494   0.353   2.368 -0.2896  0.4568  0.1375
12242TIP3    H158141   5.546   0.274   2.354 -0.0478  0.8023 -1.0687
12242TIP3    H258142   5.411   0.322   2.404  0.2596 -0.2221  0.8535
12243TIP3   OH258143   4.980   6.392  12.497 -0.7238 -0.3425 -0.0778
12243TIP3    H158144   5.037   6.431  12.431  0.3598 -0.9358  0.4839
12243TIP3    H258145   5.019   6.416  12.581 -0.8571 -1.3998  0.3030
12244TIP3   OH258146   0.008   2.163   5.201 -0.1667  0.0196 -0.1428
12244TIP3    H158147   0.009   2.226   5.128 -1.3762  1.3743  0.9402
12244TIP3    H258148   0.078   2.193   5.259 -0.2804 -0.0592  0.0359
12245TIP3   OH258149   3.481   2.865   5.062 -0.1663 -0.5726 -0.1310
12245TIP3    H158150   3.425   2.808   5.010  0.9726 -0.4545 -1.5376
12245TIP3    H258151   3.557   2.882   5.007 -0.0396  1.5696  0.5875
12246TIP3   OH258152   4.475   5.284   0.787  0.1722  0.1062 -0.4205
12246TIP3    H158153   4.407   5.295   0.721  0.5598  1.4983 -0.6324
12246TIP3    H258154   4.444   5.214   0.843 -0.1543 -1.1309 -2.0848
12247TIP3   OH258155   2.262   4.009  12.920 -0.2583 -0.3690  0.0656
12247TIP3    H158156   2.328   4.057  12.970  0.8353  1.3906 -2.8112
12247TIP3    H258157   2.202   3.973  12.986  0.9289  1.9414  2.5557
12248TIP3   OH258158   3.090   2.351  15.586  0.4138 -0.5917 -0.3288
12248TIP3    H158159   3.126   2.423  15.534  1.6503 -0.3774  0.7544
12248TIP3    H258160   3.076   2.280  15.523 -0.8034  0.5640 -1.4120
12249TIP3   OH258161   3.812   0.790   5.648  0.0548 -0.0273  0.4028
12249TIP3    H158162   3.816   0.718   5.585  1.3695  0.3778 -0.0010
12249TIP3    H258163   3.718   0.805   5.661 -0.2586 -0.1712 -1.4127
12250TIP3   OH258164   4.109   3.519  11.338  0.0186 -0.4009  0.0943
12250TIP3    H158165   4.205   3.512  11.339  0.0623  0.1387  0.9131
12250TIP3    H258166   4.081   3.455  11.273  0.8232 -1.8494  1.1109
12251TIP3   OH258167   2.278   3.430   5.417  0.0357 -0.7198 -0.2402
12251TIP3    H158168   2.196   3.444   5.465  1.2275 -0.3663  1.8452
12251TIP3    H258169   2.304   3.518   5.388 -0.2597 -0.8188 -0.8181
12252TIP3   OH258170   0.943   5.688  16.488  0.0036  0.2492  0.2198
12252TIP3    H158171   0.848   5.690  16.502 -0.1628 -0.9995 -0.5589
12252TIP3    H258172   0.970   5.605  16.527  0.4590 -0.3241 -1.2368
12253TIP3   OH258173   5.114   3.327  16.912  0.6337  0.1441 -0.3875
12253TIP3    H158174   5.177   3.398  16.900  1.2132 -0.4303 -0.8402
12253TIP3    H258175   5.136   3.290  16.997  2.3416 -1.3977 -1.4125
12254TIP3   OH258176   5.936   1.809  13.152  0.3141  0.5898  0.1395
12254TIP3    H158177   5.945   1.768  13.238 -0.1036 -0.3086 -0.2357
12254TIP3    H258178   5.974   1.747  13.091 -1.6349  0.0537 -0.6070
12255TIP3   OH258179   6.107   6.058  12.289  0.0516 -0.3784 -0.1376
12255TIP3    H158180   6.115   6.008  12.371  0.9482 -0.1479 -0.0745
12255TIP3    H258181   6.047   6.130  12.311 -0.5689 -0.9356  0.0092
12256TIP3   OH258182   0.361   4.379   5.259 -0.1254  0.1889 -0.4535
12256TIP3    H158183   0.385   4.359   5.349 -0.8003 -0.1273 -0.3383
12256TIP3    H258184   0.285   4.436   5.266 -0.1285  0.2356 -0.8211
12257TIP3   OH258185   0.739   2.566  16.314  0.1200  0.0079  0.1736
12257TIP3    H158186   0.754   2.636  16.378  0.2125  0.4791 -0.3569
12257TIP3    H258187   0.799   2.585  16.242 -1.3829  0.6432 -0.9744
12258TIP3   OH258188   4.131   4.632  10.682 -0.4577  0.3605 -0.0381
12258TIP3    H158189   4.062   4.572  10.655 -1.7510  1.4798  0.6230
12258TIP3    H258190   4.134   4.624  10.777  0.3157  0.3568 -0.0547
12259TIP3   OH258191   4.192   3.824   0.594  0.0608  0.7725  0.3484
12259TIP3    H158192   4.154   3.908   0.622  0.6691  1.7358 -1.5229
12259TIP3    H258193   4.282   3.846   0.569  0.0088 -0.2739 -0.8576
12260TIP3   OH258194   6.627   1.368  11.768 -0.1648 -0.1288 -0.6419
12260TIP3    H158195   6.590   1.398  11.685 -1.3242  0.2537 -0.0025
12260TIP3    H258196   6.632   1.446  11.822  0.5280 -0.3879 -0.3201
12261TIP3   OH258197   5.540   1.678  12.041  0.6248 -0.2571  0.3921
12261TIP3    H158198   5.453   1.710  12.065  1.1128  1.4912 -0.1003
12261TIP3    H258199   5.600   1.721  12.102  1.2922 -0.3008 -0.2136
12262TIP3   OH258200   2.367   3.715   3.784 -0.1861 -0.1217  0.2421
12262TIP3    H158201   2.420   3.756   3.717  1.0134 -2.2582 -0.2160
12262TIP3    H258202   2.425   3.704   3.859 -0.2248 -1.5779  0.0934
12263TIP3   OH258203   5.468   5.510   0.539 -0.3596  0.4428  0.7593
12263TIP3    H158204   5.449   5.512   0.445  0.2948  0.4481  0.6209
12263TIP3    H258205   5.432   5.591   0.573  0.9868  1.3252  0.1847
12264TIP3   OH258206   0.451   4.461   4.776 -0.0589 -0.0067  0.3036
12264TIP3    H158207   0.424   4.534   4.831  1.0566  0.1432  0.6712
12264TIP3    H258208   0.405   4.385   4.812  0.5105  0.1186  1.3420
12265TIP3   OH258209   2.393   4.471  14.736  0.1608  0.1597 -0.0388
12265TIP3    H158210   2.331   4.414  14.692 -0.2255  0.1542  0.4955
12265TIP3    H258211   2.339   4.531  14.787  0.5874 -0.4783  1.2181
12266TIP3   OH258212   1.262   0.264   0.573  0.4615 -0.1532 -0.8686
12266TIP3    H158213   1.301   0.240   0.657 -0.7327  0.0250 -0.2442
12266TIP3    H258214   1.236   0.356   0.584 -1.7854 -0.7565 -0.5775
12267TIP3   OH258215   4.492   3.809  15.654 -1.2071  0.3971  0.0392
12267TIP3    H158216   4.564   3.871  15.660  0.1555 -1.0384 -0.9652
12267TIP3    H258217   4.473   3.786  15.745  0.6908 -0.3814  0.2839
12268TIP3   OH258218   2.605   1.829   1.815  0.1486  0.0198 -0.0472
12268TIP3    H158219   2.538   1.768   1.846 -0.3637  1.0294  0.9229
12268TIP3    H258220   2.576   1.855   1.728 -0.3476 -0.0863  0.0868
12269TIP3   OH258221   3.538   6.049   1.278  0.3416 -0.8556 -0.2268
12269TIP3    H158222   3.587   5.996   1.215  2.8254  3.1993 -2.1344
12269TIP3    H258223   3.471   6.092   1.225  1.7260  1.7333 -0.0174
12270TIP3   OH258224   6.194   3.833   6.028  0.2814  0.3374 -0.0955
12270TIP3    H158225   6.206   3.739   6.015  1.2278  0.0635  2.2424
12270TIP3    H258226   6.236   3.874   5.952  1.2735 -1.0864 -0.3456
12271TIP3   OH258227   4.401   1.923   5.909  0.5341  0.0326  0.1523
12271TIP3    H158228   4.452   1.843   5.920 -2.2912 -1.6806  2.0653
12271TIP3    H258229   4.374   1.947   5.998  0.6253  2.7194 -0.4560
12272TIP3   OH258230   4.490   2.848   4.468 -0.4404 -0.2413 -0.1517
12272TIP3    H158231   4.447   2.927   4.436  0.0236  1.0003  2.0978
12272TIP3    H258232   4.449   2.831   4.552 -1.5707 -3.3197 -1.1751
12273TIP3   OH258233   3.081   3.004   4.925 -0.4863 -0.4125  0.0504
12273TIP3    H158234   3.155   2.976   4.870 -0.1059 -0.2589  0.4778
12273TIP3    H258235   3.104   2.974   5.013 -2.0055 -2.4007 -0.1728
12274TIP3   OH258236   4.229   5.306  13.049  0.4876  0.1181  0.5351
12274TIP3    H158237   4.172   5.381  13.065  1.6426  0.6543  2.4693
12274TIP3    H258238   4.211   5.247  13.122 -1.3259 -2.1956 -1.5723
12275TIP3   OH258239   3.883   1.167  11.344  0.0268  0.3478  0.1126
12275TIP3    H158240   3.969   1.180  11.304  0.4882  0.0164  0.9743
12275TIP3    H258241   3.886   1.078  11.379 -0.8826  0.1152 -0.3615
12276TIP3   OH258242   4.128   2.459  12.204 -0.9045 -0.4285  0.1358
12276TIP3    H158243   4.207   2.480  12.253 -1.0969 -0.7865  0.6115
12276TIP3    H258244   4.084   2.543  12.190 -1.9383 -0.4939  2.4681
12277TIP3   OH258245   0.485   2.575   2.815  0.7746 -0.7459  0.1384
12277TIP3    H158246   0.427   2.510   2.774 -1.6525  0.8909  0.7374
12277TIP3    H258247   0.555   2.524   2.854  1.3263 -2.6651 -2.9913
12278TIP3   OH258248   2.941   5.862   3.027  0.2270 -0.2894  0.2262
12278TIP3    H158249   2.857   5.819   3.008 -0.3416  0.6763  0.4433
12278TIP3    H258250   2.948   5.858   3.122 -0.3036  0.9006  0.3368
12279TIP3   OH258251   4.771   3.447  11.416  0.0747  0.1674  0.1262
12279TIP3    H158252   4.785   3.358  11.447  0.3642 -0.3968 -1.5352
12279TIP3    H258253   4.823   3.453  11.336 -1.4412  1.2226 -0.8261
12280TIP3   OH258254   1.785   6.161   1.781 -0.1015 -0.4051  0.0483
12280TIP3    H158255   1.808   6.089   1.840 -1.1333  0.2049  1.2411
12280TIP3    H258256   1.733   6.220   1.835 -0.4269  0.5665 -1.2864
12281TIP3   OH258257   2.184   2.522   0.824 -0.2413 -0.0409 -0.4912
12281TIP3    H158258   2.269   2.562   0.843 -0.9560  1.6143 -0.6690
12281TIP3    H258259   2.198   2.428   0.839  1.5021  0.2458 -0.1412
12282TIP3   OH258260   0.063   3.858   3.705  0.7418 -0.6343 -0.3527
12282TIP3    H158261   0.005   3.822   3.638  0.5923 -2.1548  0.5514
12282TIP3    H258262   0.087   3.783   3.759  1.5228  0.4092  0.8101
12283TIP3   OH258263   0.753   3.680  15.800  0.1853 -0.2518 -1.2210
12283TIP3    H158264   0.839   3.679  15.758  0.3605 -0.4593 -0.8590
12283TIP3    H258265   0.693   3.657  15.729  0.3431  0.5915 -1.6417
12284TIP3   OH258266   5.181   2.716   0.149  0.6036  0.4281  0.3368
12284TIP3    H158267   5.095   2.690   0.182  0.2138 -0.0640 -0.9895
12284TIP3    H258268   5.165   2.741   0.058  1.7939  0.8051  0.2082
12285TIP3   OH258269   4.796   6.558  16.478 -0.0613  0.4969  0.0483
12285TIP3    H158270   4.744   6.529  16.552 -0.2315 -0.6974 -0.5242
12285TIP3    H258271   4.752   6.522  16.401  1.3540 -0.1892 -0.4724
12286TIP3   OH258272   6.674   0.929  13.825 -0.1967  0.2004  0.4456
12286TIP3    H158273   6.757   0.917  13.778  0.0037 -1.8705  1.2165
12286TIP3    H258274   6.700   0.940  13.916 -0.7632 -2.6875  1.0448
12287TIP3   OH258275   2.168   3.066   5.954 -0.0608  0.1603 -0.1360
12287TIP3    H158276   2.192   3.157   5.940  0.3545  0.0690 -0.0271
12287TIP3    H258277   2.248   3.017   5.936 -0.3823 -0.2162 -0.5718
12288TIP3   OH258278   3.904   5.764   4.562 -0.1215  0.5091  0.0507
12288TIP3    H158279   3.898   5.836   4.499  1.0604  1.1628  0.6550
12288TIP3    H258280   3.906   5.807   4.648 -2.4489 -0.3883  0.6487
12289TIP3   OH258281   3.305   5.575  11.222 -0.1250 -0.0937  0.3705
12289TIP3    H158282   3.224   5.550  11.178 -0.5040  1.8172 -0.1256
12289TIP3    H258283   3.358   5.615  11.153  1.8541 -2.4715  0.3786
12290TIP3   OH258284   3.588   4.783  13.786 -0.3820 -0.1003  0.4245
12290TIP3    H158285   3.571   4.864  13.835  0.9864  1.0282 -0.8338
12290TIP3    H258286   3.683   4.771  13.794 -0.2709 -0.4080 -1.1027
12291TIP3   OH258287   1.428   3.327  16.701 -0.5116 -0.5239  0.5297
12291TIP3    H158288   1.445   3.297  16.611  1.6234 -0.4991  0.8648
12291TIP3    H258289   1.358   3.392  16.693 -2.2585 -2.4312 -0.7489
12292TIP3   OH258290   1.055   4.974  16.616 -0.1126 -0.5018  0.3623
12292TIP3    H158291   1.146   4.953  16.595 -0.3706 -1.4439  0.1451
12292TIP3    H258292   1.042   4.940  16.704 -0.1792 -0.1128  0.5063
12293TIP3   OH258293   2.088   4.328  12.958 -0.0639  0.3359 -0.2487
12293TIP3    H158294   2.141   4.400  12.991 -0.1435 -0.5883  2.1015
12293TIP3    H258295   2.009   4.370  12.925 -0.1040  1.3499  1.0476
12294TIP3   OH258296   0.911   1.823  14.630 -0.1971  0.6944  0.2759
12294TIP3    H158297   0.962   1.868  14.563 -1.1706 -0.8913 -1.6356
12294TIP3    H258298   0.977   1.775  14.682  0.4998  1.1767 -0.1482
12295TIP3   OH258299   2.461   2.304  11.916 -0.5577  0.6719  0.0159
12295TIP3    H158300   2.407   2.342  11.986 -0.7348 -0.3741  0.4670
12295TIP3    H258301   2.420   2.334  11.835 -2.1284 -0.4665  0.3379
12296TIP3   OH258302   6.058   4.434  10.496  0.3150  0.5308 -0.4666
12296TIP3    H158303   6.028   4.439  10.405  2.1513  1.9939 -1.0597
12296TIP3    H258304   5.980   4.409  10.545 -0.5418 -1.2208 -2.5132
12297TIP3   OH258305   5.600   5.176  12.696  0.6335 -0.4543 -0.4732
12297TIP3    H158306   5.650   5.125  12.759  1.0641  1.0642  0.4779
12297TIP3    H258307   5.648   5.259  12.688 -0.1280 -0.0973 -1.8098
12298TIP3   OH258308   2.702   1.767   4.806 -0.0099 -0.4227  0.0558
12298TIP3    H158309   2.742   1.693   4.760 -0.0949 -1.4834  1.6171
12298TIP3    H258310   2.767   1.837   4.800  0.3216 -0.7997 -0.9513
12299TIP3   OH258311   4.596   0.227   1.668 -0.2563  0.0553  0.4501
12299TIP3    H158312   4.591   0.323   1.668 -0.0942  0.1265 -1.8051
12299TIP3    H258313   4.506   0.198   1.651 -0.3962 -0.2305  1.6176
12300TIP3   OH258314   5.877   5.691  12.570 -0.0969 -0.5675 -0.1799
12300TIP3    H158315   5.860   5.784  12.550 -0.4596 -0.5556  0.1612
12300TIP3    H258316   5.897   5.652  12.485  0.1256 -0.1625 -0.3203
12301TIP3   OH258317   0.776   2.106  13.642 -0.2484 -0.6023 -0.0972
12301TIP3    H158318   0.710   2.059  13.590  1.8996 -1.9331 -1.8110
12301TIP3    H258319   0.834   2.037  13.674  1.9992  0.6789 -1.1994
12302TIP3   OH258320   2.360   3.490  14.081  0.1457  0.0331  0.3201
12302TIP3    H158321   2.300   3.510  14.153  1.4529  0.3368  1.3814
12302TIP3    H258322   2.350   3.563  14.020  0.2594  0.6863  1.0575
12303TIP3   OH258323   0.741   5.190  15.901  0.2876  0.2292 -0.1701
12303TIP3    H158324   0.764   5.218  15.989 -1.2282  2.3134 -0.3884
12303TIP3    H258325   0.693   5.108  15.913  1.8026 -0.5727  0.7403
12304TIP3   OH258326   5.296   5.778   4.750  0.3270  0.1753  0.5001
12304TIP3    H158327   5.292   5.833   4.672 -0.7908 -0.4832  0.0660
12304TIP3    H258328   5.284   5.839   4.823 -0.2871  0.5947  0.0583
12305TIP3   OH258329   3.158   6.306   1.529  0.3399 -0.4102  0.3608
12305TIP3    H158330   3.110   6.276   1.607 -0.7114  1.7381  0.6318
12305TIP3    H258331   3.206   6.383   1.560  0.3971  0.1037 -0.9573
12306TIP3   OH258332   0.275   2.197  14.234  0.4443 -0.3187  0.2479
12306TIP3    H158333   0.300   2.124  14.177  1.8525 -0.2748  0.7740
12306TIP3    H258334   0.265   2.271  14.174 -0.1283 -0.7289 -0.1793
12307TIP3   OH258335   5.334   6.479   4.977  0.1963  0.0436 -0.1730
12307TIP3    H158336   5.290   6.531   5.045 -0.5862 -0.8579  0.0461
12307TIP3    H258337   5.424   6.510   4.977  0.0299  0.5669  0.7860
12308TIP3   OH258338   5.951   0.317  13.762  0.2739 -0.1167  0.1983
12308TIP3    H158339   5.992   0.248  13.710  0.9175 -0.5188  1.1936
12308TIP3    H258340   5.900   0.270  13.828 -1.2721  0.3823 -0.5926
12309TIP3   OH258341   1.986   2.659   0.688  0.1866  0.5250  0.1238
12309TIP3    H158342   1.907   2.648   0.741  0.6295  0.4717  0.7816
12309TIP3    H258343   2.037   2.580   0.703  0.2031  0.3947 -0.5889
12310TIP3   OH258344   2.049   3.608  16.267 -0.7828 -0.2936 -0.6718
12310TIP3    H158345   2.041   3.634  16.358 -0.2175  0.0476 -0.7133
12310TIP3    H258346   1.959   3.592  16.238 -0.9130 -1.2493  0.1835
12311TIP3   OH258347   3.785   6.556  14.298 -0.2818  0.3278 -0.0708
12311TIP3    H158348   3.766   6.485  14.237  1.3152 -0.8736  0.7398
12311TIP3    H258349   3.880   6.567  14.293 -0.2370  0.8935  1.4481
12312TIP3   OH258350   2.529   2.255  11.620 -1.0127 -0.1840 -0.0660
12312TIP3    H158351   2.552   2.337  11.663 -0.9826  0.2945 -0.9919
12312TIP3    H258352   2.434   2.252  11.623 -1.0036 -1.4789  2.4640
12313TIP3   OH258353   1.000   1.733  11.844 -0.1142  0.9223 -0.6992
12313TIP3    H158354   0.929   1.737  11.780 -0.4160 -0.3720 -0.4759
12313TIP3    H258355   1.062   1.671  11.807 -0.8158 -0.7125  0.7169
12314TIP3   OH258356   3.423   3.573  17.270  0.5911 -0.5879  0.0504
12314TIP3    H158357   3.412   3.636  17.198 -1.7098  1.7371  2.2252
12314TIP3    H258358   3.516   3.549  17.266  0.4119 -1.2785 -4.1154
12315TIP3   OH258359   1.628   5.348  11.802  0.2633  0.3909  0.2285
12315TIP3    H158360   1.694   5.311  11.744  1.5707  1.4552  1.0034
12315TIP3    H258361   1.675   5.371  11.882 -1.1237  0.7831  0.9679
12316TIP3   OH258362   3.950   2.477   0.456 -1.1330  0.5166 -0.5772
12316TIP3    H158363   3.940   2.466   0.362 -2.1089 -0.3286 -0.3904
12316TIP3    H258364   3.895   2.552   0.478  0.3488  1.7421 -0.8882
12317TIP3   OH258365   4.234   0.087   4.474  0.0993  0.1556 -0.1995
12317TIP3    H158366   4.150   0.122   4.441 -0.7328 -0.5507  1.0857
12317TIP3    H258367   4.257   0.018   4.412 -1.3871 -1.0848  0.5719
12318TIP3   OH258368   5.807   1.296   5.554  0.5245  0.2544 -0.3063
12318TIP3    H158369   5.776   1.383   5.528  0.2124  0.6100  1.1621
12318TIP3    H258370   5.863   1.268   5.482 -0.5458  1.0283 -1.4882
12319TIP3   OH258371   2.307   4.152  15.510 -0.0033  0.0936 -0.3677
12319TIP3    H158372   2.398   4.146  15.539 -0.2263 -2.2588  0.0902
12319TIP3    H258373   2.256   4.122  15.585 -1.2217  1.6979 -0.4971
12320TIP3   OH258374   4.942   4.658  14.358  0.0247 -0.5510  0.6904
12320TIP3    H158375   4.955   4.658  14.453  0.1101 -0.5142  0.6782
12320TIP3    H258376   4.968   4.745  14.331  3.2942 -1.5706  0.1679
12321TIP3   OH258377   0.670   1.653  16.618 -0.2830 -0.0627 -0.2821
12321TIP3    H158378   0.659   1.721  16.684  1.5970  1.0799 -1.0750
12321TIP3    H258379   0.675   1.700  16.535 -1.1074 -1.3514 -1.0922
12322TIP3   OH258380   2.691   6.048  14.298  0.7588  0.0985 -0.4736
12322TIP3    H158381   2.786   6.045  14.285  1.0694  1.9325  1.0294
12322TIP3    H258382   2.658   6.105  14.229  0.9041  0.4359 -0.2633
12323TIP3   OH258383   1.069   5.023  17.089 -0.3264  0.3535  0.1555
12323TIP3    H158384   1.136   4.999  17.025 -0.4756  0.7258 -0.1459
12323TIP3    H258385   0.992   4.972  17.064 -0.9250  1.7768 -1.0418
12324TIP3   OH258386   3.932   4.090  16.110  0.0427 -0.6809 -0.1192
12324TIP3    H158387   3.967   4.024  16.050  0.1187 -1.1845  0.4762
12324TIP3    H258388   3.871   4.141  16.056  0.0775 -1.1530 -0.6135
12325TIP3   OH258389   0.105   4.094   1.165  0.2776  0.1014  0.0912
12325TIP3    H158390   0.053   4.061   1.238 -0.8579  1.0684 -0.2411
12325TIP3    H258391   0.130   4.183   1.191 -0.7920  0.7490 -0.9606
12326TIP3   OH258392   1.542   2.023  11.062 -0.1587  0.3854 -0.0756
12326TIP3    H158393   1.493   1.956  11.014  0.4828  0.2612 -0.5712
12326TIP3    H258394   1.475   2.082  11.097 -0.6409  0.6048 -1.3220
12327TIP3   OH258395   6.647   5.670   6.483 -0.3605 -0.3374 -0.2164
12327TIP3    H158396   6.646   5.578   6.459 -0.8358 -0.3595 -0.1026
12327TIP3    H258397   6.741   5.693   6.485 -0.2684 -0.6184 -0.9880
12328TIP3   OH258398   0.197   1.949   4.080 -0.2726  0.6024  0.6440
12328TIP3    H158399   0.191   1.915   4.169 -2.8988  0.3981  0.4785
12328TIP3    H258400   0.160   2.038   4.085  0.4008  0.9458 -0.0966
12329TIP3   OH258401   3.065   4.465  15.295 -0.2193  0.4560 -0.0231
12329TIP3    H158402   3.140   4.435  15.244  0.8139  0.7266  1.2688
12329TIP3    H258403   2.997   4.484  15.230  0.6138 -0.3958 -1.1754
12330TIP3   OH258404   1.524   3.480   6.405  0.1272  0.1180 -0.8924
12330TIP3    H158405   1.514   3.391   6.439  1.6372 -0.0199 -0.7686
12330TIP3    H258406   1.457   3.530   6.452  0.8738 -0.4665  0.8752
12331TIP3   OH258407   0.385   6.570  14.136 -0.0283 -0.4013  0.0383
12331TIP3    H158408   0.382   6.589  14.043  0.8415 -0.7318 -0.0660
12331TIP3    H258409   0.399   6.655  14.178  0.8174 -0.4103 -0.2189
12332TIP3   OH258410   2.593   3.406  17.164 -0.8262 -0.4809 -0.2002
12332TIP3    H158411   2.514   3.431  17.118 -0.6893  0.5211  0.0896
12332TIP3    H258412   2.646   3.486  17.167 -0.8718 -0.4638  1.7330
12333TIP3   OH258413   5.296   6.596   1.945 -0.0651  0.5823  0.0448
12333TIP3    H158414   5.308   6.677   1.995 -1.0615  0.1361  1.0225
12333TIP3    H258415   5.361   6.536   1.980 -1.0708  0.1170  1.1683
12334TIP3   OH258416   1.023   2.016  15.964  0.2475 -0.2420 -0.4094
12334TIP3    H158417   0.944   1.962  15.977 -0.1509  0.4523  0.1326
12334TIP3    H258418   0.993   2.091  15.914 -0.6505  2.5766  3.8110
12335TIP3   OH258419   2.849   4.941  16.807 -0.2026  0.0759  0.6554
12335TIP3    H158420   2.872   4.865  16.753 -2.2747 -0.7427  0.8280
12335TIP3    H258421   2.882   5.016  16.758  0.1155 -0.8053 -0.5312
12336TIP3   OH258422   1.368   2.748   3.855  0.4269  0.5288  0.1668
12336TIP3    H158423   1.278   2.720   3.870  0.1753  0.9992 -0.4250
12336TIP3    H258424   1.379   2.825   3.912  0.0337  1.2484 -0.7030
12337TIP3   OH258425   0.710   3.245   2.543  0.3257  0.3374  0.0382
12337TIP3    H158426   0.752   3.161   2.523  0.3759  0.9142 -2.6208
12337TIP3    H258427   0.632   3.247   2.488 -0.7169  1.2732  1.4628
12338TIP3   OH258428   3.873   4.190   0.913  0.3177 -0.0418  0.0689
12338TIP3    H158429   3.818   4.264   0.889 -1.2336 -0.4147  2.1850
12338TIP3    H258430   3.959   4.228   0.931 -0.2959  1.1573  0.5682
12339TIP3   OH258431   2.638   3.692   3.387  0.1771 -0.2531 -0.5363
12339TIP3    H158432   2.720   3.661   3.349  0.5706 -0.4727  0.4438
12339TIP3    H258433   2.615   3.770   3.337  0.7413 -0.4526 -1.1124
12340TIP3   OH258434   1.910   5.931  12.824 -0.7321 -0.2580  0.3347
12340TIP3    H158435   1.888   5.868  12.893  0.5821 -0.4336  0.6138
12340TIP3    H258436   1.891   5.884  12.742  0.2158 -1.0130  0.5430
12341TIP3   OH258437   1.231   0.317  11.886  0.3971 -0.3618 -0.5938
12341TIP3    H158438   1.194   0.397  11.848  1.2886  0.3529 -0.0137
12341TIP3    H258439   1.230   0.334  11.981  0.0277 -1.3003 -0.4192
12342TIP3   OH258440   5.666   6.156   4.032 -0.0035  0.7120  0.1442
12342TIP3    H158441   5.699   6.098   3.962 -0.8832 -0.3917  0.6099
12342TIP3    H258442   5.577   6.124   4.050  0.3798  0.5906  2.1273
12343TIP3   OH258443   4.722   4.462  12.431 -0.2047 -0.0945 -0.2956
12343TIP3    H158444   4.736   4.402  12.503 -0.3249 -0.1110 -0.2849
12343TIP3    H258445   4.650   4.423  12.381  0.2672 -0.3842 -0.7533
12344TIP3   OH258446   3.889   4.433   0.037 -0.3506  0.0396  0.0932
12344TIP3    H158447   3.888   4.422  -0.058  2.1096 -0.2666  0.0304
12344TIP3    H258448   3.979   4.459   0.057 -0.3509 -1.5133  2.5149
12345TIP3   OH258449   0.853   6.585  16.711 -0.1404  0.1682  0.0837
12345TIP3    H158450   0.790   6.581  16.639  0.2847  2.0685 -0.4605
12345TIP3    H258451   0.862   6.495  16.740 -1.5127 -0.4345 -1.2069
12346TIP3   OH258452   4.110   0.562   4.515 -0.3160 -0.6892  0.0415
12346TIP3    H158453   4.180   0.543   4.578  0.9905  0.5251 -0.9750
12346TIP3    H258454   4.111   0.488   4.455  1.1634 -0.0100 -0.8364
12347TIP3   OH258455   2.043   1.579   5.252  0.1780 -0.3767 -0.2572
12347TIP3    H158456   2.025   1.519   5.179 -1.1141  1.3097 -1.3999
12347TIP3    H258457   2.125   1.622   5.228 -0.8859  1.0943 -1.4083
12348TIP3   OH258458   1.455   6.701   4.311 -0.0504  0.2380  0.1450
12348TIP3    H158459   1.486   6.783   4.349  0.0344  0.3161 -0.0885
12348TIP3    H258460   1.531   6.642   4.316 -0.1481  0.1338  0.4249
12349TIP3   OH258461   3.833   0.163  17.139  0.4971 -0.4225  0.1328
12349TIP3    H158462   3.749   0.136  17.101  1.5740 -0.5542 -2.3987
12349TIP3    H258463   3.844   0.108  17.216 -0.6547 -2.1058 -0.8400
12350TIP3   OH258464   5.151   1.274  13.192 -0.4545  0.7026  0.3272
12350TIP3    H158465   5.092   1.337  13.151  0.3963  1.0791 -0.3295
12350TIP3    H258466   5.232   1.322  13.206  0.6657 -0.5819 -1.4130
12351TIP3   OH258467   3.690   5.861   4.245  0.1374 -0.0333 -0.0583
12351TIP3    H158468   3.628   5.882   4.315  0.0523 -0.6718  0.0665
12351TIP3    H258469   3.637   5.855   4.166  0.3419  1.4271 -0.3195
12352TIP3   OH258470   2.562   4.084  14.337 -0.0338 -0.3509 -0.4066
12352TIP3    H158471   2.504   4.134  14.278 -0.2567 -0.4362 -0.2599
12352TIP3    H258472   2.620   4.150  14.375  0.2115 -0.3147 -0.8333
12353TIP3   OH258473   5.643   6.673   0.233 -0.0757 -0.0856 -0.6088
12353TIP3    H158474   5.565   6.656   0.285 -1.7779  0.6930 -2.7228
12353TIP3    H258475   5.675   6.586   0.208 -0.8141 -0.4119 -0.4463
12354TIP3   OH258476   1.533   2.201  11.855  0.0505 -0.1911 -0.1242
12354TIP3    H158477   1.563   2.223  11.767  0.6861 -0.5901 -0.0138
12354TIP3    H258478   1.513   2.285  11.895 -0.9628 -0.0436 -0.8901
12355TIP3   OH258479   4.467   5.023  15.565 -0.0596 -0.0526 -0.0402
12355TIP3    H158480   4.454   4.930  15.548  0.5446 -0.1176 -0.1492
12355TIP3    H258481   4.378   5.058  15.574 -0.2979 -0.5812 -0.3024
12356TIP3   OH258482   4.549   2.180  12.843  0.2484  0.4042  0.4346
12356TIP3    H158483   4.500   2.119  12.899 -0.9745 -0.0504 -1.0734
12356TIP3    H258484   4.562   2.132  12.761 -0.9334  2.2229 -0.8746
12357TIP3   OH258485   4.400   0.607  15.533 -0.2613 -0.3812 -0.1764
12357TIP3    H158486   4.423   0.555  15.456  1.3904  0.2695 -0.1602
12357TIP3    H258487   4.474   0.666  15.546 -1.3763  0.8999  0.7465
12358TIP3   OH258488   5.598   3.860   2.719  0.5321  0.3640 -0.3881
12358TIP3    H158489   5.659   3.872   2.646 -0.1194  0.0596 -0.9952
12358TIP3    H258490   5.568   3.948   2.740  1.2882  0.5373  0.0245
12359TIP3   OH258491   1.143   6.242  13.294  0.4775  0.2067 -0.3513
12359TIP3    H158492   1.172   6.319  13.245 -1.3785  1.8380  0.9600
12359TIP3    H258493   1.128   6.274  13.383 -3.0154 -0.9230 -0.3876
12360TIP3   OH258494   1.710   2.518   2.150 -0.2291  0.0124 -0.7584
12360TIP3    H158495   1.703   2.590   2.088 -2.6402 -0.1814 -0.7814
12360TIP3    H258496   1.753   2.448   2.100  0.2520  0.7225 -1.3637
12361TIP3   OH258497   2.519   2.996  11.810 -0.7206  0.1766  0.4840
12361TIP3    H158498   2.469   2.976  11.731  0.4215 -0.5243 -0.0886
12361TIP3    H258499   2.468   2.956  11.881 -0.8900 -0.6873 -0.1062
12362TIP3   OH258500   0.732   2.801  15.493  0.0853 -0.4237  0.1434
12362TIP3    H158501   0.752   2.717  15.534  0.3707  0.4049  1.7537
12362TIP3    H258502   0.699   2.777  15.406  1.0122 -2.1465  0.2199
12363TIP3   OH258503   6.481   0.920  11.361  0.5388 -0.2095 -0.4577
12363TIP3    H158504   6.415   0.931  11.430  1.1346 -0.4147  0.1550
12363TIP3    H258505   6.562   0.953  11.400  0.9083 -0.4523 -1.0159
12364TIP3   OH258506   6.518   0.197  16.776 -0.4137 -0.1770  0.5347
12364TIP3    H158507   6.575   0.128  16.740 -0.5944 -0.1051  0.0987
12364TIP3    H258508   6.441   0.150  16.808 -0.3950 -0.2099  0.5315
12365TIP3   OH258509   2.334   5.286   4.255 -0.1724 -0.1413 -0.4264
12365TIP3    H158510   2.424   5.317   4.256  0.1991 -1.1190 -1.6807
12365TIP3    H258511   2.291   5.339   4.187 -0.9880  1.4211  1.2308
12366TIP3   OH258512   3.853   2.170  14.353 -0.3837 -0.3813  0.7886
12366TIP3    H158513   3.882   2.177  14.444  0.1985 -1.6397  0.7157
12366TIP3    H258514   3.863   2.078  14.331 -0.3919 -0.0801 -0.5979
12367TIP3   OH258515   1.662   2.749   1.992  0.2451  0.0351 -0.0690
12367TIP3    H158516   1.643   2.817   1.927  0.8089 -1.5409 -1.9833
12367TIP3    H258517   1.735   2.784   2.043  0.5871  0.8336 -1.0768
12368TIP3   OH258518   3.133   4.477   6.055 -0.3692  0.2655 -0.5370
12368TIP3    H158519   3.222   4.507   6.072 -0.4255  1.0586 -1.5465
12368TIP3    H258520   3.084   4.501   6.134  0.2667 -0.0169 -0.0522
12369TIP3   OH258521   4.473   5.471  14.991  0.0946 -0.3448  1.2798
12369TIP3    H158522   4.406   5.533  14.959  0.0861 -0.5462  0.8973
12369TIP3    H258523   4.550   5.489  14.937 -0.5401 -2.0893 -0.3642
12370TIP3   OH258524   2.608   6.488   3.046 -0.1089 -0.4007  0.0228
12370TIP3    H158525   2.602   6.583   3.055 -2.9536 -0.5590  0.5122
12370TIP3    H258526   2.654   6.475   2.963  3.0618  1.2924  1.3267
12371TIP3   OH258527   3.827   4.870   4.826 -0.3707 -1.1239 -0.2054
12371TIP3    H158528   3.763   4.844   4.759  0.4150 -0.5825 -1.1849
12371TIP3    H258529   3.890   4.798   4.827 -2.7544 -3.5003  3.3006
12372TIP3   OH258530   4.965   4.912   3.802  0.0453 -0.0677  0.0555
12372TIP3    H158531   4.934   4.871   3.883  1.2710 -0.1803  0.4839
12372TIP3    H258532   5.038   4.967   3.829 -1.1688  1.9718 -0.6002
12373TIP3   OH258533   4.820   5.809  17.296 -0.1204 -0.1464 -0.8003
12373TIP3    H158534   4.815   5.786  17.203  1.1144  1.4881 -1.3207
12373TIP3    H258535   4.768   5.742  17.340  0.1745 -1.6140 -2.5560
12374TIP3   OH258536   0.900   4.474  10.999 -0.0218 -0.3845  0.1007
12374TIP3    H158537   0.979   4.465  10.946 -0.4344 -3.7257 -0.1524
12374TIP3    H258538   0.831   4.495  10.936  0.0713 -0.9340 -0.1874
12375TIP3   OH258539   4.695   2.206  16.256 -0.6170  0.3512  0.1596
12375TIP3    H158540   4.786   2.175  16.251 -0.8899 -0.4354 -0.0950
12375TIP3    H258541   4.670   2.192  16.347 -0.6749 -0.0049  0.0908
12376TIP3   OH258542   1.958   3.918   3.056  0.3754 -0.5137  0.5821
12376TIP3    H158543   1.870   3.905   3.023  0.1113 -1.1609  1.5041
12376TIP3    H258544   1.948   3.980   3.128  0.9301  0.7992 -0.4257
12377TIP3   OH258545   3.773   2.193  15.617  0.3424  0.4453 -0.1629
12377TIP3    H158546   3.827   2.225  15.689 -1.2014  1.8854  0.4198
12377TIP3    H258547   3.744   2.272  15.572 -0.8557 -0.3046 -0.7593
12378TIP3   OH258548   4.245   0.474  16.300  0.1856  0.4066 -0.0135
12378TIP3    H158549   4.229   0.568  16.305 -1.0980  0.2114 -0.1064
12378TIP3    H258550   4.218   0.450  16.211  0.6570 -0.0207 -0.0420
12379TIP3   OH258551   2.822   2.255  12.178  0.0629 -0.7499  0.2128
12379TIP3    H158552   2.746   2.276  12.123 -0.5641 -0.5670  1.1123
12379TIP3    H258553   2.890   2.315  12.149 -0.8576  0.6947  0.9021
12380TIP3   OH258554   1.098   5.275   1.280  0.4838 -0.1028  0.0742
12380TIP3    H158555   1.131   5.187   1.262 -1.2590 -0.7373 -0.1578
12380TIP3    H258556   1.049   5.299   1.201  0.9324  1.0856  0.1341
12381TIP3   OH258557   6.214   4.106   3.481 -0.3405 -0.2698  0.2983
12381TIP3    H158558   6.180   4.157   3.554  0.3398  2.2526 -1.0470
12381TIP3    H258559   6.285   4.159   3.445  0.6172 -2.3212 -1.0413
12382TIP3   OH258560   3.125   1.829  16.343  0.0944 -0.0635  0.4002
12382TIP3    H158561   3.200   1.886  16.358 -1.3233  2.0031  0.0966
12382TIP3    H258562   3.124   1.815  16.248 -1.0498  1.7065  0.0968
12383TIP3   OH258563   5.718   3.736   1.804  0.2313  0.7270  0.1262
12383TIP3    H158564   5.691   3.677   1.875  1.6559  0.7075  0.6784
12383TIP3    H258565   5.640   3.789   1.787 -0.2182  0.5644  1.5397
12384TIP3   OH258566   4.632   4.163   2.761 -0.0775  0.0820  0.0468
12384TIP3    H158567   4.606   4.083   2.807  0.1653 -0.9692 -1.5852
12384TIP3    H258568   4.606   4.148   2.670  2.1964  0.8218 -0.7729
12385TIP3   OH258569   0.758   6.329  17.242  0.3280 -0.0149 -0.3728
12385TIP3    H158570   0.810   6.380  17.180  0.0844 -0.4226 -0.9301
12385TIP3    H258571   0.699   6.393  17.282  2.3375  0.7870  1.5183
12386TIP3   OH258572   4.524   2.028  16.085 -0.2374 -0.0007 -0.2428
12386TIP3    H158573   4.458   1.970  16.124  0.9519 -0.3710  1.2773
12386TIP3    H258574   4.567   2.070  16.159 -0.6695  2.4529 -1.2849
12387TIP3   OH258575   0.481   4.678  10.417 -0.4065  0.4384 -0.0151
12387TIP3    H158576   0.465   4.772  10.429 -2.1575  0.0944  0.7738
12387TIP3    H258577   0.566   4.662  10.457  0.1865  1.7861 -0.6941
12388TIP3   OH258578   5.114   2.256   1.397 -0.6678 -0.2457 -0.2505
12388TIP3    H158579   5.097   2.276   1.305 -2.2216  0.1871  0.0964
12388TIP3    H258580   5.072   2.327   1.445  1.0201  0.1022  0.7940
12389TIP3   OH258581   1.430   4.999   2.429 -0.6892  0.5130  0.6504
12389TIP3    H158582   1.437   5.080   2.479  2.0434  0.4066  0.5975
12389TIP3    H258583   1.419   4.930   2.495 -2.2246  0.8084  0.7384
12390TIP3   OH258584   4.652   2.560   3.842 -0.7265  0.1657 -0.2914
12390TIP3    H158585   4.655   2.501   3.917 -2.0755  0.2210 -0.1707
12390TIP3    H258586   4.560   2.585   3.835 -0.1234  2.7426  0.0438
12391TIP3   OH258587   0.613   4.671  12.771 -0.0445  0.5176 -0.3081
12391TIP3    H158588   0.574   4.758  12.768 -0.5779  0.2768 -0.4350
12391TIP3    H258589   0.592   4.632  12.686  0.0949  0.2218 -0.2115
12392TIP3   OH258590   2.363   4.401  12.787  0.0993  0.2543  0.0871
12392TIP3    H158591   2.322   4.475  12.743  0.3629  0.3904  0.0683
12392TIP3    H258592   2.290   4.345  12.813 -0.2445  1.4421  1.8093
12393TIP3   OH258593   4.710   4.578   6.706  0.5167 -0.3881  0.1010
12393TIP3    H158594   4.668   4.499   6.741  0.0700  0.4470  1.5583
12393TIP3    H258595   4.639   4.642   6.698  1.0898  0.2856  0.2658
12394TIP3   OH258596   2.980   2.831  16.653  0.3464  0.3884 -0.0587
12394TIP3    H158597   2.955   2.848  16.562 -1.3335 -1.7283 -0.0765
12394TIP3    H258598   3.073   2.808  16.648  0.7489  2.0152 -0.9497
12395TIP3   OH258599   3.315   5.397   2.050 -0.0224  0.5455 -0.2009
12395TIP3    H158600   3.273   5.469   2.096 -1.3460 -0.7090  0.6152
12395TIP3    H258601   3.409   5.409   2.066 -0.4145 -0.0228  3.1622
12396TIP3   OH258602   4.423   6.741   3.339 -0.4092  0.1203 -0.2276
12396TIP3    H158603   4.445   6.812   3.399  0.7411  0.4924 -1.0551
12396TIP3    H258604   4.389   6.785   3.261 -1.0218 -0.3148 -0.2131
12397TIP3   OH258605   2.221   2.280   1.717  0.1520 -0.1735  0.3475
12397TIP3    H158606   2.199   2.369   1.691  0.0672 -0.1518  0.4913
12397TIP3    H258607   2.141   2.245   1.756 -0.8881 -1.5014 -2.7231
12398TIP3   OH258608   6.345   6.158   1.401 -0.4899  0.3907 -0.1722
12398TIP3    H158609   6.386   6.121   1.479  0.7210  2.3307  0.1613
12398TIP3    H258610   6.385   6.111   1.328 -0.2934 -0.1808  0.3001
12399TIP3   OH258611   0.246   4.596  10.875  0.2085 -0.6090  0.1176
12399TIP3    H158612   0.336   4.628  10.877  0.4058 -1.1541  0.2163
12399TIP3    H258613   0.217   4.599  10.966 -0.6320  1.6224 -0.1732
12400TIP3   OH258614   2.249   3.691   2.849 -0.0886  0.0233  0.1682
12400TIP3    H158615   2.273   3.709   2.941 -1.6326 -0.0953  0.6173
12400TIP3    H258616   2.312   3.625   2.821  1.5153  1.3085  0.5755
12401TIP3   OH258617   0.515   4.873  12.225  0.3315  0.1451  0.1191
12401TIP3    H158618   0.588   4.931  12.245  0.2646  0.1779  0.2720
12401TIP3    H258619   0.538   4.790  12.267  0.6011 -0.0539 -0.4136
12402TIP3   OH258620   1.705   0.987   2.092  0.4352 -0.5228  0.4685
12402TIP3    H158621   1.776   1.031   2.139 -0.6034 -0.2570  1.8680
12402TIP3    H258622   1.627   1.037   2.115 -0.3235 -1.2525 -0.4381
12403TIP3   OH258623   0.353   0.296   5.620  0.0330 -0.1696  0.3143
12403TIP3    H158624   0.421   0.263   5.561  0.2506 -1.9244  1.4821
12403TIP3    H258625   0.321   0.376   5.577  0.5133 -1.0966 -1.9257
12404TIP3   OH258626   0.386   2.156   5.778 -0.0373 -0.1396  0.2340
12404TIP3    H158627   0.440   2.123   5.706 -1.0756 -1.5787  0.0690
12404TIP3    H258628   0.300   2.173   5.738 -0.2890  0.1903  0.8985
12405TIP3   OH258629   4.193   3.581   3.625  0.6183  0.3612  0.0677
12405TIP3    H158630   4.225   3.636   3.696  1.0758  0.9242 -0.5584
12405TIP3    H258631   4.249   3.604   3.550  0.2039 -0.2788 -0.4471
12406TIP3   OH258632   2.624   2.389   2.688 -0.4955 -0.2287 -0.4441
12406TIP3    H158633   2.700   2.338   2.661  0.8961  1.7124 -0.4290
12406TIP3    H258634   2.601   2.354   2.774  0.7046 -0.5211 -0.2247
12407TIP3   OH258635   5.246   4.232  10.892 -0.4198  0.1731 -0.0469
12407TIP3    H158636   5.196   4.294  10.840 -0.8172  1.0008  1.2741
12407TIP3    H258637   5.331   4.227  10.847 -0.8064  0.7312 -0.8655
12408TIP3   OH258638   6.722   0.226   5.904 -0.8280  0.4518 -0.1312
12408TIP3    H158639   6.743   0.317   5.885 -2.0494  0.6573 -0.5819
12408TIP3    H258640   6.802   0.177   5.882 -0.5275  1.2830 -0.9094
12409TIP3   OH258641   6.201   0.115  15.442 -0.1421 -0.1095 -0.0071
12409TIP3    H158642   6.210   0.023  15.418  0.9347 -0.2717  0.9170
12409TIP3    H258643   6.122   0.144  15.397 -0.0561 -1.2673 -0.9656
12410TIP3   OH258644   3.597   1.961   1.757  0.2053 -0.5441 -0.5707
12410TIP3    H158645   3.602   1.874   1.797 -0.9763 -0.3148  0.1393
12410TIP3    H258646   3.542   2.011   1.818  2.4672  1.2907  0.0886
12411TIP3   OH258647   0.198   4.034  16.818  0.5967 -0.8516 -0.2882
12411TIP3    H158648   0.226   3.986  16.895  1.5767  0.2927  0.1095
12411TIP3    H258649   0.264   4.104  16.808 -1.1954  0.9129 -0.3433
12412TIP3   OH258650   4.009   2.830  14.720 -0.2778 -0.3781  0.4985
12412TIP3    H158651   4.037   2.845  14.810  1.7762  0.4859 -0.2334
12412TIP3    H258652   4.065   2.887  14.667 -2.1980 -0.0163 -1.2551
12413TIP3   OH258653   0.998   5.029  12.545  0.2860 -0.3894 -0.4551
12413TIP3    H158654   0.992   4.936  12.566  0.6124 -0.4690 -0.7012
12413TIP3    H258655   0.978   5.073  12.628  0.5332 -0.6833 -0.2323
12414TIP3   OH258656   1.639   6.541   0.527  0.2208 -0.7385  0.1380
12414TIP3    H158657   1.663   6.631   0.506 -0.1352 -0.4600  0.8691
12414TIP3    H258658   1.554   6.549   0.572  0.0631 -1.4587 -0.0120
12415TIP3   OH258659   1.729   0.943   3.834  0.6205  0.2593  0.2938
12415TIP3    H158660   1.646   0.935   3.788  0.4996  0.4647  0.4736
12415TIP3    H258661   1.794   0.950   3.764  0.4998 -0.0153  0.1522
12416TIP3   OH258662   4.684   4.286   4.245 -0.0169 -0.3121  0.2720
12416TIP3    H158663   4.689   4.288   4.149 -0.0815 -1.8225  0.2105
12416TIP3    H258664   4.701   4.195   4.268 -0.0694  0.0134  1.7068
12417TIP3   OH258665   4.035   2.193  13.793 -0.6365  0.2185  0.1258
12417TIP3    H158666   3.960   2.170  13.738 -0.1241  1.6111 -1.2104
12417TIP3    H258667   4.015   2.153  13.878 -3.5000  1.5267  0.2026
12418TIP3   OH258668   3.273   5.855  12.738  0.4464 -0.2032 -0.3506
12418TIP3    H158669   3.212   5.918  12.777  1.5535  0.7807 -0.1206
12418TIP3    H258670   3.218   5.795  12.688 -0.5798  1.9722 -2.0190
12419TIP3   OH258671   4.336   6.692  17.218  0.2721 -0.1261 -0.5124
12419TIP3    H158672   4.385   6.702  17.136 -0.4734 -1.2582 -1.1300
12419TIP3    H258673   4.263   6.634  17.195  0.1540 -0.6200  1.0017
12420TIP3   OH258674   3.957   3.258   6.127 -0.5117 -0.2253  0.2854
12420TIP3    H158675   3.981   3.228   6.039  0.3184  0.2957  0.3213
12420TIP3    H258676   4.027   3.225   6.183 -0.3227  0.6045  0.5382
12421TIP3   OH258677   3.446   0.527   3.316 -0.2533 -0.1655 -0.5424
12421TIP3    H158678   3.421   0.495   3.229  1.1585  2.6226 -2.0980
12421TIP3    H258679   3.373   0.583   3.342 -1.3310 -2.0667  0.8242
12422TIP3   OH258680   3.496   1.413   3.399 -0.4090 -0.1921  0.1321
12422TIP3    H158681   3.496   1.373   3.312 -0.7123 -0.9629  0.4868
12422TIP3    H258682   3.586   1.442   3.412 -0.2985 -0.3310 -0.3177
12423TIP3   OH258683   2.268   6.198   4.289 -0.0621 -0.1024 -0.0147
12423TIP3    H158684   2.288   6.208   4.196  0.0563  2.1752  0.2069
12423TIP3    H258685   2.234   6.109   4.296 -2.5916  0.5006 -2.7091
12424TIP3   OH258686   4.017   0.082   4.156  0.3197  0.2316 -0.2981
12424TIP3    H158687   3.981  -0.003   4.132  1.2761 -0.3724  0.3529
12424TIP3    H258688   4.001   0.137   4.079 -0.9262 -0.3280 -0.4652
12425TIP3   OH258689   5.217   3.317  16.292 -0.0295  0.1639 -0.1726
12425TIP3    H158690   5.211   3.291  16.384  1.3186  1.6211  0.3582
12425TIP3    H258691   5.134   3.288  16.254  0.2067 -2.3111  0.9905
12426TIP3   OH258692   5.667   0.030  12.979 -0.1396  0.1123  0.3874
12426TIP3    H158693   5.650   0.125  12.982  0.7167  0.2746  0.3147
12426TIP3    H258694   5.705   0.011  13.065 -1.1844 -0.3483  0.7599
12427TIP3   OH258695   3.627   3.063   0.223  0.6427 -0.3372  0.0715
12427TIP3    H158696   3.617   3.097   0.134 -2.1339 -0.3093  0.3190
12427TIP3    H258697   3.571   2.986   0.227  1.3900 -0.8630  1.5741
12428TIP3   OH258698   0.562   2.640  12.404  0.2597 -0.1850 -0.5982
12428TIP3    H158699   0.510   2.633  12.324 -1.1322 -0.0354  0.2563
12428TIP3    H258700   0.572   2.550  12.434  1.5808 -0.3347 -1.3931
12429TIP3   OH258701   6.762   3.623  12.518  0.0511 -0.3184 -0.0478
12429TIP3    H158702   6.702   3.696  12.526  1.1759  0.5052  1.2444
12429TIP3    H258703   6.828   3.653  12.455  1.5009  0.5394  1.7940
12430TIP3   OH258704   5.082   4.342   2.361 -0.4276 -0.0892 -0.1559
12430TIP3    H158705   5.091   4.277   2.430 -2.7409 -0.9794 -0.5832
12430TIP3    H258706   4.994   4.378   2.373  0.7282  3.0648  0.0676
12431TIP3   OH258707   4.416   0.186   3.869  0.0167 -0.0037 -0.1521
12431TIP3    H158708   4.453   0.272   3.887 -1.2582  0.4520  0.4373
12431TIP3    H258709   4.353   0.201   3.798  1.2362 -0.8445 -1.4602
12432TIP3   OH258710   5.834   5.585  15.995  0.6608 -0.1231  0.1951
12432TIP3    H158711   5.811   5.493  15.988 -0.7555  0.1247  1.1789
12432TIP3    H258712   5.750   5.630  16.005  1.4288  1.0628  1.6996
12433TIP3   OH258713   2.154   2.658   3.324  0.0353 -0.7941  0.0487
12433TIP3    H158714   2.212   2.582   3.327  1.2424  0.1198  0.8501
12433TIP3    H258715   2.182   2.706   3.246  2.2397  1.0000  1.7910
12434TIP3   OH258716   1.035   2.277   0.024  0.2623 -0.2490 -0.0994
12434TIP3    H158717   0.965   2.221   0.055  0.5118 -0.6540 -0.2611
12434TIP3    H258718   1.024   2.279  -0.071  0.4730 -0.3172 -0.1262
12435TIP3   OH258719   4.959   3.942   1.674 -0.7553  0.1075 -0.0712
12435TIP3    H158720   4.981   4.020   1.724 -1.9943 -0.0648  0.8025
12435TIP3    H258721   5.043   3.902   1.653 -0.0624  1.9161 -0.9641
12436TIP3   OH258722   0.308   3.787  16.646  0.0400  0.0439 -0.1792
12436TIP3    H158723   0.265   3.855  16.698 -0.2694 -0.1395 -0.1913
12436TIP3    H258724   0.253   3.709  16.659 -0.5720  0.2230 -1.5196
12437TIP3   OH258725   2.818   6.346   3.701  0.0316 -0.4466 -0.4480
12437TIP3    H158726   2.791   6.254   3.697 -1.0568 -0.1337 -0.6651
12437TIP3    H258727   2.830   6.372   3.610 -0.7648 -0.0744 -0.4553
12438TIP3   OH258728   0.477   5.366   1.600 -0.3610  0.0483  0.4787
12438TIP3    H158729   0.386   5.396   1.590 -0.4755 -0.2962  0.4670
12438TIP3    H258730   0.507   5.350   1.510 -0.7683 -1.2249  0.5447
12439TIP3   OH258731   0.483   1.929   1.829  0.7681  0.4182 -0.1343
12439TIP3    H158732   0.388   1.936   1.818  0.6536  0.5493  0.8924
12439TIP3    H258733   0.507   1.853   1.776  0.0747  0.3199 -0.3191
12440TIP3   OH258734   2.572   5.619   0.945  0.0208 -0.0934 -0.0907
12440TIP3    H158735   2.652   5.588   0.987  0.7000  0.3711 -1.0117
12440TIP3    H258736   2.537   5.541   0.900 -0.1731 -0.3475  0.4880
12441TIP3   OH258737   2.595   4.323  10.726 -0.1453  0.0025  0.1048
12441TIP3    H158738   2.533   4.283  10.665  1.3078  0.3517 -1.7016
12441TIP3    H258739   2.648   4.250  10.758 -1.5191 -0.3150  1.7546
12442TIP3   OH258740   1.594   5.877   3.720  0.1956 -0.1842  0.5774
12442TIP3    H158741   1.534   5.940   3.679  0.1380 -0.7375 -0.2192
12442TIP3    H258742   1.681   5.913   3.704  0.1774 -0.4414 -0.1258
12443TIP3   OH258743   2.921   1.151  10.755 -0.0187 -0.0874  0.0536
12443TIP3    H158744   3.012   1.126  10.739  0.1093 -0.0483  0.6804
12443TIP3    H258745   2.927   1.238  10.795 -0.2769 -0.4496  0.9057
12444TIP3   OH258746   5.119   6.365  13.241 -0.3702  0.1194  0.8424
12444TIP3    H158747   5.033   6.384  13.203 -1.1224 -4.4946 -0.4947
12444TIP3    H258748   5.104   6.363  13.335 -1.9450 -1.1275  0.6119
12445TIP3   OH258749   0.360   1.061   0.028  0.6179  0.2550 -0.3087
12445TIP3    H158750   0.294   1.006  -0.015  0.8536  0.2899 -0.7258
12445TIP3    H258751   0.443   1.026  -0.004  0.9012 -0.9831  1.6300
12446TIP3   OH258752   5.706   5.558  14.156 -0.1555  0.0101  0.7211
12446TIP3    H158753   5.643   5.489  14.176  0.1074 -0.7346 -0.9262
12446TIP3    H258754   5.653   5.629  14.120 -0.4885  0.9197  2.8619
12447TIP3   OH258755   4.792   4.619   2.042 -0.3510 -0.0979 -0.3873
12447TIP3    H158756   4.773   4.706   2.006  1.5948  0.9357  0.8570
12447TIP3    H258757   4.769   4.558   1.972  0.1231  1.5729 -2.0892
12448TIP3   OH258758   6.648   1.175   4.490 -0.2588  0.4424  0.9408
12448TIP3    H158759   6.634   1.260   4.447  0.0742  0.0459  0.0227
12448TIP3    H258760   6.574   1.167   4.551 -0.7799  1.0079  0.4037
12449TIP3   OH258761   6.754   1.191  10.653  0.3891  0.1490 -0.2735
12449TIP3    H158762   6.753   1.287  10.646  1.1108  0.0838 -1.8159
12449TIP3    H258763   6.837   1.171  10.696  0.6489  0.2065 -0.7316
12450TIP3   OH258764   6.410   3.917   6.266  0.0364 -0.0256  0.0942
12450TIP3    H158765   6.424   3.843   6.206 -1.4468 -0.5261  0.3067
12450TIP3    H258766   6.496   3.934   6.303  0.6523 -0.8507 -0.8730
12451TIP3   OH258767   6.199   4.293   5.756 -0.1542 -0.3801 -0.6949
12451TIP3    H158768   6.263   4.294   5.685  0.3073  1.3125 -0.3175
12451TIP3    H258769   6.115   4.278   5.714  0.2286 -0.3473 -1.4826
12452TIP3   OH258770   5.000   3.129   1.461 -0.5524 -0.4325 -0.1676
12452TIP3    H158771   5.080   3.130   1.514 -0.6971 -0.8192  0.0617
12452TIP3    H258772   5.031   3.140   1.371 -0.2721 -0.1976 -0.0435
12453TIP3   OH258773   0.405   5.960   4.981 -0.2372  0.0085 -0.5567
12453TIP3    H158774   0.362   5.880   5.010  1.8996 -1.1086 -0.3523
12453TIP3    H258775   0.402   6.018   5.057 -0.2039 -0.5478 -0.1269
12454TIP3   OH258776   6.089   3.147   3.037  0.4049 -0.1633 -0.6984
12454TIP3    H158777   6.132   3.228   3.062 -0.0402  0.5111 -2.0525
12454TIP3    H258778   6.117   3.084   3.104  1.7454  0.7806 -0.3254
12455TIP3   OH258779   6.532   2.107  14.176 -0.3180 -0.1508  0.5234
12455TIP3    H158780   6.477   2.166  14.125  1.3679 -0.9907 -2.5118
12455TIP3    H258781   6.487   2.022  14.173 -0.1531 -0.2318  0.3141
12456TIP3   OH258782   5.084   4.665   5.526  0.1578 -0.0854  0.0705
12456TIP3    H158783   5.167   4.633   5.562 -0.1245 -0.1022  0.7222
12456TIP3    H258784   5.072   4.751   5.566  0.4158  0.4121 -0.9005
12457TIP3   OH258785   0.103   4.430   1.667  0.0309 -0.4205  0.3326
12457TIP3    H158786   0.146   4.480   1.597  2.2094  0.0866  1.9274
12457TIP3    H258787   0.009   4.443   1.651  0.4734  1.1376 -1.4508
12458TIP3   OH258788   6.015   3.280  17.142  0.3305  0.6382  0.1056
12458TIP3    H158789   5.923   3.257  17.147  0.1699  1.1698 -0.3588
12458TIP3    H258790   6.035   3.319  17.227  0.3737 -0.3581  0.5575
12459TIP3   OH258791   3.796   4.205   4.660  0.0446  0.3506 -0.7843
12459TIP3    H158792   3.730   4.266   4.627 -1.7517 -0.1700  1.5898
12459TIP3    H258793   3.858   4.261   4.707  1.3310  0.8200 -2.8793
12460TIP3   OH258794   1.550   4.788   2.132 -0.5447 -0.0191 -0.1616
12460TIP3    H158795   1.487   4.724   2.164 -1.6900 -0.2198 -2.5807
12460TIP3    H258796   1.502   4.836   2.064  1.8251 -0.0063 -1.9230
12461TIP3   OH258797   0.205   4.304  11.822 -0.0586 -0.0961 -0.1439
12461TIP3    H158798   0.121   4.324  11.864 -0.6502 -1.5545 -0.5665
12461TIP3    H258799   0.191   4.326  11.730  0.0620 -0.2053 -0.1881
12462TIP3   OH258800   2.464   5.907   4.137  0.0508 -0.3273 -0.1080
12462TIP3    H158801   2.408   5.902   4.215 -1.5137 -0.6996 -1.2022
12462TIP3    H258802   2.549   5.876   4.167 -0.9099 -1.9639  1.1009
12463TIP3   OH258803   3.350   4.055  14.063 -0.1013 -0.0227 -0.1619
12463TIP3    H158804   3.255   4.041  14.069 -0.2169  0.8339  0.1005
12463TIP3    H258805   3.371   4.037  13.971 -0.5454 -0.0666 -0.2560
12464TIP3   OH258806   3.165   4.380  13.662 -0.1318 -0.4471 -0.0540
12464TIP3    H158807   3.137   4.410  13.576 -2.5529 -0.2472  0.7357
12464TIP3    H258808   3.260   4.368  13.654 -0.3714 -1.0334 -2.8943
12465TIP3   OH258809   3.543   4.481  13.390 -0.5643 -0.0991  0.2496
12465TIP3    H158810   3.568   4.439  13.308  1.1470  0.0131  0.6729
12465TIP3    H258811   3.481   4.549  13.365  0.4969  0.4277 -1.0636
12466TIP3   OH258812   1.599   0.857   5.931  0.6767 -0.1011 -0.6705
12466TIP3    H158813   1.694   0.868   5.920  0.8323 -1.1595 -0.5458
12466TIP3    H258814   1.575   0.791   5.865  0.1574 -0.3833 -0.2059
12467TIP3   OH258815   4.361   4.220   5.504 -0.0534 -0.1843 -0.1917
12467TIP3    H158816   4.391   4.137   5.539 -0.0284 -0.8691 -1.7718
12467TIP3    H258817   4.424   4.285   5.536  0.7018 -0.9789 -0.0502
12468TIP3   OH258818   0.363   5.800   3.984 -0.0622 -0.4621 -0.1818
12468TIP3    H158819   0.296   5.736   4.007  1.0255 -1.2077  1.0489
12468TIP3    H258820   0.315   5.883   3.978 -1.1791 -1.0619  0.0912
12469TIP3   OH258821   3.383   5.664   3.571  1.0159 -0.2023  0.5983
12469TIP3    H158822   3.364   5.756   3.591  2.3800 -0.0597  1.3817
12469TIP3    H258823   3.302   5.631   3.533  1.4426  2.2266 -2.9660
12470TIP3   OH258824   2.219   1.309   1.467 -0.3862  0.6022  0.4625
12470TIP3    H158825   2.221   1.214   1.480  0.0094  0.7395  1.4898
12470TIP3    H258826   2.289   1.327   1.404 -0.2969  0.2439  0.4585
12471TIP3   OH258827   6.621   2.626   2.903 -0.1072  0.0406 -0.6099
12471TIP3    H158828   6.564   2.626   2.979 -0.4963  0.3668 -0.9020
12471TIP3    H258829   6.668   2.709   2.907  1.1336 -0.6756  0.2118
12472TIP3   OH258830   3.792   5.815   3.410  0.2777  0.0263  0.1669
12472TIP3    H158831   3.787   5.762   3.330  0.8734  0.9408 -0.4841
12472TIP3    H258832   3.785   5.905   3.380  0.9856  0.4063  1.1049
12473TIP3   OH258833   1.840   6.709  10.718 -0.3145  0.2426  0.4287
12473TIP3    H158834   1.817   6.737  10.806  1.7781 -0.7363  1.3511
12473TIP3    H258835   1.791   6.627  10.705 -1.7211  1.1085  0.0868
12474TIP3   OH258836   1.142   0.189   3.848  0.0364  0.1771  0.5944
12474TIP3    H158837   1.218   0.219   3.898  1.1382 -1.0092 -0.2727
12474TIP3    H258838   1.083   0.151   3.913  1.7764 -2.0240  1.0127
12475TIP3   OH258839   1.348   5.683  12.430 -0.9145 -0.1386  0.4470
12475TIP3    H158840   1.314   5.646  12.512 -0.1173  0.8520  1.2569
12475TIP3    H258841   1.443   5.671  12.436 -0.5737  2.2344  0.9054
12476TIP3   OH258842   2.827   3.825  15.052  0.2902  0.2528 -0.7331
12476TIP3    H158843   2.744   3.790  15.020  0.4866 -1.0207  0.1234
12476TIP3    H258844   2.840   3.905  15.000 -1.7699  0.8250 -0.4392
12477TIP3   OH258845   6.338   0.711  12.152  0.4351 -0.0714  0.2784
12477TIP3    H158846   6.262   0.661  12.121 -0.2923  1.3323 -0.2941
12477TIP3    H258847   6.398   0.644  12.186 -0.7503 -1.2740  0.1128
12478TIP3   OH258848   1.032   0.377   4.759 -0.3543  0.0954  0.4038
12478TIP3    H158849   1.007   0.363   4.668  0.3222 -0.4740  0.2915
12478TIP3    H258850   1.031   0.472   4.770 -1.7613  0.1298  0.2019
12479TIP3   OH258851   2.045   6.347  15.548  0.1156  0.3838 -0.2377
12479TIP3    H158852   2.003   6.428  15.520  3.3642  2.5376  0.5875
12479TIP3    H258853   2.102   6.324  15.475  1.1718  0.3857  0.5631
12480TIP3   OH258854   2.928   6.230   2.030  0.5854 -0.2300  0.1376
12480TIP3    H158855   2.867   6.179   1.977  0.4369 -0.1794  0.2595
12480TIP3    H258856   3.012   6.184   2.022  0.1433 -1.2876  1.3689
12481TIP3   OH258857   0.100   5.114  11.628 -0.2445  0.7332 -0.6559
12481TIP3    H158858   0.196   5.114  11.629 -0.2437  0.5355 -0.4789
12481TIP3    H258859   0.076   5.140  11.539 -0.0404  1.7713 -0.4153
12482TIP3   OH258860   2.227   4.741   4.491 -0.0729  0.2476  0.4489
12482TIP3    H158861   2.202   4.754   4.583  1.0516  2.8562  0.4847
12482TIP3    H258862   2.157   4.783   4.441 -0.2609 -0.4235  0.1444
12483TIP3   OH258863   3.622   0.486   0.960  0.5131  0.4440 -0.4388
12483TIP3    H158864   3.666   0.521   0.882  2.1301 -0.0650  0.2048
12483TIP3    H258865   3.675   0.517   1.033 -0.3660  0.0109  0.3940
12484TIP3   OH258866   4.027   2.932   1.242 -0.1080 -0.7034 -0.6728
12484TIP3    H158867   4.016   3.009   1.298  0.7739 -2.1328  1.5545
12484TIP3    H258868   3.955   2.874   1.266 -1.2517 -0.3551 -2.9102
12485TIP3   OH258869   1.709   0.714   4.691  0.7740  0.3168 -0.6400
12485TIP3    H158870   1.709   0.706   4.786  0.4496 -0.4779 -0.7057
12485TIP3    H258871   1.622   0.749   4.670  1.5900  2.6160 -0.4926
12486TIP3   OH258872   3.052   4.210   1.113  0.0280 -0.3460 -0.2286
12486TIP3    H158873   3.066   4.295   1.155  0.5300 -1.5637  2.2695
12486TIP3    H258874   2.993   4.164   1.173 -2.0171 -1.0257 -2.6361
12487TIP3   OH258875   3.420   1.600  12.183  0.2748 -0.2900  0.1543
12487TIP3    H158876   3.472   1.661  12.130 -0.6688 -1.3715 -2.1474
12487TIP3    H258877   3.479   1.526  12.199  0.6202  0.1167  0.8129
12488TIP3   OH258878   5.066   0.185   1.823  0.0805 -0.1275 -0.2154
12488TIP3    H158879   5.132   0.184   1.753 -0.0879 -2.1101 -0.4074
12488TIP3    H258880   5.109   0.230   1.896  0.7886  0.6705 -1.0973
12489TIP3   OH258881   4.800   2.666  14.170  0.0736 -0.6904 -0.2232
12489TIP3    H158882   4.789   2.603  14.099  2.5652 -1.3520 -0.1311
12489TIP3    H258883   4.752   2.628  14.243 -2.1147 -0.2442 -1.3569
12490TIP3   OH258884   1.820   6.449  15.753 -0.1806  0.2088  0.2250
12490TIP3    H158885   1.867   6.507  15.693 -1.7086 -0.0365 -1.3157
12490TIP3    H258886   1.846   6.478  15.840  3.9985 -0.9139 -0.4272
12491TIP3   OH258887   2.056   2.610  12.045 -0.5335 -0.2687  0.0998
12491TIP3    H158888   2.134   2.575  12.000  0.7309  2.0486  0.3545
12491TIP3    H258889   2.004   2.648  11.975  0.4779  1.5803  0.2954
12492TIP3   OH258890   2.278   6.081   1.099  0.4867 -0.1442  0.2816
12492TIP3    H158891   2.343   6.017   1.069 -0.5904 -0.3397 -1.7765
12492TIP3    H258892   2.321   6.166   1.087  0.9287 -0.3405  0.4413
12493TIP3   OH258893   5.279   5.058  15.796  0.0865  0.0921  0.1946
12493TIP3    H158894   5.235   5.142  15.806  1.4185  0.9320 -0.6703
12493TIP3    H258895   5.259   5.031  15.707 -0.5865 -0.6923  0.5624
12494TIP3   OH258896   6.314   5.538   4.284  0.2976  0.1174 -0.0944
12494TIP3    H158897   6.290   5.489   4.363  2.7639  0.6433  1.0818
12494TIP3    H258898   6.278   5.625   4.299 -0.2040 -0.0864 -0.0878
12495TIP3   OH258899   3.570   5.868  12.733 -0.3071  0.2262 -0.5275
12495TIP3    H158900   3.475   5.873  12.739 -0.4050  3.3107 -2.3664
12495TIP3    H258901   3.587   5.815  12.654 -0.3308 -1.9713  0.8476
12496TIP3   OH258902   4.384   5.612  16.359 -1.2164  0.0185  0.5787
12496TIP3    H158903   4.437   5.603  16.280 -1.7869 -1.1151  0.3028
12496TIP3    H258904   4.446   5.638  16.427 -0.7851  1.3978 -0.3028
12497TIP3   OH258905   3.538   5.707  15.910 -0.0131  0.1546  0.1545
12497TIP3    H158906   3.607   5.769  15.885 -0.6135  0.1288 -1.6764
12497TIP3    H258907   3.586   5.633  15.949  0.6928  1.8157  2.6871
12498TIP3   OH258908   0.276   1.647  11.151 -0.0137  0.1323  0.0323
12498TIP3    H158909   0.252   1.713  11.086  1.5165  0.1134 -0.6094
12498TIP3    H258910   0.362   1.675  11.183  0.4651 -1.2793  0.0822
12499TIP3   OH258911   6.564   4.482   5.643  0.1430 -0.7406  0.0711
12499TIP3    H158912   6.563   4.532   5.561  2.3043 -1.1767 -0.2785
12499TIP3    H258913   6.656   4.471   5.663 -0.3251 -0.3076  2.8104
12500TIP3   OH258914   6.580   3.197  14.122  0.2462 -0.7955  0.4776
12500TIP3    H158915   6.517   3.192  14.194  0.0314 -1.4956  0.2439
12500TIP3    H258916   6.527   3.187  14.043  0.7814 -2.6088  0.3179
12501TIP3   OH258917   2.535   5.059  14.484  0.4249 -0.3423 -0.3746
12501TIP3    H158918   2.457   5.082  14.435  0.5352  3.3738  0.9140
12501TIP3    H258919   2.502   5.007  14.558 -0.0535 -3.4467 -2.5898
12502TIP3   OH258920   6.102   1.978   3.478 -0.4774 -0.7122 -0.2860
12502TIP3    H158921   6.138   1.952   3.393  1.6341  2.5906 -0.5865
12502TIP3    H258922   6.168   2.037   3.515 -2.5800  0.1657  2.4153
12503TIP3   OH258923   6.054   4.319   5.418  0.7908 -0.1051 -0.0913
12503TIP3    H158924   6.139   4.317   5.375  0.1456 -0.4854 -1.4032
12503TIP3    H258925   6.028   4.227   5.426  1.2174 -0.0910  1.8231
12504TIP3   OH258926   3.910   0.060  14.112  0.8200  0.9238  0.3324
12504TIP3    H158927   3.897   0.155  14.110  0.6879  0.8889 -0.8441
12504TIP3    H258928   3.978   0.044  14.048  0.9854  0.2380  0.6775
12505TIP3   OH258929   4.538   0.577   2.447  0.2886  0.0479  0.0714
12505TIP3    H158930   4.548   0.577   2.352  0.9097 -0.5175  0.1323
12505TIP3    H258931   4.478   0.650   2.465 -0.5596 -0.4174 -0.8140
12506TIP3   OH258932   3.504   0.829   5.988  0.1507  0.4550 -0.0554
12506TIP3    H158933   3.448   0.865   6.057  0.0066  0.7373 -0.3174
12506TIP3    H258934   3.593   0.845   6.020  0.0846  0.4455  0.1371
12507TIP3   OH258935   5.283   3.953  16.244 -0.1586  0.6136  0.5952
12507TIP3    H158936   5.309   4.024  16.185  0.7648 -1.2810 -1.4118
12507TIP3    H258937   5.343   3.961  16.318  1.2252  0.8221 -0.4984
12508TIP3   OH258938   4.396   1.862   4.618 -0.3596  0.0724 -0.2458
12508TIP3    H158939   4.465   1.918   4.653 -1.0648  0.5581  0.4064
12508TIP3    H258940   4.390   1.790   4.681 -1.2016  0.6225  0.3349
12509TIP3   OH258941   5.604   6.640   2.013 -0.1279  0.0199  0.0713
12509TIP3    H158942   5.509   6.647   2.023 -0.2761 -2.5555  1.3509
12509TIP3    H258943   5.637   6.632   2.102  1.0703 -0.9050 -0.4234
12510TIP3   OH258944   0.947   1.341   3.176 -0.1513  0.2570  0.6332
12510TIP3    H158945   0.902   1.292   3.107 -0.3190  0.8331  0.3298
12510TIP3    H258946   0.880   1.354   3.243 -0.7205  1.8476 -0.1812
12511TIP3   OH258947   2.620   5.799   0.190 -0.2320 -0.5780  0.1899
12511TIP3    H158948   2.627   5.778   0.283 -0.5666 -0.2058  0.2983
12511TIP3    H258949   2.701   5.763   0.152  0.3462  0.0859  0.7691
12512TIP3   OH258950   1.789   6.002   5.230 -0.2185  0.1328  0.3231
12512TIP3    H158951   1.723   5.933   5.240 -0.1865  0.1043  0.3399
12512TIP3    H258952   1.870   5.954   5.209 -0.0735  0.1321  0.8861
12513TIP3   OH258953   1.197   1.776   4.825 -0.2533  0.6424 -0.1067
12513TIP3    H158954   1.158   1.748   4.908 -0.0431  0.3866 -0.0934
12513TIP3    H258955   1.288   1.747   4.830 -0.2025  0.7535 -0.3672
12514TIP3   OH258956   5.955   2.409   0.229 -0.3131 -0.0234  0.3411
12514TIP3    H158957   6.018   2.460   0.178 -0.4085  0.3183  0.5639
12514TIP3    H258958   6.008   2.356   0.288 -0.1971 -0.4923 -0.1779
12515TIP3   OH258959   4.417   5.088   0.294 -0.2989  0.1282 -0.0171
12515TIP3    H158960   4.410   5.000   0.256  1.5504  0.3573 -1.0328
12515TIP3    H258961   4.349   5.139   0.250 -2.9111 -1.2110  2.1679
12516TIP3   OH258962   4.918   1.887  12.404  0.4755  0.2988 -0.1946
12516TIP3    H158963   4.852   1.818  12.395 -0.5363  0.9735  1.5354
12516TIP3    H258964   4.990   1.845  12.452 -0.4449  0.5924  1.4997
12517TIP3   OH258965   1.091   5.170   3.957 -0.0996 -0.7058 -0.0499
12517TIP3    H158966   1.169   5.223   3.975 -0.4671 -1.0338  2.8654
12517TIP3    H258967   1.018   5.232   3.959 -0.1416 -0.7100 -0.8671
12518TIP3   OH258968   5.248   2.530   0.350  0.2491  0.3445 -0.2707
12518TIP3    H158969   5.304   2.459   0.320 -0.3106  0.3553 -1.3972
12518TIP3    H258970   5.240   2.588   0.274 -1.8764 -0.0524 -0.4056
12519TIP3   OH258971   0.362   4.699   0.277 -0.3801  0.2735  0.4199
12519TIP3    H158972   0.390   4.774   0.329  1.2917  0.2611 -0.3985
12519TIP3    H258973   0.320   4.738   0.200 -2.4209  0.2923  1.4516
12520TIP3   OH258974   0.492   2.513  16.561  0.1213 -0.5762  0.3895
12520TIP3    H158975   0.561   2.489  16.498 -1.0214 -2.7643 -0.1387
12520TIP3    H258976   0.447   2.587  16.521  0.7521 -0.5707 -0.3390
12521TIP3   OH258977   3.759   5.258   5.386  0.1194 -1.4205  0.2167
12521TIP3    H158978   3.722   5.181   5.343  0.4619 -1.5574  0.1666
12521TIP3    H258979   3.743   5.244   5.479 -1.0070 -0.9231  0.1203
12522TIP3   OH258980   5.427   0.766   2.523  0.2185  0.2054  0.2432
12522TIP3    H158981   5.492   0.698   2.538  1.5303  1.1592 -0.8687
12522TIP3    H258982   5.418   0.770   2.428 -1.6226 -0.0150  0.3687
12523TIP3   OH258983   3.903   4.333   6.032  0.3335 -0.2337 -0.0812
12523TIP3    H158984   3.818   4.291   6.042  0.6723 -0.9282 -0.0899
12523TIP3    H258985   3.903   4.403   6.097 -0.0288 -0.5851  0.2978
12524TIP3   OH258986   5.388   4.189   3.199 -0.3771 -0.4574  0.6237
12524TIP3    H158987   5.371   4.269   3.249  0.7409 -0.3284  0.8227
12524TIP3    H258988   5.412   4.124   3.265 -0.7110 -0.8003  0.4101
12525TIP3   OH258989   0.841   5.060   2.546  0.0278  0.2228  0.2680
12525TIP3    H158990   0.921   5.027   2.506  0.2209  1.3929 -0.3611
12525TIP3    H258991   0.832   5.010   2.627  0.8789 -0.5775 -0.1185
12526TIP3   OH258992   2.058   5.991   1.218 -0.4017 -0.5813 -0.0011
12526TIP3    H158993   2.008   6.049   1.161 -0.2799  2.6145  2.8325
12526TIP3    H258994   2.149   6.005   1.192 -0.1842  2.2058  1.8629
12527TIP3   OH258995   2.037   2.320   4.294  0.4730  0.1176 -0.9395
12527TIP3    H158996   1.985   2.298   4.217  0.4837 -0.2770 -0.8380
12527TIP3    H258997   2.128   2.302   4.268  0.4350 -0.5163 -0.6775
12528TIP3   OH258998   1.476   1.589  11.729 -0.3450 -0.4384 -0.1094
12528TIP3    H158999   1.427   1.665  11.760 -0.1955 -0.3242 -0.1474
12528TIP3    H259000   1.568   1.616  11.737 -0.2975 -0.5439 -0.3037
12529TIP3   OH259001   5.790   2.230   4.847  0.0312 -0.2974 -0.1910
12529TIP3    H159002   5.728   2.260   4.913 -0.9832 -1.1482 -0.7429
12529TIP3    H259003   5.827   2.149   4.883 -0.0659 -0.4306 -0.3855
12530TIP3   OH259004   0.971   4.118  15.506 -0.2384 -0.1853  0.6572
12530TIP3    H159005   1.017   4.130  15.589  0.7977 -2.3438  0.4785
12530TIP3    H259006   0.942   4.205  15.482  2.9998  1.2113  1.2455
12531TIP3   OH259007   1.094   4.655   0.016  0.0671 -0.6603 -0.5836
12531TIP3    H159008   1.094   4.745   0.046 -1.6949 -0.6762 -0.4313
12531TIP3    H259009   1.107   4.602   0.095 -0.2202 -0.5792 -0.4828
12532TIP3   OH259010   0.614   1.897  12.419 -0.0105  0.3373  0.2723
12532TIP3    H159011   0.551   1.928  12.355  0.1829  0.4881  0.1546
12532TIP3    H259012   0.686   1.862  12.368 -0.8767 -1.7317  0.3746
12533TIP3   OH259013   0.611   4.823   3.066  0.1339 -0.1104  0.3037
12533TIP3    H159014   0.547   4.890   3.087  0.7992  0.6706 -0.1044
12533TIP3    H259015   0.686   4.871   3.029  0.3660 -1.1199 -0.6036
12534TIP3   OH259016   1.245   0.747   4.548 -0.0747  0.1199 -0.1060
12534TIP3    H159017   1.245   0.808   4.474 -3.2787  0.1321 -0.2487
12534TIP3    H259018   1.163   0.767   4.594 -0.0182 -2.4498  1.2348
12535TIP3   OH259019   0.153   2.545   2.267  0.6502 -0.4256 -0.1473
12535TIP3    H159020   0.177   2.627   2.224  1.6739  0.5002  2.0550
12535TIP3    H259021   0.061   2.532   2.243  0.8169  0.6780 -1.5272
12536TIP3   OH259022   1.346   5.628   0.723  0.1526 -0.2189 -0.2472
12536TIP3    H159023   1.315   5.540   0.743  0.5657 -0.1015  1.0022
12536TIP3    H259024   1.312   5.647   0.635  0.2465 -1.6993 -0.6173
12537TIP3   OH259025   6.612   1.916  12.371 -0.1085  0.0780  0.9298
12537TIP3    H159026   6.592   1.843  12.430  1.1815 -1.6000 -0.5667
12537TIP3    H259027   6.533   1.969  12.370 -1.6551 -2.0921  0.9926
12538TIP3   OH259028   1.241   5.392   5.995 -0.2241  0.7728 -0.3415
12538TIP3    H159029   1.315   5.401   6.056 -1.2760  2.7759  0.7388
12538TIP3    H259030   1.183   5.328   6.037 -1.4247  2.8665  1.3994
12539TIP3   OH259031   1.921   6.276   4.885 -0.2041  0.0222  0.3028
12539TIP3    H159032   1.975   6.236   4.817  0.3305  1.3396 -0.0647
12539TIP3    H259033   1.859   6.207   4.909  1.1888 -1.2965  0.2554
12540TIP3   OH259034   4.243   3.597   0.440 -0.0297  0.3801 -0.0899
12540TIP3    H159035   4.188   3.583   0.363 -0.1465  2.4799 -0.4527
12540TIP3    H259036   4.214   3.681   0.476  2.7607  1.5085 -0.1767
12541TIP3   OH259037   4.820   0.056   0.269  0.1820  0.3891  0.0539
12541TIP3    H159038   4.836  -0.019   0.326 -0.4788  0.1899 -0.0161
12541TIP3    H259039   4.890   0.053   0.204  0.4052  0.0879  0.3098
12542TIP3   OH259040   2.323   6.222   1.661 -0.1624  0.5278 -0.4984
12542TIP3    H159041   2.247   6.169   1.684 -0.1771 -0.1007 -1.8688
12542TIP3    H259042   2.292   6.280   1.591 -0.0353  2.0893  0.6817
12543TIP3   OH259043   1.715   1.419  10.458  0.5517 -0.5649 -0.8976
12543TIP3    H159044   1.661   1.476  10.404  0.8826  1.1929  0.5125
12543TIP3    H259045   1.779   1.381  10.398 -0.1752 -0.0485 -2.0157
12544TIP3   OH259046   0.690   4.908  16.778 -0.2290 -0.7166 -0.6713
12544TIP3    H159047   0.653   4.822  16.759  0.7956 -1.4512  0.4970
12544TIP3    H259048   0.762   4.891  16.838  0.4619  0.8992 -0.9741
12545TIP3   OH259049   2.875   5.921  17.242 -0.4242 -0.4144 -0.0027
12545TIP3    H159050   2.901   5.970  17.164  0.4258 -1.1396 -0.1935
12545TIP3    H259051   2.859   5.988  17.308  1.0080  0.1303 -0.1636
12546TIP3   OH259052   4.140   6.092   1.715  0.2595  0.0139  0.3399
12546TIP3    H159053   4.090   6.021   1.674  1.2983  0.5176 -1.9575
12546TIP3    H259054   4.077   6.164   1.720  0.2121  0.0867 -0.8831
12547TIP3   OH259055   3.577   0.487  11.613 -0.1685  0.0407 -0.7530
12547TIP3    H159056   3.668   0.517  11.608 -0.5768  1.6491  0.6077
12547TIP3    H259057   3.525   0.565  11.593 -1.2517 -0.1971  0.9652
12548TIP3   OH259058   0.324   0.441   0.737  0.4340  0.2943  0.2500
12548TIP3    H159059   0.417   0.446   0.716  0.3915 -0.4075 -0.1235
12548TIP3    H259060   0.290   0.528   0.715  0.8893  0.3694 -0.1761
12549TIP3   OH259061   0.969   2.951  15.992  0.2617 -0.0824 -0.3033
12549TIP3    H159062   1.050   2.999  15.976  0.3756 -0.7619 -1.9814
12549TIP3    H259063   0.990   2.889  16.062  0.6753  0.9153  0.4741
12550TIP3   OH259064   1.103   4.116   6.140 -0.4010 -0.2947 -0.0196
12550TIP3    H159065   1.192   4.122   6.174 -1.2990 -0.0460  2.5547
12550TIP3    H259066   1.095   4.027   6.107  0.8455 -0.2460 -0.4961
12551TIP3   OH259067   1.729   0.874  13.488  0.0933  0.0465 -0.1087
12551TIP3    H159068   1.715   0.920  13.405 -0.0986 -1.1831 -0.7938
12551TIP3    H259069   1.641   0.860  13.523  0.1941  0.9154  0.5219
12552TIP3   OH259070   5.804   0.643   4.230 -0.3708  0.2913 -0.2020
12552TIP3    H159071   5.893   0.615   4.253 -1.4192 -2.6846  0.6691
12552TIP3    H259072   5.800   0.631   4.135  0.7364  2.5306 -0.6041
12553TIP3   OH259073   2.089   0.020  11.459 -0.0072 -0.2215 -0.4027
12553TIP3    H159074   2.087  -0.055  11.400 -0.6648  0.8009 -1.7713
12553TIP3    H259075   2.015   0.006  11.518  0.4445 -1.1018 -0.0405
12554TIP3   OH259076   5.514   3.813  13.859 -0.3145  0.3751 -0.7050
12554TIP3    H159077   5.584   3.773  13.911 -0.3700 -2.0724 -2.3398
12554TIP3    H259078   5.433   3.785  13.901 -0.3407 -0.5288 -1.3356
12555TIP3   OH259079   2.427   1.482   5.696 -0.3556  0.5411 -0.1113
12555TIP3    H159080   2.410   1.465   5.604 -0.4781  0.6552 -0.1109
12555TIP3    H259081   2.519   1.458   5.709 -0.2500  0.8149 -0.3336
12556TIP3   OH259082   1.003   4.115  11.015 -0.1887 -0.6410 -0.2062
12556TIP3    H159083   0.949   4.188  11.047 -1.5089 -1.2263 -1.0510
12556TIP3    H259084   1.092   4.138  11.045 -0.0397  2.6565 -2.5767
12557TIP3   OH259085   6.134   0.833  15.089 -0.6911 -0.4470 -0.0866
12557TIP3    H159086   6.122   0.826  15.184 -2.1646 -0.8078 -0.2698
12557TIP3    H259087   6.186   0.756  15.066  0.2187 -0.0240  0.4890
12558TIP3   OH259088   3.806   5.414   2.726  0.6368  0.0799 -0.2122
12558TIP3    H159089   3.867   5.342   2.744  0.7471 -0.2557 -1.7668
12558TIP3    H259090   3.756   5.384   2.650  1.1610  1.9056 -1.3416
12559TIP3   OH259091   3.895   6.198   0.044 -0.7128 -0.2427 -0.5904
12559TIP3    H159092   3.885   6.291   0.064  0.5585  0.6822 -3.7133
12559TIP3    H259093   3.821   6.178  -0.014 -0.8738 -1.1568 -0.0878
12560TIP3   OH259094   5.887   4.335   4.537  0.6437 -0.8811  0.3574
12560TIP3    H159095   5.963   4.281   4.557 -0.1675 -2.3125 -0.2657
12560TIP3    H259096   5.921   4.405   4.482  1.7697 -0.5464  1.4369
12561TIP3   OH259097   5.262   2.234  10.999  0.2817 -0.0595  0.0932
12561TIP3    H159098   5.328   2.262  10.935 -0.0811  1.5211  0.3888
12561TIP3    H259099   5.288   2.144  11.022  2.6536  0.6834  0.5979
12562TIP3   OH259100   2.934   6.570  11.723 -0.1175 -0.6110  0.3444
12562TIP3    H159101   2.981   6.553  11.642  0.9929 -1.1655  1.0685
12562TIP3    H259102   3.001   6.563  11.791 -1.2565 -1.4527  1.4304
12563TIP3   OH259103   0.761   2.728  10.765  0.8088 -0.2863  0.0029
12563TIP3    H159104   0.732   2.668  10.833  0.0165  1.1916  1.0293
12563TIP3    H259105   0.810   2.673  10.703 -1.6841 -2.3771 -0.2745
12564TIP3   OH259106   0.514   4.440  15.619  0.3202 -0.0398 -0.1467
12564TIP3    H159107   0.564   4.392  15.685  0.6011 -1.8198 -1.5508
12564TIP3    H259108   0.502   4.376  15.548 -2.9548  0.6503 -0.3806
12565TIP3   OH259109   1.711   3.866   2.940 -0.1486  0.3664  0.0527
12565TIP3    H159110   1.641   3.802   2.925  0.2256  0.4105 -2.3122
12565TIP3    H259111   1.667   3.951   2.936  0.0533  0.4529 -2.4579
12566TIP3   OH259112   5.027   2.105  17.183  0.3979  0.0897 -0.1803
12566TIP3    H159113   5.079   2.172  17.228 -0.3627 -0.5194  1.6895
12566TIP3    H259114   4.970   2.069  17.251 -1.9101  0.1465 -1.9433
12567TIP3   OH259115   2.946   4.100  14.474 -1.1177  0.7345 -0.3686
12567TIP3    H159116   2.963   4.108  14.380  0.4262  0.5193 -0.1349
12567TIP3    H259117   2.907   4.013  14.484  0.0471  0.1552 -0.6617
12568TIP3   OH259118   5.567   0.508  16.733 -0.3001 -0.0437 -0.1689
12568TIP3    H159119   5.581   0.483  16.825  0.5133 -1.0079 -0.5387
12568TIP3    H259120   5.558   0.425  16.687  2.3745  0.2790 -1.4305
12569TIP3   OH259121   0.921   0.611  16.034  0.1299 -0.1850 -0.3624
12569TIP3    H159122   0.990   0.545  16.028 -0.6545 -1.5410  3.0985
12569TIP3    H259123   0.844   0.567  15.998  0.0682 -0.4467  0.0731
12570TIP3   OH259124   1.592   1.775  15.361 -1.2095  0.5232 -0.0960
12570TIP3    H159125   1.520   1.763  15.299  0.8406  0.7104 -2.6638
12570TIP3    H259126   1.638   1.691  15.361  0.3262  1.3290 -0.9052
12571TIP3   OH259127   6.506   0.162   0.596  0.1042  0.2432  0.4452
12571TIP3    H159128   6.513   0.066   0.594 -0.4821  0.2136 -1.2759
12571TIP3    H259129   6.416   0.178   0.624  0.6561  0.3623  2.3390
12572TIP3   OH259130   4.293   1.085  13.821  0.3653 -0.2882 -0.0711
12572TIP3    H159131   4.223   1.049  13.767  0.5343 -0.3888 -0.2222
12572TIP3    H259132   4.247   1.134  13.889  0.1120 -1.3694  0.5581
12573TIP3   OH259133   3.171   0.126  13.056 -0.0582  0.0030  0.4100
12573TIP3    H159134   3.189   0.144  12.964 -0.0263  1.1209  0.6295
12573TIP3    H259135   3.110   0.053  13.054  0.3797 -0.3584 -0.4777
12574TIP3   OH259136   5.393   3.910   4.265 -0.2202  0.0052 -0.1195
12574TIP3    H159137   5.418   3.919   4.357 -0.9963 -0.1227  0.1092
12574TIP3    H259138   5.352   3.993   4.243  1.2457  0.6000 -0.7843
12575TIP3   OH259139   4.699   1.959  13.384 -0.2720 -0.1548  0.0869
12575TIP3    H159140   4.675   2.046  13.352  0.7451 -0.4292 -1.5618
12575TIP3    H259141   4.788   1.970  13.419  0.3290 -0.7159 -1.1865
12576TIP3   OH259142   5.495   5.540  15.669  0.3621  0.0015 -0.2883
12576TIP3    H159143   5.404   5.514  15.666  0.0510  0.9523  0.3387
12576TIP3    H259144   5.542   5.462  15.698 -0.3208 -0.3357 -0.0842
12577TIP3   OH259145   0.629   1.146  16.050  0.2118  0.1265 -0.1975
12577TIP3    H159146   0.718   1.115  16.031  0.7637  1.5144  0.0001
12577TIP3    H259147   0.633   1.177  16.141  0.0298  1.8470 -0.7474
12578TIP3   OH259148   5.969   3.685  13.483 -0.0875  0.2223  0.7874
12578TIP3    H159149   5.964   3.594  13.456 -0.7127  0.4627  0.0554
12578TIP3    H259150   6.020   3.728  13.415  2.2324  0.0160  2.2893
12579TIP3   OH259151   4.208   4.951   5.577  0.1432  0.2247 -0.2341
12579TIP3    H159152   4.173   4.868   5.610 -0.8565  0.9327  0.5268
12579TIP3    H259153   4.301   4.934   5.565  0.4287 -0.3056  2.2370
12580TIP3   OH259154   3.190   1.194   1.639  0.0971 -0.6439 -0.1090
12580TIP3    H159155   3.255   1.149   1.693 -0.3708 -1.1845  0.0163
12580TIP3    H259156   3.110   1.143   1.652 -0.1935 -0.3521 -0.7494
12581TIP3   OH259157   2.822   3.339  14.989 -0.2065  0.2291  0.1762
12581TIP3    H159158   2.730   3.364  14.980 -0.5573 -0.8557  0.5690
12581TIP3    H259159   2.857   3.342  14.900 -1.5556 -2.6922 -0.5939
12582TIP3   OH259160   2.211   3.327   2.076  0.5060 -0.0218  0.0599
12582TIP3    H159161   2.121   3.356   2.064 -0.9772 -3.7727  0.5255
12582TIP3    H259162   2.235   3.358   2.163 -1.2431 -0.8098  0.8751
12583TIP3   OH259163   5.492   0.613   0.634  0.6089  0.4869  0.4663
12583TIP3    H159164   5.455   0.665   0.706 -1.3327 -1.9632  1.3914
12583TIP3    H259165   5.481   0.668   0.557 -3.9906  0.5718  0.8995
12584TIP3   OH259166   4.707   5.810   1.500  0.3158  1.2861 -0.2709
12584TIP3    H159167   4.714   5.715   1.488 -1.5749  1.2081 -1.0155
12584TIP3    H259168   4.780   5.831   1.559 -0.8672 -1.0607  2.2501
12585TIP3   OH259169   2.139   1.759   4.588 -0.1691  0.4111  0.1584
12585TIP3    H159170   2.214   1.768   4.529 -0.0040  1.4701  0.5258
12585TIP3    H259171   2.161   1.684   4.643 -0.1131 -0.2941 -0.7874
12586TIP3   OH259172   5.863   1.981  11.368 -0.4232  0.6117 -0.5313
12586TIP3    H159173   5.830   2.035  11.296  1.3480  2.3838 -0.0808
12586TIP3    H259174   5.812   2.009  11.444 -0.4438  0.6786 -0.5691
12587TIP3   OH259175   0.466   0.760   6.419  0.0792 -0.2081  0.4893
12587TIP3    H159176   0.555   0.738   6.447 -1.2133 -4.2692  2.1529
12587TIP3    H259177   0.450   0.847   6.455  2.3879 -0.6444  2.8436
12588TIP3   OH259178   4.931   0.019   2.730  0.2929 -0.3157  0.4339
12588TIP3    H159179   4.956   0.047   2.641 -0.4552 -2.6103 -0.5707
12588TIP3    H259180   5.011   0.029   2.781 -0.1230  4.5339  0.5560
12589TIP3   OH259181   5.897   4.186  11.583 -1.0064  0.1486  0.2727
12589TIP3    H159182   5.913   4.251  11.651  1.4976 -0.4456  0.3682
12589TIP3    H259183   5.910   4.102  11.627  3.8429 -0.2559 -1.3468
12590TIP3   OH259184   2.124   4.966   6.484 -0.1803  0.1850  0.0613
12590TIP3    H159185   2.215   4.986   6.507  0.5377 -0.3913 -2.0816
12590TIP3    H259186   2.075   4.990   6.562  1.9839 -1.1710  1.9881
12591TIP3   OH259187   4.229   3.146   2.090  0.2815  0.4247  0.3152
12591TIP3    H159188   4.207   3.222   2.037  2.2455  1.1533  0.4606
12591TIP3    H259189   4.189   3.072   2.044 -2.5024  1.5899  0.6936
12592TIP3   OH259190   2.419   0.202  12.616 -0.1945 -0.0379  0.8343
12592TIP3    H159191   2.373   0.204  12.533  0.9855 -2.0197  0.0452
12592TIP3    H259192   2.512   0.195  12.592  0.6258  3.5452  2.3515
12593TIP3   OH259193   5.139   4.733  15.567 -0.4558  0.6494 -0.2367
12593TIP3    H159194   5.054   4.739  15.612 -0.6647  0.5202 -0.6133
12593TIP3    H259195   5.202   4.766  15.631 -0.4156 -1.8255  1.1110
12594TIP3   OH259196   5.266   5.210  14.404  0.2066 -0.5750  0.2543
12594TIP3    H159197   5.347   5.186  14.360  1.2570  0.5095  1.5374
12594TIP3    H259198   5.250   5.139  14.466  0.5089 -0.4738  0.4451
12595TIP3   OH259199   6.622   5.493  12.978  0.0701  0.1645 -0.0525
12595TIP3    H159200   6.552   5.556  12.992  0.7200  0.9944 -0.4275
12595TIP3    H259201   6.603   5.454  12.893 -0.2294 -0.0031  0.0923
12596TIP3   OH259202   1.268   4.867   1.540  0.0326  0.1927  0.5914
12596TIP3    H159203   1.349   4.883   1.589  0.5140 -0.7676  0.1410
12596TIP3    H259204   1.261   4.772   1.537 -1.3118  0.2611  0.9152
12597TIP3   OH259205   1.797   2.510   4.965  0.3807 -0.0021 -0.2209
12597TIP3    H159206   1.710   2.517   5.004  0.5927 -3.4195  1.2308
12597TIP3    H259207   1.857   2.538   5.034  0.5463 -0.7603 -0.0529
12598TIP3   OH259208   4.183   6.591  14.642 -0.2407 -0.2086  0.8543
12598TIP3    H159209   4.119   6.600  14.713 -1.1053 -1.3400  0.2441
12598TIP3    H259210   4.265   6.569  14.687 -0.0423  2.0487  1.7060
12599TIP3   OH259211   4.568   2.759  12.845  0.6369 -0.1796  0.4514
12599TIP3    H159212   4.551   2.697  12.774  0.3609 -2.1863  2.1781
12599TIP3    H259213   4.659   2.785  12.833  0.5050 -0.2458 -0.8034
12600TIP3   OH259214   6.245   6.353   4.813 -0.6305  0.1054  0.0000
12600TIP3    H159215   6.204   6.330   4.729 -1.0905  0.6869  0.0568
12600TIP3    H259216   6.329   6.306   4.813 -0.8647 -0.3200 -0.5499
12601TIP3   OH259217   4.536   3.625   5.664 -0.4013 -0.5238 -0.0041
12601TIP3    H159218   4.599   3.686   5.703 -0.7802  0.8773 -1.4615
12601TIP3    H259219   4.492   3.585   5.739 -1.1704  2.1034  1.0848
12602TIP3   OH259220   1.763   2.880   3.107  0.8657  0.0698 -0.0673
12602TIP3    H159221   1.766   2.972   3.135  1.5467  0.6208 -1.8428
12602TIP3    H259222   1.823   2.835   3.167  0.8937  0.8644  0.5195
12603TIP3   OH259223   3.177   3.701  13.672  0.2587 -0.3841 -0.0270
12603TIP3    H159224   3.133   3.692  13.587  0.7090  1.3881 -0.4811
12603TIP3    H259225   3.119   3.757  13.724  0.6431 -0.3240  0.3423
12604TIP3   OH259226   1.672   5.971  15.015  0.1598 -0.6001  0.3321
12604TIP3    H159227   1.750   6.027  15.009 -1.0272  1.3544  1.7044
12604TIP3    H259228   1.617   5.998  14.942 -0.3987  0.0476  0.9736
12605TIP3   OH259229   2.018   6.198  13.691 -0.4635  0.3119 -0.2383
12605TIP3    H159230   2.009   6.255  13.614  1.5255 -1.6302 -2.0789
12605TIP3    H259231   2.112   6.180  13.696 -0.6668 -0.3585  2.1448
12606TIP3   OH259232   1.914   4.517   5.656  0.6266 -0.4506  0.6259
12606TIP3    H159233   1.893   4.469   5.737 -0.8919 -0.5780  0.1691
12606TIP3    H259234   1.883   4.460   5.586 -2.1231  1.5662  0.0797
12607TIP3   OH259235   6.166   6.077   4.564  0.2940 -0.2259 -0.0262
12607TIP3    H159236   6.236   6.019   4.534 -0.1879 -1.9493  1.9893
12607TIP3    H259237   6.087   6.024   4.559 -0.4826  0.8720  0.1705
12608TIP3   OH259238   4.406   0.819   4.785 -0.4754  0.4910 -0.7589
12608TIP3    H159239   4.453   0.896   4.755  0.0766 -0.0258 -1.2522
12608TIP3    H259240   4.358   0.788   4.709 -0.4771  0.1971 -0.6429
12609TIP3   OH259241   1.536   4.123  12.964  0.0539 -0.1170  0.2946
12609TIP3    H159242   1.478   4.079  13.026  0.8208 -0.4047  0.8207
12609TIP3    H259243   1.487   4.200  12.935 -0.5103 -0.2540  0.8751
12610TIP3   OH259244   2.747   1.302   0.660 -0.0595  0.5068 -0.1319
12610TIP3    H159245   2.785   1.371   0.714  0.5854 -0.5127  0.7604
12610TIP3    H259246   2.778   1.320   0.572  0.8079  0.8720  0.2358
12611TIP3   OH259247   1.980   4.377   0.479  0.2288  0.3922  0.0178
12611TIP3    H159248   1.892   4.370   0.517  0.0970  1.1670 -0.1228
12611TIP3    H259249   1.982   4.313   0.409  0.1472 -0.3894  0.7163
12612TIP3   OH259250   1.444   6.304   4.145 -0.2103 -0.3709 -0.7170
12612TIP3    H159251   1.430   6.217   4.183 -0.3103  0.0310  0.1785
12612TIP3    H259252   1.358   6.344   4.145 -0.0022  0.0876 -0.2192
12613TIP3   OH259253   3.747   3.918   0.507  0.2676  0.0878  0.2549
12613TIP3    H159254   3.795   3.993   0.542  0.8903  0.0060 -0.3930
12613TIP3    H259255   3.733   3.861   0.582  0.0683  0.7073  0.6943
12614TIP3   OH259256   4.111   3.425   5.124 -0.5759 -0.1859 -0.5071
12614TIP3    H159257   4.080   3.408   5.213 -2.7951 -1.1794 -1.3896
12614TIP3    H259258   4.170   3.500   5.133 -0.0138 -0.8184  1.9020
12615TIP3   OH259259   2.704   1.224  13.109 -0.6149 -0.1872 -0.2946
12615TIP3    H159260   2.746   1.142  13.083 -0.0864  0.6407 -2.1811
12615TIP3    H259261   2.775   1.288  13.109 -1.4411  0.7480 -1.1682
12616TIP3   OH259262   4.765   4.987   2.733 -0.5630 -0.6167  0.4836
12616TIP3    H159263   4.696   4.932   2.768 -0.4906 -1.1999 -0.2490
12616TIP3    H259264   4.844   4.932   2.737 -0.5332 -0.6572 -0.4526
12617TIP3   OH259265   4.416   5.145   5.700 -0.1671 -0.4072 -0.1467
12617TIP3    H159266   4.444   5.084   5.632 -1.8687 -2.6535  1.0524
12617TIP3    H259267   4.358   5.094   5.757  0.5728  1.5644  2.5898
12618TIP3   OH259268   1.905   4.222   1.337 -0.4071  0.1249  0.2293
12618TIP3    H159269   1.953   4.301   1.311  0.5317 -0.8478 -1.1447
12618TIP3    H259270   1.902   4.227   1.432  2.0453  0.4918  0.3583
12619TIP3   OH259271   2.932   4.654  16.203 -0.7050 -0.7138  0.1417
12619TIP3    H159272   2.846   4.649  16.161 -1.7103  1.2610  1.7641
12619TIP3    H259273   2.962   4.744  16.185  0.9410 -1.3035 -0.2123
12620TIP3   OH259274   2.144   4.560   3.782  0.3359 -0.1567  0.1056
12620TIP3    H159275   2.123   4.584   3.872 -0.4927 -0.1836 -0.0696
12620TIP3    H259276   2.218   4.501   3.790  2.0367  1.9051  0.5957
12621TIP3   OH259277   0.576   5.327  15.703 -0.0543 -0.4556 -0.0085
12621TIP3    H159278   0.577   5.243  15.658  0.3421  0.2474 -1.3455
12621TIP3    H259279   0.630   5.312  15.781 -0.0466 -1.4517 -0.1900
12622TIP3   OH259280   0.650   0.444  12.746  0.0284 -0.1257 -0.3503
12622TIP3    H159281   0.590   0.433  12.671 -1.0010 -0.9843  0.5692
12622TIP3    H259282   0.692   0.359  12.756 -1.1527 -0.5735  1.1152
12623TIP3   OH259283   1.596   0.688  12.827 -0.3865  0.2289  0.1272
12623TIP3    H159284   1.528   0.630  12.861 -0.0916 -0.3824 -0.3098
12623TIP3    H259285   1.677   0.657  12.867 -0.7251  3.1745  3.5433
12624TIP3   OH259286   0.867   5.160   0.113  0.0385 -0.3827 -0.4558
12624TIP3    H159287   0.813   5.082   0.126  0.5564 -0.6872 -0.0834
12624TIP3    H259288   0.916   5.142   0.033 -0.2689 -0.1920 -0.6855
12625TIP3   OH259289   6.154   5.488   3.287 -0.4765  0.0188  0.0398
12625TIP3    H159290   6.122   5.568   3.245  1.5944  1.2660  0.6604
12625TIP3    H259291   6.075   5.441   3.313 -1.7813  0.8674 -2.1277
12626TIP3   OH259292   0.516   3.599  12.794 -0.0140 -0.7915  0.3307
12626TIP3    H159293   0.589   3.653  12.765 -1.5348 -0.4708 -3.5792
12626TIP3    H259294   0.545   3.509  12.779  0.9012 -0.9339  2.5922
12627TIP3   OH259295   5.549   3.227   4.991 -0.4593 -0.0697 -0.2811
12627TIP3    H159296   5.507   3.271   5.065  1.6485  0.9317  0.4072
12627TIP3    H259297   5.477   3.196   4.937 -2.0914 -0.4900  1.9808
12628TIP3   OH259298   6.465   5.515   1.227  0.1758 -0.2787  0.0568
12628TIP3    H159299   6.472   5.455   1.152 -1.5749  0.0070 -0.3960
12628TIP3    H259300   6.427   5.461   1.296 -0.0695 -0.0516  0.0990
12629TIP3   OH259301   6.604   4.089   0.540 -0.3802  0.2379  0.4667
12629TIP3    H159302   6.514   4.106   0.566 -0.1224  1.4957  0.5954
12629TIP3    H259303   6.637   4.174   0.511  0.8157 -0.1737  0.5772
12630TIP3   OH259304   2.671   0.813  14.260 -0.0914 -0.3050 -0.0522
12630TIP3    H159305   2.647   0.870  14.333  1.8461  1.6628 -0.8530
12630TIP3    H259306   2.752   0.771  14.288  0.8533  0.7221 -1.1456
12631TIP3   OH259307   2.334   2.498   0.122 -0.3014  0.2996 -0.6039
12631TIP3    H159308   2.359   2.504   0.215 -0.6548  2.0294 -0.5798
12631TIP3    H259309   2.238   2.495   0.123 -0.2900 -0.2657 -0.9034
12632TIP3   OH259310   5.043   3.887   2.792 -0.2092 -0.1316 -0.3274
12632TIP3    H159311   5.019   3.963   2.845 -0.4909  0.1033 -0.7936
12632TIP3    H259312   5.124   3.855   2.832  1.1378  1.7123 -1.4450
12633TIP3   OH259313   5.917   0.788  15.973 -0.1503  0.3208 -0.3479
12633TIP3    H159314   5.942   0.792  15.881  1.1376 -0.3712 -0.0517
12633TIP3    H259315   5.908   0.880  15.999  0.9390  0.5731 -0.7946
12634TIP3   OH259316   1.239   2.023   3.396  0.5164 -0.3342  0.0478
12634TIP3    H159317   1.248   1.938   3.439 -0.3677 -0.3931  0.1387
12634TIP3    H259318   1.158   2.016   3.346  2.0432 -0.6940 -2.6130
12635TIP3   OH259319   1.879   6.750   3.277  0.8255  0.5205  0.8314
12635TIP3    H159320   1.831   6.805   3.214  0.9734  0.1115  0.3479
12635TIP3    H259321   1.822   6.746   3.354 -0.0848 -0.2067  0.1532
12636TIP3   OH259322   3.110   5.698   1.826 -0.4332  0.3142  0.0185
12636TIP3    H159323   3.091   5.611   1.789  0.2788 -0.0345  0.4561
12636TIP3    H259324   3.055   5.703   1.904  0.9926 -0.5865  1.1350
12637TIP3   OH259325   1.605   3.154  13.084  0.0263 -0.2047 -0.6174
12637TIP3    H159326   1.554   3.232  13.060 -0.9449 -0.7089 -0.2549
12637TIP3    H259327   1.617   3.107  13.002  1.3922  0.7536 -0.9944
12638TIP3   OH259328   1.128   0.642  16.731 -0.5426  0.0999  0.3315
12638TIP3    H159329   1.151   0.575  16.666 -0.5710 -0.4602  0.8837
12638TIP3    H259330   1.161   0.723  16.694 -0.5537 -0.2099 -0.3833
12639TIP3   OH259331   1.261   3.854  16.118  0.4032  0.2940  0.0853
12639TIP3    H159332   1.269   3.925  16.181  1.4760  0.7134 -0.5037
12639TIP3    H259333   1.332   3.793  16.140  1.5011  0.9875 -1.3561
12640TIP3   OH259334   6.351   4.166   0.580 -0.2705 -0.2107  0.5170
12640TIP3    H159335   6.305   4.186   0.499 -0.6067 -1.8763  0.2680
12640TIP3    H259336   6.288   4.116   0.632 -0.1944  1.1229  1.9887
12641TIP3   OH259337   1.041   1.965  14.994 -0.0887 -0.1035 -0.4410
12641TIP3    H159338   1.072   2.055  14.983  1.8528 -0.6925 -0.0363
12641TIP3    H259339   1.053   1.946  15.087 -0.2049 -0.8896 -0.5804
12642TIP3   OH259340   0.747   4.378   1.260  0.1550  0.2761 -0.0701
12642TIP3    H159341   0.826   4.415   1.221  0.3580 -0.3943 -0.2906
12642TIP3    H259342   0.769   4.366   1.352  0.1505  0.5212 -0.0354
12643TIP3   OH259343   4.640   5.224  12.822  0.1722  0.0971  0.4522
12643TIP3    H159344   4.729   5.238  12.853 -0.1153 -0.3393  1.5285
12643TIP3    H259345   4.588   5.289  12.870 -0.3086 -0.6979  1.0411
12644TIP3   OH259346   2.298   2.525  11.859  0.0240 -0.3349 -0.1964
12644TIP3    H159347   2.355   2.553  11.931 -0.7162 -2.1188  1.1313
12644TIP3    H259348   2.314   2.590  11.790  1.1284  1.1438  1.3661
12645TIP3   OH259349   2.093   4.705   1.613  0.3803  0.2102  0.1674
12645TIP3    H159350   2.054   4.640   1.672  0.2757  1.2520  1.2935
12645TIP3    H259351   2.052   4.787   1.639  2.2230  1.1105  0.3629
12646TIP3   OH259352   2.127   3.085  11.042 -0.2537  0.0100  0.4042
12646TIP3    H159353   2.176   3.092  10.960 -0.3316  0.4405  0.3881
12646TIP3    H259354   2.054   3.147  11.031 -0.4469 -0.1687  0.6701
12647TIP3   OH259355   2.518   4.365   5.447  0.6266 -0.1605 -0.3080
12647TIP3    H159356   2.576   4.428   5.405  0.4433 -0.4645 -1.0329
12647TIP3    H259357   2.450   4.419   5.487  0.7546  0.1327 -0.4765
12648TIP3   OH259358   2.582   3.836  12.667  0.5747 -0.2662 -0.2324
12648TIP3    H159359   2.658   3.782  12.691  0.2458 -0.0975  1.2507
12648TIP3    H259360   2.506   3.783  12.691  0.2377  0.2522 -0.1394
12649TIP3   OH259361   3.321   1.188   0.013  0.1928 -0.2002  0.4514
12649TIP3    H159362   3.359   1.193  -0.075 -0.8811 -0.1535 -0.0337
12649TIP3    H259363   3.293   1.097   0.021 -0.9465  0.1127  0.1925
12650TIP3   OH259364   6.165   3.379  11.428 -0.0358  0.9630 -0.2543
12650TIP3    H159365   6.087   3.330  11.456  0.6387  0.3873  0.6623
12650TIP3    H259366   6.222   3.378  11.505 -0.4368  4.1717  0.2263
12651TIP3   OH259367   0.091   0.827  10.841  0.2364  0.3346  0.1815
12651TIP3    H159368   0.045   0.883  10.778 -0.2604  1.2260  1.2824
12651TIP3    H259369   0.156   0.885  10.881  2.1907 -0.8311 -1.1451
12652TIP3   OH259370   6.033   3.738   2.078  0.3582 -0.2227  0.0900
12652TIP3    H159371   6.112   3.706   2.036  1.4185 -0.4231  2.0872
12652TIP3    H259372   6.037   3.833   2.068  0.1338 -0.3174 -0.9761
12653TIP3   OH259373   4.605   2.755   0.598 -0.1150 -0.2757  0.1514
12653TIP3    H159374   4.613   2.787   0.688 -1.1559 -0.2397  0.2497
12653TIP3    H259375   4.539   2.685   0.604 -0.9939  0.4530 -0.7507
12654TIP3   OH259376   5.803   3.362  15.322 -0.4181 -0.3532  0.2376
12654TIP3    H159377   5.878   3.406  15.361 -0.3382  0.4863 -0.8176
12654TIP3    H259378   5.767   3.308  15.393  2.1403 -2.0999  0.3234
12655TIP3   OH259379   1.573   6.353  16.308  0.4267 -0.4248 -0.1105
12655TIP3    H159380   1.615   6.341  16.393 -0.1531 -0.4205  0.1863
12655TIP3    H259381   1.492   6.402  16.328  0.6229  0.1804 -0.7510
12656TIP3   OH259382   6.459   1.273   1.860  0.7883  0.1357  0.9107
12656TIP3    H159383   6.416   1.338   1.805 -0.5108 -1.0880  0.4379
12656TIP3    H259384   6.515   1.224   1.800 -1.9612 -2.3737  0.1780
12657TIP3   OH259385   0.487   0.377  15.696  0.6758 -0.0829 -0.3936
12657TIP3    H159386   0.462   0.469  15.689 -0.5021 -0.4159 -0.9732
12657TIP3    H259387   0.430   0.342  15.764  1.5449 -0.2557  0.2592
12658TIP3   OH259388   4.429   2.114   1.921 -0.3541  0.1226  0.3595
12658TIP3    H159389   4.422   2.020   1.939  0.3901  0.0737  0.4288
12658TIP3    H259390   4.390   2.124   1.834  2.4619 -0.8164 -1.1553
12659TIP3   OH259391   4.322   0.118   0.766 -0.0988 -0.3822 -0.4462
12659TIP3    H159392   4.334   0.050   0.832  2.6272  1.6898  1.4425
12659TIP3    H259393   4.254   0.175   0.803  0.8422  0.3215  0.2719
12660TIP3   OH259394   3.524   5.227   0.112 -0.3914  0.7441  0.1522
12660TIP3    H159395   3.438   5.270   0.119  0.1648  2.1376 -1.0239
12660TIP3    H259396   3.522   5.160   0.180 -2.5077  0.5623 -0.0007
12661TIP3   OH259397   6.260   6.584  12.566 -0.2152  0.5022 -0.3150
12661TIP3    H159398   6.176   6.579  12.521 -0.5401  0.3893  0.2915
12661TIP3    H259399   6.277   6.495  12.596 -0.5689  0.7727  0.7673
12662TIP3   OH259400   3.377   2.100   1.851 -0.0664 -0.2237  0.4108
12662TIP3    H159401   3.396   2.185   1.809 -1.9596  0.3904  0.7122
12662TIP3    H259402   3.318   2.121   1.922  1.2854 -1.5611  2.0079
12663TIP3   OH259403   1.747   5.874   4.191 -0.2956 -0.4959 -0.1592
12663TIP3    H159404   1.828   5.849   4.147 -1.2712 -1.3701 -1.5186
12663TIP3    H259405   1.720   5.796   4.239 -0.0812 -0.0458  0.7115
12664TIP3   OH259406   6.160   4.040   2.540 -0.2019 -0.1542 -0.1115
12664TIP3    H159407   6.253   4.038   2.562  0.1544 -0.1100 -1.5443
12664TIP3    H259408   6.118   3.991   2.611  0.9464 -0.5363  0.3315
12665TIP3   OH259409   1.693   3.950  14.188  0.0296 -0.4481 -0.0611
12665TIP3    H159410   1.711   3.856  14.199 -2.7793 -0.8133  2.9679
12665TIP3    H259411   1.758   3.994  14.242  1.1917 -0.5929 -1.2830
12666TIP3   OH259412   3.828   4.815   4.048 -0.7469  0.2707 -0.4822
12666TIP3    H159413   3.736   4.819   4.022 -0.4701  0.7353 -1.4583
12666TIP3    H259414   3.862   4.902   4.030  0.4576 -0.5226 -2.5389
12667TIP3   OH259415   1.784   1.904   3.222 -0.6093 -0.0933  0.0967
12667TIP3    H159416   1.782   1.962   3.297 -1.1103  0.7703 -0.5674
12667TIP3    H259417   1.828   1.954   3.153 -3.5035  0.6730 -1.3632
12668TIP3   OH259418   3.386   0.996   0.819 -0.1262 -0.2344 -0.2311
12668TIP3    H159419   3.349   1.027   0.736 -1.1448  0.3960  0.4314
12668TIP3    H259420   3.461   1.053   0.835 -1.5974  1.5583  0.6473
12669TIP3   OH259421   2.460   3.990  16.011  0.3759  0.6844  0.0588
12669TIP3    H159422   2.553   4.011  16.018  0.2742  0.6295  1.9533
12669TIP3    H259423   2.436   3.955  16.097 -1.6205  1.6070 -0.0672
12670TIP3   OH259424   4.487   0.941  15.119 -0.7746 -0.3174  0.1627
12670TIP3    H159425   4.505   1.034  15.133 -2.0425  0.1797 -1.1629
12670TIP3    H259426   4.548   0.915  15.051 -0.3821 -0.4755  0.5728
12671TIP3   OH259427   2.982   5.171  12.903 -0.2906  0.8987 -0.0911
12671TIP3    H159428   2.994   5.212  12.817  1.3974 -0.3511 -0.5052
12671TIP3    H259429   3.070   5.143  12.929 -1.1761 -1.3347  0.7144
12672TIP3   OH259430   6.716   1.049  14.699 -0.3704 -0.1191  0.0682
12672TIP3    H159431   6.731   1.128  14.751  0.3745  0.2876 -0.7452
12672TIP3    H259432   6.622   1.034  14.706 -0.8117  1.7632 -1.0570
12673TIP3   OH259433   6.700   1.176   6.393  0.3989  0.2343  0.1860
12673TIP3    H159434   6.796   1.175   6.395  0.4001  0.5022  0.3027
12673TIP3    H259435   6.678   1.256   6.346  0.2413 -0.2962 -0.6710
12674TIP3   OH259436   1.799   1.330  11.491  0.3272  0.4290  0.1434
12674TIP3    H159437   1.740   1.362  11.423 -1.6064 -0.5362  1.2834
12674TIP3    H259438   1.814   1.405  11.548 -0.4596  0.4847  0.2855
12675TIP3   OH259439   4.987   4.234   5.835 -0.1820  0.1837  0.4190
12675TIP3    H159440   4.927   4.207   5.904  1.0416 -0.1205  1.4056
12675TIP3    H259441   5.072   4.239   5.878  0.5261  0.5139 -0.9581
12676TIP3   OH259442   1.435   0.781  14.502  0.5229  0.4005 -0.1933
12676TIP3    H159443   1.353   0.738  14.528  1.3537 -1.4184 -0.4266
12676TIP3    H259444   1.489   0.779  14.580  1.2836 -0.8216 -0.7103
12677TIP3   OH259445   2.453   4.565   0.095 -0.0573  0.1473 -0.1563
12677TIP3    H159446   2.391   4.562   0.168  0.3890 -0.6752  0.2061
12677TIP3    H259447   2.535   4.593   0.135 -0.0562  0.6994 -0.5346
12678TIP3   OH259448   5.630   4.963  13.536 -0.4194 -0.5885  0.7276
12678TIP3    H159449   5.693   4.940  13.467  0.3972  0.1950  1.1770
12678TIP3    H259450   5.634   5.059  13.540 -1.1486 -0.5753  1.2313
12679TIP3   OH259451   5.749   0.504   4.497  0.7077  0.0149 -0.5606
12679TIP3    H159452   5.716   0.577   4.445  0.3457  0.7040  0.5996
12679TIP3    H259453   5.789   0.545   4.574 -1.3360 -1.0350  1.1666
12680TIP3   OH259454   1.848   5.952  12.157  0.2037  0.3469 -0.1864
12680TIP3    H159455   1.913   5.898  12.203 -1.4635 -1.9383 -0.3506
12680TIP3    H259456   1.859   5.930  12.065 -0.4016  0.3727 -0.2698
12681TIP3   OH259457   2.744   5.958   2.124 -0.0079  0.1432 -0.0749
12681TIP3    H159458   2.717   5.887   2.181  0.0646 -0.4830 -0.8068
12681TIP3    H259459   2.667   6.014   2.115 -0.2730 -0.2214 -0.0605
12682TIP3   OH259460   6.256   1.923  15.235 -0.2601 -0.1608  0.6183
12682TIP3    H159461   6.222   2.008  15.208 -0.2039 -0.7690 -1.4958
12682TIP3    H259462   6.183   1.883  15.284 -1.2224  0.1087 -0.5359
12683TIP3   OH259463   3.918   2.062   5.598  0.6232 -0.3616  0.0658
12683TIP3    H159464   3.947   1.992   5.658 -0.3735 -0.8954 -0.0651
12683TIP3    H259465   3.933   2.026   5.511  1.2517  0.0792 -0.0169
12684TIP3   OH259466   2.585   3.597   0.290 -0.1248 -0.3471  0.2951
12684TIP3    H159467   2.676   3.592   0.262 -0.1497  1.0079 -0.0951
12684TIP3    H259468   2.556   3.506   0.294  0.6034 -0.7049 -1.7358
12685TIP3   OH259469   3.531   4.459  16.003 -0.7674 -0.9037  0.3247
12685TIP3    H159470   3.436   4.457  15.994 -0.9347 -0.3030  1.6905
12685TIP3    H259471   3.562   4.503  15.924 -1.7473  0.1558  0.5151
12686TIP3   OH259472   2.978   5.679  17.215 -0.3721  0.2023 -0.2565
12686TIP3    H159473   2.913   5.624  17.172  0.8636  0.2160 -2.2759
12686TIP3    H259474   2.934   5.763  17.228 -0.5838  0.4914 -2.3844
12687TIP3   OH259475   1.738   4.369   0.601  0.5955 -0.3619 -0.2693
12687TIP3    H159476   1.703   4.335   0.519  0.6278 -3.2122  0.7670
12687TIP3    H259477   1.665   4.418   0.640 -0.3600 -1.3674 -0.7426
12688TIP3   OH259478   2.126   4.681   5.579  0.6689 -0.0267 -0.3108
12688TIP3    H159479   2.052   4.654   5.633  0.8201  0.9164  0.3947
12688TIP3    H259480   2.183   4.605   5.576  0.1006 -0.4678 -0.1119
12689TIP3   OH259481   4.668   4.102   1.894 -0.3669 -0.5466 -0.0092
12689TIP3    H159482   4.642   4.193   1.879  1.3746 -0.1249 -0.6486
12689TIP3    H259483   4.585   4.053   1.892 -1.3110  0.9790  0.1365
12690TIP3   OH259484   3.840   3.532   5.075  0.4860  0.0151 -0.3921
12690TIP3    H159485   3.932   3.505   5.077  1.4865  2.9837 -1.0775
12690TIP3    H259486   3.841   3.616   5.030 -2.4314  0.7118  0.6459
12691TIP3   OH259487   2.851   1.533   2.771 -0.6302  0.2995 -0.2858
12691TIP3    H159488   2.798   1.473   2.822 -0.1195  0.3737  0.3530
12691TIP3    H259489   2.927   1.481   2.744 -0.1326  0.6744  0.3624
12692TIP3   OH259490   1.776   0.803   0.834  0.2536 -0.5249  0.3523
12692TIP3    H159491   1.832   0.839   0.766  0.0168 -0.4006  0.2195
12692TIP3    H259492   1.788   0.862   0.909  0.8980 -0.9502  0.5898
12693TIP3   OH259493   4.617   6.183   4.071  0.0162  0.1818  0.2981
12693TIP3    H159494   4.576   6.143   3.995  0.0491 -2.6532  1.6355
12693TIP3    H259495   4.655   6.265   4.038  1.1933 -1.5249 -3.0296
12694TIP3   OH259496   4.102   1.932  15.988  0.2923 -0.4498  0.0627
12694TIP3    H159497   4.042   1.909  16.060  2.2771 -0.6922  1.7528
12694TIP3    H259498   4.085   1.866  15.921 -0.9670 -0.8076  0.6990
12695TIP3   OH259499   5.053   0.652   1.024 -0.0102  0.2034 -0.0546
12695TIP3    H159500   5.036   0.744   1.043 -4.8193 -0.3822 -0.4676
12695TIP3    H259501   5.046   0.608   1.108 -0.0742 -0.0670 -0.1995
12696TIP3   OH259502   6.188   0.574  14.927  0.4625 -0.1965 -0.2956
12696TIP3    H159503   6.275   0.612  14.933  0.9652 -0.7059 -3.0367
12696TIP3    H259504   6.179   0.550  14.835 -1.8217 -1.9681  0.3088
12697TIP3   OH259505   0.234   1.726  14.279 -0.2115 -0.3786 -0.7013
12697TIP3    H159506   0.300   1.670  14.321 -0.2316  0.1485  0.0438
12697TIP3    H259507   0.153   1.675  14.283 -0.2714 -0.2256  0.1445
12698TIP3   OH259508   6.241   0.317  15.237 -0.4967 -0.4830  0.1081
12698TIP3    H159509   6.234   0.250  15.305 -0.6861  1.9384  2.6558
12698TIP3    H259510   6.304   0.280  15.174 -0.5920 -3.0012  1.3445
12699TIP3   OH259511   1.018   2.968  16.934  0.2506  0.4945  0.3153
12699TIP3    H159512   1.097   2.999  16.978  1.0714 -0.8767 -0.1277
12699TIP3    H259513   0.971   2.920  17.002 -0.0899  1.0942  0.5128
12700TIP3   OH259514   2.158   1.420   5.795 -0.0607 -0.4539 -0.0876
12700TIP3    H159515   2.172   1.388   5.884 -0.4856  2.2534  1.0580
12700TIP3    H259516   2.245   1.447   5.766 -0.1802  0.2701  0.2096
12701TIP3   OH259517   4.495   0.318  16.258 -0.3573  0.3412 -0.2095
12701TIP3    H159518   4.416   0.372  16.269 -1.2862 -1.2819  1.7830
12701TIP3    H259519   4.520   0.294  16.347  0.6787 -1.5628 -0.9539
12702TIP3   OH259520   3.703   2.285   1.841 -0.1769  0.5079  0.1349
12702TIP3    H159521   3.743   2.330   1.915 -1.0458  0.7787  0.4567
12702TIP3    H259522   3.611   2.312   1.844 -1.0643 -2.2583  1.1256
12703TIP3   OH259523   4.596   5.157   5.244  0.1449  0.2432 -0.0211
12703TIP3    H159524   4.633   5.077   5.281 -0.0014 -0.3089 -1.0346
12703TIP3    H259525   4.644   5.228   5.287  0.4040 -0.3827  0.7534
12704TIP3   OH259526   6.697   3.675  16.856 -0.6479 -0.0621 -0.4417
12704TIP3    H159527   6.618   3.638  16.817 -1.1647  0.6256 -0.0778
12704TIP3    H259528   6.769   3.625  16.818 -1.1921  0.0217 -1.6025
12705TIP3   OH259529   1.756   4.673  12.976  0.0360  0.4417  0.2987
12705TIP3    H159530   1.777   4.647  13.065  1.7947  2.5477  0.6072
12705TIP3    H259531   1.764   4.592  12.924 -0.1438 -0.6289  1.8837
12706TIP3   OH259532   4.676   1.561  16.309 -0.4598 -0.0749  0.8169
12706TIP3    H159533   4.749   1.574  16.370 -0.0212  0.5338  0.1726
12706TIP3    H259534   4.673   1.642  16.258 -0.4170 -0.8223 -0.4018
12707TIP3   OH259535   3.736   6.571  11.429 -0.6467  0.1143  0.2988
12707TIP3    H159536   3.761   6.618  11.350 -1.1314  1.7704  1.0763
12707TIP3    H259537   3.817   6.563  11.479 -0.3998 -0.6530 -0.2273
12708TIP3   OH259538   2.447   1.544   6.033 -0.2666 -0.3125 -0.4015
12708TIP3    H159539   2.393   1.612   5.992 -0.7017  1.1812  2.4197
12708TIP3    H259540   2.390   1.506   6.100  1.9384  1.1450  2.5118
12709TIP3   OH259541   6.641   0.213   1.203  0.2095 -0.2893 -0.0102
12709TIP3    H159542   6.610   0.165   1.126 -1.5495 -0.2295  0.6151
12709TIP3    H259543   6.599   0.299   1.195  1.9916  0.5925 -0.2441
12710TIP3   OH259544   6.524   4.032   5.438 -0.1377  0.1651  0.0609
12710TIP3    H159545   6.541   3.963   5.374 -3.4105 -0.5598 -0.2014
12710TIP3    H259546   6.611   4.058   5.469  1.4997 -0.5268 -3.4861
12711TIP3   OH259547   3.182   2.803   3.577 -0.1062 -0.4728 -0.2188
12711TIP3    H159548   3.196   2.738   3.645  0.7192 -1.1183 -0.9737
12711TIP3    H259549   3.102   2.848   3.603 -0.4004 -1.4252  0.6078
12712TIP3   OH259550   2.517   5.720  15.114 -0.4191 -0.1048 -0.2333
12712TIP3    H159551   2.523   5.697  15.021  0.6599  0.5119 -0.3325
12712TIP3    H259552   2.597   5.770  15.131 -0.2258 -0.8698  1.2133
12713TIP3   OH259553   4.866   5.424  13.206  0.4859 -0.2850  0.0532
12713TIP3    H159554   4.926   5.357  13.173  0.6199  0.2802 -0.8898
12713TIP3    H259555   4.799   5.375  13.253 -0.8450 -1.3678 -2.7332
12714TIP3   OH259556   5.825   2.423   5.838  0.4592  0.4710  0.8293
12714TIP3    H159557   5.891   2.377   5.889  2.1653  1.1457 -0.6725
12714TIP3    H259558   5.741   2.393   5.874  1.5486 -1.4036  1.9184
12715TIP3   OH259559   4.485   6.267   1.847  0.7136  0.5386  0.1674
12715TIP3    H159560   4.459   6.230   1.763  1.2481 -1.3404  0.7740
12715TIP3    H259561   4.570   6.307   1.830  0.7256  0.3474 -0.2388
12716TIP3   OH259562   2.572   1.403  11.871  0.4271  0.1657 -0.1422
12716TIP3    H159563   2.573   1.353  11.789 -1.7213 -0.2629  0.0418
12716TIP3    H259564   2.524   1.483  11.849  1.3916  0.8749  0.2812
12717TIP3   OH259565   1.413   2.818  11.596 -0.2347  0.1405  0.4227
12717TIP3    H159566   1.505   2.800  11.576 -0.2526  0.1409  0.3391
12717TIP3    H259567   1.408   2.814  11.692  0.2124  1.8982  0.5512
12718TIP3   OH259568   3.598   1.047   5.414 -0.0753  0.3071  0.0083
12718TIP3    H159569   3.665   1.095   5.365  0.3193 -0.6158 -0.3904
12718TIP3    H259570   3.622   1.059   5.506  1.3459 -0.9449 -0.1515
12719TIP3   OH259571   6.400   6.137   2.983  0.4452  0.0333  0.3455
12719TIP3    H159572   6.439   6.055   2.952  2.0835  0.4059  1.2818
12719TIP3    H259573   6.370   6.116   3.072  0.7395  0.3893  0.5321
12720TIP3   OH259574   4.848   4.653  15.042  0.0637  0.0095  0.0396
12720TIP3    H159575   4.936   4.691  15.043  0.1226 -0.0536 -1.1981
12720TIP3    H259576   4.799   4.706  15.104 -0.0736  2.7279 -2.1901
12721TIP3   OH259577   6.754   0.260  16.592 -0.0989 -0.3123 -0.0325
12721TIP3    H159578   6.721   0.172  16.575  0.3333 -0.5773  0.4580
12721TIP3    H259579   6.847   0.247  16.613  0.5201  0.4727 -2.0402
12722TIP3   OH259580   4.434   6.439  15.257 -0.1304 -0.3157 -0.2985
12722TIP3    H159581   4.369   6.446  15.187 -0.6718 -0.1297  0.2131
12722TIP3    H259582   4.440   6.345  15.275 -0.8984 -0.2720  0.2324
12723TIP3   OH259583   2.729   2.248   0.590 -0.3419 -0.4533 -0.3775
12723TIP3    H159584   2.782   2.169   0.577 -0.0110 -0.2257 -0.4296
12723TIP3    H259585   2.643   2.227   0.553 -0.3999 -0.9517  0.0325
12724TIP3   OH259586   1.518   6.623   0.158  0.1655  0.1441 -0.7605
12724TIP3    H159587   1.449   6.678   0.123  1.0094  0.5534 -1.8416
12724TIP3    H259588   1.509   6.540   0.111 -0.6732 -0.4448  0.3744
12725TIP3   OH259589   5.236   6.340   4.740 -0.8282 -0.0000 -0.0041
12725TIP3    H159590   5.295   6.268   4.721  0.2943  1.2568 -1.6125
12725TIP3    H259591   5.287   6.400   4.794 -0.8879  0.6779 -0.6643
12726TIP3   OH259592   4.253   1.503  12.092 -0.3073 -0.4687  0.0556
12726TIP3    H159593   4.316   1.507  12.019  0.0608  2.6912  0.3728
12726TIP3    H259594   4.307   1.490  12.170 -0.2771 -0.2172  0.0801
12727TIP3   OH259595   6.397   4.280   5.528 -0.8453 -0.0837  0.1715
12727TIP3    H159596   6.450   4.347   5.573 -0.6994  1.0513 -1.5668
12727TIP3    H259597   6.459   4.209   5.510 -0.9334 -0.6015  1.8060
12728TIP3   OH259598   0.820   2.798   5.785  0.2983 -0.1708  0.0300
12728TIP3    H159599   0.824   2.809   5.880 -1.0429  0.1387  0.0696
12728TIP3    H259600   0.858   2.712   5.768 -0.4448 -0.6891  0.9535
12729TIP3   OH259601   1.017   6.026  14.783 -0.3253 -0.3757  0.0396
12729TIP3    H159602   1.027   5.931  14.784  0.1175 -0.3399 -0.3806
12729TIP3    H259603   0.941   6.043  14.838 -0.0490 -0.9305  0.5970
12730TIP3   OH259604   5.901   3.893  14.401 -0.4164 -0.5738  0.3170
12730TIP3    H159605   5.970   3.958  14.416 -3.3367  3.0907 -0.5901
12730TIP3    H259606   5.870   3.872  14.489  0.6489 -0.8944  0.6404
12731TIP3   OH259607   5.691   4.734   0.397 -0.2539 -0.6023  0.5233
12731TIP3    H159608   5.727   4.823   0.392  0.7782 -1.0626 -1.0180
12731TIP3    H259609   5.760   4.683   0.440 -0.5859 -0.7828  0.8471
12732TIP3   OH259610   2.594   2.940   5.481 -0.0937 -0.2237  0.2697
12732TIP3    H159611   2.600   2.899   5.395 -1.7268  0.5633 -0.2602
12732TIP3    H259612   2.501   2.933   5.505  0.2782 -0.1629  1.8349
12733TIP3   OH259613   4.863   2.117  15.052  0.6398 -0.2494  0.6026
12733TIP3    H159614   4.894   2.100  14.963  0.0137 -0.9274  0.5019
12733TIP3    H259615   4.811   2.198  15.044  0.1080 -0.6208  0.2298
12734TIP3   OH259616   0.767   2.322   4.316  0.4269 -0.1520 -0.3168
12734TIP3    H159617   0.730   2.238   4.344  0.0709  0.4130  0.9938
12734TIP3    H259618   0.859   2.303   4.296 -0.0454 -1.1588 -1.5886
12735TIP3   OH259619   0.427   2.308  15.022  0.2020  0.1849 -0.4315
12735TIP3    H159620   0.362   2.371  15.051  0.4973  0.5043 -0.4585
12735TIP3    H259621   0.397   2.280  14.935  0.3600  0.7049 -0.6605
12736TIP3   OH259622   5.619   4.186  12.640 -0.9853 -0.4336  0.5135
12736TIP3    H159623   5.596   4.206  12.549 -1.4307  0.5211  0.8216
12736TIP3    H259624   5.534   4.182  12.685 -0.6753  2.0774  1.4599
12737TIP3   OH259625   5.666   4.709  16.168 -0.0897  0.0207 -0.1654
12737TIP3    H159626   5.683   4.803  16.161 -0.7801  0.1257 -0.5560
12737TIP3    H259627   5.571   4.703  16.178 -0.1280 -0.6686 -0.8786
12738TIP3   OH259628   6.660   6.746  16.639  1.4443 -0.0684 -0.0507
12738TIP3    H159629   6.721   6.693  16.690  2.2004  1.2120  0.4206
12738TIP3    H259630   6.683   6.729  16.548  2.1099 -0.0513  0.1136
12739TIP3   OH259631   4.887   5.913   0.860 -0.3684  0.4847 -0.0081
12739TIP3    H159632   4.832   5.980   0.819 -0.5023  0.5343  0.2553
12739TIP3    H259633   4.853   5.830   0.825  0.4511  0.5948 -1.1338
12740TIP3   OH259634   2.748   3.591  12.642 -0.5434 -0.6176  0.2270
12740TIP3    H159635   2.819   3.656  12.644 -0.5344 -0.5698 -1.0427
12740TIP3    H259636   2.751   3.551  12.729  0.9237 -0.4799  0.2765
12741TIP3   OH259637   2.894   5.138   6.605  0.0217 -0.0898 -0.5000
12741TIP3    H159638   2.820   5.125   6.665  0.8919  1.4259  1.0031
12741TIP3    H259639   2.942   5.212   6.642  2.3223 -1.0142 -1.3971
12742TIP3   OH259640   4.319   5.808   2.970 -0.8199 -0.6951  0.0230
12742TIP3    H159641   4.368   5.825   2.890 -0.1317 -2.4001  0.0501
12742TIP3    H259642   4.260   5.883   2.979  1.5834  1.3074 -0.1281
12743TIP3   OH259643   1.168   2.447  12.644 -0.0101  0.1710 -0.1082
12743TIP3    H159644   1.259   2.434  12.618  0.0830 -0.0023  0.2924
12743TIP3    H259645   1.126   2.486  12.568  0.5236  0.7638 -0.1050
12744TIP3   OH259646   1.730   3.821  11.680  0.4557  0.9599 -0.1588
12744TIP3    H159647   1.700   3.837  11.591  0.8404 -0.0776 -0.4944
12744TIP3    H259648   1.657   3.847  11.735 -0.6835 -0.5315 -0.9003
12745TIP3   OH259649   5.285   2.038   2.161  0.1512 -0.2251 -0.9921
12745TIP3    H159650   5.337   2.003   2.088 -0.2246  0.5793 -1.6669
12745TIP3    H259651   5.202   2.065   2.121  1.0547  3.1285 -0.9449
12746TIP3   OH259652   5.867   1.672  13.401 -0.0931 -0.0008  0.5607
12746TIP3    H159653   5.928   1.715  13.461  0.5424 -0.1188  0.0140
12746TIP3    H259654   5.787   1.724  13.407  0.7117  1.3996 -0.2196
12747TIP3   OH259655   4.432   1.092   3.895 -0.3527 -0.2978  0.4240
12747TIP3    H159656   4.469   1.174   3.928 -0.6268 -0.4240  1.0625
12747TIP3    H259657   4.429   1.104   3.800  0.4754  0.0685  0.4300
12748TIP3   OH259658   1.093   6.459  11.452  0.2360 -0.1207 -0.7346
12748TIP3    H159659   1.076   6.447  11.545 -1.2921  1.9789 -0.6655
12748TIP3    H259660   1.095   6.554  11.440 -0.0016 -0.3421 -2.9002
12749TIP3   OH259661   5.441   0.045   5.361 -0.0432 -0.5404  0.0259
12749TIP3    H159662   5.506   0.066   5.294  0.3629  0.8553  0.8341
12749TIP3    H259663   5.376   0.115   5.355 -0.7594 -1.1684  0.1707
12750TIP3   OH259664   0.332   1.021   4.548  0.8510  0.3079  0.0939
12750TIP3    H159665   0.323   1.053   4.637 -2.3038 -1.0221  0.3942
12750TIP3    H259666   0.254   1.053   4.503  1.2655 -0.8860 -1.5693
12751TIP3   OH259667   6.229   5.255  14.934  0.2342 -0.3731 -0.2248
12751TIP3    H159668   6.251   5.210  14.853  2.0455 -1.9942  1.0964
12751TIP3    H259669   6.296   5.228  14.997  0.5678  2.9898  1.1154
12752TIP3   OH259670   0.972   5.942   3.979  0.4296 -0.0331  0.0235
12752TIP3    H159671   1.027   6.013   3.948  1.1495 -0.5863  0.0059
12752TIP3    H259672   1.014   5.912   4.059  0.6566 -1.0308 -0.4515
12753TIP3   OH259673   3.706   3.201   4.469  0.6277  0.4369 -0.5056
12753TIP3    H159674   3.766   3.226   4.540 -1.7016  1.6813  1.1710
12753TIP3    H259675   3.664   3.283   4.445  1.8427  0.1842 -3.9501
12754TIP3   OH259676   0.560   0.139  16.733 -0.5588  0.1422  0.6152
12754TIP3    H159677   0.522   0.183  16.810  0.5532  0.1516  1.1672
12754TIP3    H259678   0.572   0.210  16.670 -1.2960  0.1662  0.4866
12755TIP3   OH259679   0.138   0.187  12.609 -0.5105  0.0538  0.1704
12755TIP3    H159680   0.222   0.171  12.567 -1.0585 -1.1837 -0.5271
12755TIP3    H259681   0.079   0.122  12.570 -1.7675  0.8252  0.7056
12756TIP3   OH259682   4.010   1.174   0.998  0.0210 -0.2827 -0.0584
12756TIP3    H159683   4.066   1.171   0.921 -1.3336  0.5311 -1.1251
12756TIP3    H259684   3.971   1.087   1.003  0.3428 -0.4287 -0.1134
12757TIP3   OH259685   6.681   4.287  15.150  0.4398 -0.0473 -0.3351
12757TIP3    H159686   6.695   4.303  15.056  0.7282  1.1030 -0.1060
12757TIP3    H259687   6.720   4.363  15.193  0.1887 -0.5063  0.7167
12758TIP3   OH259688   5.341   6.572  13.970  0.1108 -0.1278 -0.0750
12758TIP3    H159689   5.331   6.584  13.876 -0.2402 -1.5954 -0.2530
12758TIP3    H259690   5.259   6.606  14.007  0.0876  0.0943 -0.3271
12759TIP3   OH259691   3.368   1.074  13.751 -0.0167  0.6777 -0.1220
12759TIP3    H159692   3.459   1.052  13.769 -0.5245 -1.4719  0.0710
12759TIP3    H259693   3.367   1.096  13.658  0.4157 -1.1127 -0.5804
12760TIP3   OH259694   5.010   1.428  11.354 -0.0027  0.2536  0.3808
12760TIP3    H159695   5.072   1.407  11.283  0.4324 -0.2619  0.9068
12760TIP3    H259696   4.936   1.369  11.340 -0.6647  1.2613 -0.5928
12761TIP3   OH259697   1.908   4.998   6.209  0.2773 -0.1607 -0.1048
12761TIP3    H159698   1.882   5.065   6.273  0.7547 -0.7544  0.7386
12761TIP3    H259699   1.881   4.916   6.249 -1.7927 -0.4092 -1.8700
12762TIP3   OH259700   1.359   6.483  15.010 -0.4181  0.1176  0.0292
12762TIP3    H159701   1.381   6.390  15.019  0.5325  0.4942  2.4384
12762TIP3    H259702   1.288   6.496  15.074  0.4433  1.3237  0.7617
12763TIP3   OH259703   6.087   5.443   1.293 -0.1095  0.0393  0.7261
12763TIP3    H159704   6.129   5.386   1.357  1.2603 -0.2502 -0.3656
12763TIP3    H259705   6.019   5.388   1.254 -0.0949 -0.2059  1.0352
12764TIP3   OH259706   0.492   5.073  11.855  0.2756 -0.0393  0.0143
12764TIP3    H159707   0.456   4.986  11.869 -0.8023  0.7005  2.2493
12764TIP3    H259708   0.467   5.095  11.765 -1.8424 -0.9863  0.3054
12765TIP3   OH259709   4.166   2.418   1.083  0.2681  0.1085 -0.5200
12765TIP3    H159710   4.148   2.340   1.135  0.5159  0.3682 -0.0380
12765TIP3    H259711   4.206   2.479   1.145  0.1038  0.6060 -0.9019
12766TIP3   OH259712   5.894   2.626  14.798  0.0662  0.5618 -0.2323
12766TIP3    H159713   5.828   2.568  14.759  0.3741  0.5273 -0.7046
12766TIP3    H259714   5.844   2.680  14.859 -0.2125 -0.2539  0.2840
12767TIP3   OH259715   1.189   0.231   6.136  0.4018 -0.2873 -0.0174
12767TIP3    H159716   1.244   0.304   6.108  1.5138  0.2677  3.2460
12767TIP3    H259717   1.250   0.160   6.153 -0.1866 -0.5795  0.9396
12768TIP3   OH259718   4.429   4.638   4.216 -0.6745 -0.3139 -0.1946
12768TIP3    H159719   4.341   4.643   4.179 -0.6372  2.7042 -0.1367
12768TIP3    H259720   4.466   4.725   4.200  2.2955 -1.4864 -0.1447
12769TIP3   OH259721   2.841   0.225  15.733  0.0172  0.5358 -0.1913
12769TIP3    H159722   2.873   0.243  15.822  1.3147 -0.9351 -0.3241
12769TIP3    H259723   2.749   0.204  15.745  0.5962 -1.5983  1.1383
12770TIP3   OH259724   0.515   4.709  11.732  0.1854  0.0108  0.1886
12770TIP3    H159725   0.520   4.691  11.826 -1.4106  1.7931  0.6768
12770TIP3    H259726   0.436   4.664  11.703 -0.1377  0.6616  0.0363
12771TIP3   OH259727   2.764   1.470  13.454 -0.7056  0.1739 -0.0007
12771TIP3    H159728   2.744   1.475  13.547  0.6081 -1.0049  0.3821
12771TIP3    H259729   2.722   1.389  13.425 -0.5931  0.2172 -0.2886
12772TIP3   OH259730   0.569   5.635   4.697  0.6690  0.4223  0.1541
12772TIP3    H159731   0.617   5.605   4.774  0.0577  2.3259  1.3565
12772TIP3    H259732   0.483   5.593   4.705  0.8791 -0.0245  0.0660
12773TIP3   OH259733   1.682   5.652  14.308  0.5744 -0.5505  0.0290
12773TIP3    H159734   1.736   5.671  14.385  1.5470 -0.7778 -0.5741
12773TIP3    H259735   1.595   5.635  14.343  0.1205  2.7087  0.8453
12774TIP3   OH259736   3.081   3.304   1.573 -0.2890 -0.1500  0.1096
12774TIP3    H159737   3.001   3.323   1.523 -0.7530 -0.8622  0.5705
12774TIP3    H259738   3.148   3.359   1.532 -0.5253 -1.0938 -1.6421
12775TIP3   OH259739   0.636   1.681  16.091  0.7791  0.7710  0.3842
12775TIP3    H159740   0.563   1.734  16.125  0.8876  0.1761  1.5907
12775TIP3    H259741   0.593   1.610  16.042  0.5344  0.4768  1.0094
12776TIP3   OH259742   6.159   5.086   2.691 -0.3823 -0.4302  0.6783
12776TIP3    H159743   6.226   5.154   2.680  0.0647 -1.2439 -3.0089
12776TIP3    H259744   6.195   5.026   2.756  2.7639 -1.0177 -1.4079
12777TIP3   OH259745   3.982   1.365   5.236 -0.4933 -0.0409 -0.2129
12777TIP3    H159746   4.074   1.340   5.238 -0.0595  1.3589 -1.3469
12777TIP3    H259747   3.977   1.445   5.288 -1.0105  0.0785 -0.4411
12778TIP3   OH259748   5.111   3.917   4.059  0.8878 -0.4132 -0.5734
12778TIP3    H159749   5.182   3.978   4.079 -0.2654  0.7582  0.1153
12778TIP3    H259750   5.119   3.848   4.125  1.1825 -0.1028 -0.2803
12779TIP3   OH259751   3.866   5.760   0.780 -0.5697  0.1382  0.4066
12779TIP3    H159752   3.782   5.739   0.821 -1.6868  1.7709 -0.9110
12779TIP3    H259753   3.886   5.849   0.811  0.5369 -0.1268  0.4778
12780TIP3   OH259754   5.525   4.369   1.926 -0.0215  0.3901  0.2129
12780TIP3    H159755   5.576   4.442   1.962 -1.4763  1.5883 -0.0475
12780TIP3    H259756   5.434   4.396   1.937 -0.6259 -1.6533  0.6104
12781TIP3   OH259757   5.029   3.905   3.690 -0.1649  0.0326 -0.2904
12781TIP3    H159758   4.968   3.868   3.754 -1.0732 -1.3587 -1.8867
12781TIP3    H259759   5.116   3.891   3.729 -0.7382  0.3732  1.1894
12782TIP3   OH259760   3.494   3.133  15.964 -0.4377 -0.4872 -0.5530
12782TIP3    H159761   3.547   3.054  15.969  0.7755  0.3402 -0.0398
12782TIP3    H259762   3.549   3.196  15.918 -1.5993 -0.0876 -1.4521
12783TIP3   OH259763   0.195   0.355   0.161 -0.0448 -0.6773 -0.2574
12783TIP3    H159764   0.208   0.261   0.146 -0.4445 -0.5174 -1.7943
12783TIP3    H259765   0.213   0.395   0.076 -0.1899  0.6115  0.3019
12784TIP3   OH259766   5.248   4.231  13.583  0.3665 -0.1393 -0.5878
12784TIP3    H159767   5.215   4.197  13.666 -0.8708  0.8513 -0.6442
12784TIP3    H259768   5.262   4.152  13.529  0.8983 -0.7666  0.4418
12785TIP3   OH259769   1.687   3.694   1.570  0.1222  0.2582  0.6737
12785TIP3    H159770   1.629   3.656   1.637 -0.1352  0.6617  0.6813
12785TIP3    H259771   1.670   3.788   1.575  4.4534  1.2027  4.2976
12786TIP3   OH259772   0.638   1.687  11.886  0.2688 -0.3654  0.6231
12786TIP3    H159773   0.652   1.592  11.885 -0.9624 -0.5658  0.8811
12786TIP3    H259774   0.562   1.701  11.829  1.1280  0.6052 -0.3464
12787TIP3   OH259775   5.020   3.113   5.028 -0.4567  0.3262  0.5525
12787TIP3    H159776   5.066   3.170   4.966 -1.6338  0.5992 -0.1112
12787TIP3    H259777   4.956   3.171   5.070 -1.1348 -0.3227  0.4448
12788TIP3   OH259778   3.328   3.052  17.044  0.0159 -0.0646  0.6817
12788TIP3    H159779   3.253   3.042  17.103 -1.1891  0.4895 -0.7085
12788TIP3    H259780   3.331   2.969  16.996  0.4616 -0.1822  0.9065
12789TIP3   OH259781   1.194   6.344   2.660 -0.0916  0.4768 -0.1367
12789TIP3    H159782   1.185   6.262   2.612 -4.4467 -0.5654  2.0579
12789TIP3    H259783   1.184   6.412   2.593  0.6741 -0.7634 -1.5632
12790TIP3   OH259784   5.920   0.876   4.828  0.1484 -0.1052  0.4307
12790TIP3    H159785   6.014   0.869   4.815  0.1255  1.2649 -0.6298
12790TIP3    H259786   5.902   0.970   4.826 -1.2886 -0.3611  0.2093
12791TIP3   OH259787   4.751   4.726  12.340 -0.3825  0.3093  0.1220
12791TIP3    H159788   4.735   4.636  12.366 -1.1084  0.1125 -0.9520
12791TIP3    H259789   4.825   4.721  12.280  0.7926  0.6753  1.4651
12792TIP3   OH259790   3.457   2.196  14.960  0.1092 -0.7535 -0.0680
12792TIP3    H159791   3.362   2.195  14.968  0.0943 -2.3071 -0.2031
12792TIP3    H259792   3.483   2.104  14.964  1.5550 -0.4081 -0.7366
12793TIP3   OH259793   6.308   5.294  12.894 -0.0930 -0.1300  0.1882
12793TIP3    H159794   6.334   5.218  12.841  0.7627  1.1239 -1.2853
12793TIP3    H259795   6.218   5.275  12.921  0.2095 -1.8118  0.1706
12794TIP3   OH259796   1.640   4.264  16.118 -0.1543  0.4855 -0.4163
12794TIP3    H159797   1.597   4.349  16.120  2.6016  1.9850  0.0354
12794TIP3    H259798   1.614   4.225  16.035  1.2171  3.3722 -2.3645
12795TIP3   OH259799   0.624   0.759  12.575 -0.1356 -0.2379 -0.0690
12795TIP3    H159800   0.683   0.689  12.545 -1.2815 -0.2978 -2.3907
12795TIP3    H259801   0.607   0.812  12.497 -2.7098  0.0887  0.6029
12796TIP3   OH259802   4.685   3.677  10.369  0.2591 -0.2892  0.6095
12796TIP3    H159803   4.643   3.737  10.430 -2.4880 -2.3200  0.9180
12796TIP3    H259804   4.732   3.615  10.425 -1.5439 -1.6326  0.7461
12797TIP3   OH259805   4.371   2.485  16.553 -0.4553 -0.4624  0.0397
12797TIP3    H159806   4.404   2.535  16.627 -0.3788 -0.5222  0.0473
12797TIP3    H259807   4.302   2.540  16.515  0.0726 -0.0638 -0.3471
12798TIP3   OH259808   3.224   2.250   0.266 -0.2107 -0.0508 -0.4666
12798TIP3    H159809   3.159   2.201   0.317 -0.5961 -0.0062 -0.9100
12798TIP3    H259810   3.180   2.271   0.184 -0.0048  0.9192 -0.3425
12799TIP3   OH259811   0.358   6.154   3.749  0.2953 -0.5331  0.1087
12799TIP3    H159812   0.425   6.181   3.812  0.7615  2.1287 -1.4135
12799TIP3    H259813   0.407   6.131   3.670 -0.4944  2.6383 -1.4508
12800TIP3   OH259814   2.740   1.855  14.047 -0.8251  0.0633  0.0752
12800TIP3    H159815   2.664   1.804  14.077 -0.5592  0.0130  0.6723
12800TIP3    H259816   2.814   1.796  14.059 -0.9190 -0.7225 -2.5804
12801TIP3   OH259817   6.669   6.390   0.404  0.0348 -0.7226  0.1066
12801TIP3    H159818   6.581   6.376   0.369  0.3755  1.1330 -1.6805
12801TIP3    H259819   6.678   6.325   0.474 -2.6664 -1.0771  0.2159
12802TIP3   OH259820   4.038   2.649   1.456  0.2183 -0.0355  0.1796
12802TIP3    H159821   4.042   2.721   1.394  0.7996  0.1800  0.4623
12802TIP3    H259822   4.105   2.588   1.427  0.7517  0.2415  0.8017
12803TIP3   OH259823   2.469   2.026  15.865 -0.0408  0.4164  0.2254
12803TIP3    H159824   2.380   2.035  15.899 -0.3021 -1.2276  0.0795
12803TIP3    H259825   2.458   1.983  15.780  0.8803  0.3588  0.1197
12804TIP3   OH259826   2.002   3.738   2.020  0.2416  0.1902  0.2005
12804TIP3    H159827   1.987   3.666   2.082  1.7901  0.9631  1.5624
12804TIP3    H259828   1.982   3.817   2.070 -1.7491  0.7579 -1.3767
12805TIP3   OH259829   5.932   6.280  12.659 -0.6406 -0.7011 -0.4348
12805TIP3    H159830   5.848   6.324  12.642 -1.1467 -1.4491  0.0452
12805TIP3    H259831   5.942   6.285  12.754 -0.6985 -1.5816 -0.3711
12806TIP3   OH259832   1.556   2.686  15.286  0.0935  0.1021  0.1204
12806TIP3    H159833   1.651   2.699  15.294  0.2708 -0.3939 -0.9380
12806TIP3    H259834   1.536   2.617  15.350  0.5819 -0.3112 -0.1624
12807TIP3   OH259835   1.391   6.471   5.492  0.2455 -0.0068 -0.1689
12807TIP3    H159836   1.315   6.414   5.503  0.5076 -0.6277 -1.4439
12807TIP3    H259837   1.355   6.560   5.495 -0.0182 -0.1099  3.0309
12808TIP3   OH259838   4.516   1.065  14.119 -0.2349 -0.2682  0.6029
12808TIP3    H159839   4.503   1.129  14.049 -1.6121  0.2417  1.2744
12808TIP3    H259840   4.455   0.994  14.098 -2.2010  0.8075  2.2773
12809TIP3   OH259841   1.599   3.499   0.719  0.2911  0.1117 -0.2136
12809TIP3    H159842   1.524   3.532   0.671 -0.9493  1.1522  2.2627
12809TIP3    H259843   1.584   3.405   0.726  1.0864 -0.2828 -2.6732
12810TIP3   OH259844   2.507   3.984   4.076 -0.0917 -0.1963 -0.5470
12810TIP3    H159845   2.516   3.900   4.030  0.6303 -0.3836 -0.0776
12810TIP3    H259846   2.422   3.978   4.121  1.1740 -1.8580  1.8102
12811TIP3   OH259847   0.589   5.872   6.990 -0.6692  0.5510 -0.0292
12811TIP3    H159848   0.593   5.958   7.031  0.3603  0.0483  0.9692
12811TIP3    H259849   0.666   5.869   6.933 -1.4651  0.8046 -1.1454
12812TIP3   OH259850   4.019   0.928  10.284 -0.2877 -0.1522 -0.0940
12812TIP3    H159851   3.989   1.019  10.283  0.0979  0.0460  2.0599
12812TIP3    H259852   4.109   0.932  10.315 -0.0585 -1.2372 -0.5614
12813TIP3   OH259853   2.844   5.142   1.408  0.2295 -0.4696  0.3880
12813TIP3    H159854   2.759   5.159   1.366 -1.0713 -2.8959  1.8184
12813TIP3    H259855   2.908   5.162   1.340 -1.4928  0.5991 -1.0484
12814TIP3   OH259856   1.915   0.530  17.234 -0.0537  0.1689 -0.3415
12814TIP3    H159857   1.946   0.601  17.177  3.0883 -0.4475  0.4093
12814TIP3    H259858   1.894   0.574  17.317  0.4838  0.4278 -0.3359
12815TIP3   OH259859   2.020   1.401   5.027  0.2039 -0.1619  0.4221
12815TIP3    H159860   2.085   1.338   4.997  3.3790  1.9977  2.1203
12815TIP3    H259861   2.021   1.470   4.961  0.4737  0.3832  0.9837
12816TIP3   OH259862   4.481   6.029   4.516  0.4642 -0.9490  0.4647
12816TIP3    H159863   4.562   5.982   4.494 -0.5865 -1.8025 -1.8997
12816TIP3    H259864   4.474   6.097   4.449  0.2162  0.4337  1.8459
12817TIP3   OH259865   2.293   4.047  16.873 -0.1352 -0.0865  0.2447
12817TIP3    H159866   2.232   4.114  16.903  0.2326  0.0400  0.7301
12817TIP3    H259867   2.377   4.094  16.865 -0.4109  0.1431 -1.9894
12818TIP3   OH259868   2.267   5.797   3.001 -0.3534  0.1186  0.0627
12818TIP3    H159869   2.192   5.853   2.981  0.6142  1.1976 -0.7032
12818TIP3    H259870   2.295   5.825   3.088 -0.1032  0.5656 -0.1596
12819TIP3   OH259871   3.783   2.732   0.467 -0.1921 -0.0826  0.3787
12819TIP3    H159872   3.753   2.725   0.376  0.8779 -1.4269  0.1036
12819TIP3    H259873   3.817   2.821   0.474  1.5004 -0.5372 -1.1419
12820TIP3   OH259874   1.634   0.361  15.939  0.0273 -0.1980 -0.6467
12820TIP3    H159875   1.586   0.321  16.012  1.5512  0.3009  0.6786
12820TIP3    H259876   1.713   0.309  15.930  0.8933  1.0530 -0.4845
12821TIP3   OH259877   0.082   5.566   2.194 -0.0817 -0.3478  0.0092
12821TIP3    H159878   0.118   5.481   2.217  0.1671 -0.0034  0.9344
12821TIP3    H259879   0.154   5.627   2.206  0.0386 -0.1135 -1.6117
12822TIP3   OH259880   1.253   5.592   0.381 -0.5121 -0.2094  0.1583
12822TIP3    H159881   1.269   5.681   0.413 -0.9629  0.3844 -1.2083
12822TIP3    H259882   1.171   5.598   0.332 -0.3028 -1.2790 -0.3565
12823TIP3   OH259883   5.153   5.655  16.171  0.4146  0.9520  0.0900
12823TIP3    H159884   5.089   5.662  16.242  0.7318 -0.4429  0.5295
12823TIP3    H259885   5.105   5.685  16.094 -1.3526 -1.5008  0.0966
12824TIP3   OH259886   6.684   5.398   1.510  0.0896 -0.0381  0.3098
12824TIP3    H159887   6.607   5.371   1.459 -0.1127  0.0529  0.5683
12824TIP3    H259888   6.658   5.386   1.601  0.1850  0.5284  0.4155
12825TIP3   OH259889   3.766   6.395   4.889 -0.0251  0.4773  0.4352
12825TIP3    H159890   3.786   6.415   4.980  0.5339  1.0246  0.1989
12825TIP3    H259891   3.851   6.400   4.844 -0.3948  0.8697 -0.2372
12826TIP3   OH259892   4.123   6.728   3.125 -0.2519  0.3228  0.0543
12826TIP3    H159893   4.208   6.759   3.094 -0.8692  0.6948 -1.3740
12826TIP3    H259894   4.097   6.662   3.060 -2.1342  1.9640 -0.9802
12827TIP3   OH259895   4.114   4.727   3.001  0.3722  0.8112  0.9568
12827TIP3    H159896   4.151   4.747   3.087  2.8957 -0.8084  0.3325
12827TIP3    H259897   4.054   4.654   3.017  2.7478 -1.2245  1.0728
12828TIP3   OH259898   3.781   3.916  12.509  0.2094 -0.2107  0.0379
12828TIP3    H159899   3.801   3.974  12.583  1.3973 -0.8097  0.2129
12828TIP3    H259900   3.686   3.905  12.512  0.0368  1.1838  0.3992
12829TIP3   OH259901   2.779   6.707  13.811 -0.6058  0.4695  0.1869
12829TIP3    H159902   2.857   6.655  13.829 -0.4249  0.6655 -0.0372
12829TIP3    H259903   2.808   6.798  13.817 -0.5517  0.5459 -1.0709
12830TIP3   OH259904   5.433   5.815  14.854 -0.3033 -0.2310  0.5218
12830TIP3    H159905   5.431   5.849  14.764  0.1130  2.6217  1.4907
12830TIP3    H259906   5.423   5.893  14.909 -0.8390 -1.9320  2.9669
12831TIP3   OH259907   2.467   0.533  15.926  0.2471  0.0209  0.0321
12831TIP3    H159908   2.469   0.549  15.832  1.5771  1.6227  0.2766
12831TIP3    H259909   2.375   0.514  15.946 -0.3333  1.1628 -1.3858
12832TIP3   OH259910   5.647   5.703   6.235 -0.5525 -0.2642  0.0842
12832TIP3    H159911   5.566   5.675   6.277 -1.3048  1.2047 -0.3120
12832TIP3    H259912   5.707   5.720   6.307 -0.3722 -1.9437  0.3617
12833TIP3   OH259913   3.978   2.648   4.267 -0.2760  0.1905 -0.4176
12833TIP3    H159914   3.900   2.702   4.275  0.5811  1.2517  1.1787
12833TIP3    H259915   4.051   2.709   4.275  0.7245 -1.1432  1.2588
12834TIP3   OH259916   6.635   3.842   1.502  0.0394  0.6213 -0.0051
12834TIP3    H159917   6.685   3.847   1.583 -0.0133 -0.8118  0.1325
12834TIP3    H259918   6.565   3.779   1.521 -0.1448  0.4892 -1.0664
12835TIP3   OH259919   4.549   5.957   1.889  0.0315  0.1993  0.7169
12835TIP3    H159920   4.527   6.047   1.913 -1.7283 -0.4526  1.7300
12835TIP3    H259921   4.576   5.963   1.797 -1.5917  1.5592  0.2789
12836TIP3   OH259922   1.690   1.352  14.497  0.1003  0.2161  0.2228
12836TIP3    H159923   1.661   1.400  14.420  2.0236 -1.5470 -1.7264
12836TIP3    H259924   1.734   1.418  14.551  0.3006  1.1689 -1.0593
12837TIP3   OH259925   1.663   3.145  11.158  0.2825  0.1776  0.0401
12837TIP3    H159926   1.613   3.162  11.078 -1.0187 -0.6100  0.6535
12837TIP3    H259927   1.613   3.189  11.227  1.0695  0.3463  0.5125
12838TIP3   OH259928   3.988   3.830   4.077 -0.1479  0.0168 -0.4095
12838TIP3    H159929   3.907   3.848   4.125  0.7895  1.4227  0.7101
12838TIP3    H259930   4.057   3.830   4.144  0.8234 -1.0267 -1.3524
12839TIP3   OH259931   1.721   1.810   0.850 -0.1492  0.3825 -0.0038
12839TIP3    H159932   1.664   1.737   0.871 -1.6443  1.3146 -0.6900
12839TIP3    H259933   1.785   1.811   0.921 -1.2095 -0.4696  0.9985
12840TIP3   OH259934   2.189   2.987  15.131  0.3228 -0.2764  0.7670
12840TIP3    H159935   2.263   2.995  15.191 -0.4558 -0.2536  1.7582
12840TIP3    H259936   2.112   2.981  15.188 -0.3953 -0.8903 -0.2154
12841TIP3   OH259937   0.496   0.976  13.882 -0.4021  0.2824  0.0075
12841TIP3    H159938   0.456   0.889  13.883  0.4948 -0.1517  1.3688
12841TIP3    H259939   0.546   0.979  13.964 -1.5930  2.6334  0.7374
12842TIP3   OH259940   1.970   0.929   0.677  0.0269  0.3459 -0.1195
12842TIP3    H159941   2.033   0.994   0.707 -0.9545  1.0014  0.5842
12842TIP3    H259942   1.992   0.916   0.585  0.3826  1.5150 -0.2183
12843TIP3   OH259943   1.534   5.989   0.295 -0.2785  0.7417 -0.0792
12843TIP3    H159944   1.606   5.937   0.259  0.8514  1.5767  0.9008
12843TIP3    H259945   1.527   5.961   0.386 -1.2182  0.6678 -0.1655
12844TIP3   OH259946   0.705   2.770   4.889 -0.1339 -0.0972  0.3340
12844TIP3    H159947   0.759   2.822   4.949  0.4230 -0.0977 -0.1618
12844TIP3    H259948   0.756   2.765   4.809 -0.8316 -0.1894 -0.1129
12845TIP3   OH259949   0.945   0.772   2.665  0.1337  0.3770 -0.3050
12845TIP3    H159950   0.881   0.706   2.637  0.4490 -0.9218  1.7909
12845TIP3    H259951   1.025   0.722   2.681 -0.1707  0.7656  3.3613
12846TIP3   OH259952   3.465   6.442  13.822 -0.2519  0.2864 -0.1493
12846TIP3    H159953   3.502   6.361  13.786  1.9396  1.5479 -0.9303
12846TIP3    H259954   3.433   6.417  13.909 -0.8467 -1.6778 -0.8681
12847TIP3   OH259955   1.274   0.076   4.562  0.2854 -0.5371 -0.4229
12847TIP3    H159956   1.353   0.120   4.594  0.4351 -0.8476 -0.3552
12847TIP3    H259957   1.215   0.075   4.637 -0.2598  0.7710 -0.8201
12848TIP3   OH259958   1.557   5.937   2.153  0.6018  0.3386 -0.1085
12848TIP3    H159959   1.649   5.912   2.160  0.4890  0.3374  3.2816
12848TIP3    H259960   1.558   6.028   2.123  1.6118  0.0600 -0.9740
12849TIP3   OH259961   6.437   5.614   4.951 -0.2080 -0.2096  0.6747
12849TIP3    H159962   6.521   5.633   4.909 -0.1072 -1.7802  0.0823
12849TIP3    H259963   6.453   5.624   5.044  0.3341  0.6001  0.4969
12850TIP3   OH259964   5.552   0.962   1.136 -0.3045 -0.0322  0.3402
12850TIP3    H159965   5.630   0.950   1.082 -0.9404  1.8092 -1.0588
12850TIP3    H259966   5.586   0.975   1.225  0.7994 -2.0329  0.2673
12851TIP3   OH259967   4.072   0.266  12.246  0.3322 -0.2432  0.0201
12851TIP3    H159968   4.024   0.184  12.260 -0.3464 -0.1209 -1.4012
12851TIP3    H259969   4.074   0.276  12.151  1.7413  0.6235  0.1090
12852TIP3   OH259970   3.654   5.506   5.887  0.1492  0.3654  0.5020
12852TIP3    H159971   3.598   5.580   5.913  0.8617  1.8694 -1.8943
12852TIP3    H259972   3.743   5.536   5.905  0.4195 -0.1781  0.0933
12853TIP3   OH259973   3.107   0.525   1.286 -0.5778  0.6400 -0.1667
12853TIP3    H159974   3.019   0.537   1.250  0.0563 -1.1095 -2.4986
12853TIP3    H259975   3.160   0.498   1.212  2.3992  3.2502  0.7927
12854TIP3   OH259976   6.315   1.904  16.000  0.5246 -0.2036  0.6313
12854TIP3    H159977   6.285   1.990  15.969  0.5438 -0.4955 -0.2069
12854TIP3    H259978   6.259   1.841  15.956  1.8849 -0.7248 -0.4085
12855TIP3   OH259979   0.436   4.769   3.986 -0.5212  0.4155 -0.2510
12855TIP3    H159980   0.463   4.860   3.998  0.3420  0.1315  0.0395
12855TIP3    H259981   0.459   4.726   4.068 -1.6856  0.0969 -0.0732
12856TIP3   OH259982   2.266   1.454   6.218  0.3609 -0.9555  0.6140
12856TIP3    H159983   2.202   1.480   6.283  0.3288  0.0235  0.2072
12856TIP3    H259984   2.344   1.430   6.269  0.0270 -1.1092  1.0534
12857TIP3   OH259985   4.155   5.242   0.540  0.2719  0.2356 -0.1802
12857TIP3    H159986   4.198   5.188   0.606  0.9165  0.6852 -0.2264
12857TIP3    H259987   4.063   5.241   0.565  0.4539  0.0957  0.5100
12858TIP3   OH259988   5.251   4.190  14.148  0.0284  0.1987 -0.0545
12858TIP3    H159989   5.199   4.127  14.197  1.3420 -0.6743  0.2760
12858TIP3    H259990   5.313   4.136  14.098 -0.1830  1.1452 -1.3877
12859TIP3   OH259991   4.558   0.268   4.732  0.2912  0.6063 -0.2352
12859TIP3    H159992   4.594   0.181   4.710 -0.0756 -0.0151  1.5200
12859TIP3    H259993   4.560   0.315   4.649 -0.1987 -1.3249 -1.4185
12860TIP3   OH259994   3.356   5.102  15.705 -0.2258 -0.6321  0.9052
12860TIP3    H159995   3.410   5.149  15.641 -0.9481  0.3840  1.0220
12860TIP3    H259996   3.351   5.013  15.671 -0.5337 -0.1298 -0.4212
12861TIP3   OH259997   4.980   2.958   6.641 -0.3088  0.0925  0.4716
12861TIP3    H159998   4.987   2.965   6.545 -1.3722  2.6961  0.4821
12861TIP3    H259999   5.061   2.915   6.668  1.0720  1.3159 -1.4444
12862TIP3   OH260000   5.197   1.841  15.697 -0.1592 -0.0331  0.3185
12862TIP3    H160001   5.260   1.899  15.739  0.2550  0.5474 -1.0368
12862TIP3    H260002   5.125   1.899  15.670 -0.3017 -0.3499  0.0081
12863TIP3   OH260003   4.840   3.136  13.068  0.6978 -0.4032  0.0932
12863TIP3    H160004   4.900   3.082  13.017  1.1884  0.2021  0.0149
12863TIP3    H260005   4.897   3.194  13.118  0.2212 -0.9622  1.3158
12864TIP3   OH260006   4.831   5.960   4.727  0.3049 -0.0905 -0.4763
12864TIP3    H160007   4.859   6.047   4.697  1.2493 -0.3952 -0.5135
12864TIP3    H260008   4.888   5.940   4.801 -1.2848  0.1820  0.8755
12865TIP3   OH260009   0.732   3.912   5.490 -0.3337  0.2838 -0.1803
12865TIP3    H160010   0.676   3.841   5.524  0.5745 -0.3987 -0.0734
12865TIP3    H260011   0.777   3.946   5.568 -0.5732  0.8153 -0.2700
12866TIP3   OH260012   1.000   0.078   4.066 -0.6463 -0.2023  0.7837
12866TIP3    H160013   1.065   0.060   4.134 -1.3024 -0.1732  1.4286
12866TIP3    H260014   0.917   0.050   4.104 -1.0753  0.1620  0.1339
12867TIP3   OH260015   2.737   1.815   0.854 -0.1895 -0.1463  0.1402
12867TIP3    H160016   2.730   1.802   0.759 -0.8548 -0.2828  0.2019
12867TIP3    H260017   2.824   1.782   0.877  0.9849  2.0998 -0.7835
12868TIP3   OH260018   3.434   1.656  14.292 -0.0333  0.0881 -0.2099
12868TIP3    H160019   3.369   1.694  14.233 -0.8919 -2.0715 -0.7468
12868TIP3    H260020   3.517   1.690  14.260 -0.7124  1.3083 -0.7773
12869TIP3   OH260021   0.210   3.961  14.715 -0.1919  0.1285 -0.7369
12869TIP3    H160022   0.119   3.952  14.746  0.2462 -0.5265  0.4251
12869TIP3    H260023   0.240   4.043  14.753 -0.6271  0.9116 -2.0346
12870TIP3   OH260024   5.421   2.050  14.839  0.3571  0.5655 -0.5436
12870TIP3    H160025   5.409   2.138  14.875  0.1677  1.1843 -2.0344
12870TIP3    H260026   5.479   2.006  14.901  0.8074  1.8972  0.0144
12871TIP3   OH260027   5.903   6.167   3.727  0.6608  0.5441 -0.2037
12871TIP3    H160028   5.878   6.081   3.762 -0.1128  0.9144  0.1866
12871TIP3    H260029   5.988   6.185   3.766  0.9034 -0.1112 -0.4148
12872TIP3   OH260030   4.668   5.702   1.949 -0.0653  0.6115 -0.1859
12872TIP3    H160031   4.597   5.641   1.970  0.4790 -0.2416 -0.7616
12872TIP3    H260032   4.629   5.789   1.960 -0.7065  0.1831  1.1619
12873TIP3   OH260033   4.367   0.327  12.216  0.2239 -0.2177 -0.1352
12873TIP3    H160034   4.282   0.288  12.236  0.1673 -0.4920 -0.8729
12873TIP3    H260035   4.383   0.302  12.125  0.2057  1.4416 -0.6218
12874TIP3   OH260036   3.011   0.949   1.321  0.0075 -0.6659 -0.6514
12874TIP3    H160037   3.063   0.925   1.398 -1.1501  0.0837  0.4092
12874TIP3    H260038   2.973   1.034   1.343 -0.6869 -0.6289 -1.8869
12875TIP3   OH260039   3.697   5.592   1.402 -0.2779 -0.0717 -0.5309
12875TIP3    H160040   3.729   5.591   1.492 -1.0504  2.2707 -0.1314
12875TIP3    H260041   3.622   5.652   1.405 -0.0076  0.4829 -2.8111
12876TIP3   OH260042   2.290   1.396  16.363  0.0190 -0.2689  0.0038
12876TIP3    H160043   2.348   1.360  16.296  0.0355 -1.5419  0.6658
12876TIP3    H260044   2.274   1.322  16.423 -0.4311  0.6798  1.0928
12877TIP3   OH260045   6.097   4.426  17.271  0.3427  0.2879  0.1103
12877TIP3    H160046   6.069   4.358  17.209  0.8192  1.0059 -0.9227
12877TIP3    H260047   6.019   4.481  17.282 -0.6440 -1.4109  2.4066
12878TIP3   OH260048   1.223   3.717   1.110 -0.4196 -0.2067 -0.3481
12878TIP3    H160049   1.158   3.733   1.042  0.2070 -1.6750 -1.3466
12878TIP3    H260050   1.233   3.622   1.112  0.2008 -0.1420  1.2227
12879TIP3   OH260051   0.469   6.282  15.449  0.3684  0.2882 -0.6266
12879TIP3    H160052   0.476   6.355  15.511  1.7844 -1.0439  0.8854
12879TIP3    H260053   0.401   6.226  15.487  0.2407  0.1608 -1.0445
12880TIP3   OH260054   3.841   6.735   0.035  0.3385  0.2344  0.1994
12880TIP3    H160055   3.893   6.745   0.115  0.2144  2.6874  0.0488
12880TIP3    H260056   3.754   6.710   0.067  1.0872 -2.1968  0.5517
12881TIP3   OH260057   5.403   5.633  11.225 -0.3717 -0.1261 -0.4421
12881TIP3    H160058   5.348   5.632  11.146  1.3705  0.1431 -1.7178
12881TIP3    H260059   5.400   5.543  11.258 -1.0102 -0.2761 -0.8982
12882TIP3   OH260060   0.532   5.241   5.093  0.1197 -0.4991 -0.1631
12882TIP3    H160061   0.610   5.283   5.058  0.2581  0.1321  0.8718
12882TIP3    H260062   0.549   5.147   5.082  1.4762 -0.4192  0.9185
12883TIP3   OH260063   0.196   3.630   2.326  0.1428 -1.3683  0.0503
12883TIP3    H160064   0.264   3.696   2.337  0.2174 -1.6284  1.2189
12883TIP3    H260065   0.151   3.656   2.245  2.3678 -1.8859 -1.4572
12884TIP3   OH260066   0.491   1.070   4.094 -0.0963 -0.0003  0.1459
12884TIP3    H160067   0.506   1.086   4.187 -1.2247  2.1512  0.0215
12884TIP3    H260068   0.455   0.982   4.090  0.4125 -0.2997  1.6835
12885TIP3   OH260069   6.641   4.982  16.072 -0.8745 -0.1593  0.4726
12885TIP3    H160070   6.728   5.012  16.045 -0.6020 -0.2381  1.2363
12885TIP3    H260071   6.633   5.012  16.162 -2.4109  1.4852 -0.1498
12886TIP3   OH260072   0.914   1.575   5.356 -0.6036  0.4086  0.0209
12886TIP3    H160073   0.897   1.540   5.269 -1.5413 -2.0040  1.0810
12886TIP3    H260074   0.901   1.500   5.415  1.5910  1.5341  2.1049
12887TIP3   OH260075   4.924   1.798  14.942 -0.4011  0.5003  0.4525
12887TIP3    H160076   4.832   1.800  14.915 -0.9483  0.2209  2.1587
12887TIP3    H260077   4.964   1.872  14.896 -0.8586 -0.8081 -2.2445
12888TIP3   OH260078   1.257   2.288  16.131  0.0474  0.1047 -0.1026
12888TIP3    H160079   1.222   2.252  16.049 -0.1429 -2.3489  0.9778
12888TIP3    H260080   1.352   2.275  16.124  0.3758  2.4450 -1.0295
12889TIP3   OH260081   2.656   2.079  11.104  0.5174 -0.4933 -0.6796
12889TIP3    H160082   2.598   2.026  11.049  1.1717 -1.2044 -0.6872
12889TIP3    H260083   2.729   2.102  11.046 -0.3908  1.5671 -1.0947
12890TIP3   OH260084   2.805   2.548  13.334 -0.0102  0.1516 -0.3310
12890TIP3    H160085   2.745   2.590  13.273  0.9297  1.2043 -0.5617
12890TIP3    H260086   2.762   2.555  13.419 -0.6079  0.1045 -0.6242
12891TIP3   OH260087   4.420   6.565  10.416  0.2655  0.1847 -0.3517
12891TIP3    H160088   4.351   6.504  10.390 -0.3666  0.7687 -0.0836
12891TIP3    H260089   4.385   6.608  10.495  0.8961  0.5575 -0.2699
12892TIP3   OH260090   1.682   5.700  11.473  0.2367  1.1089  0.2740
12892TIP3    H160091   1.659   5.787  11.507  0.9203  1.0999  0.7733
12892TIP3    H260092   1.768   5.713  11.432  0.0621  0.7986 -0.2027
12893TIP3   OH260093   6.319   2.728   0.587  0.1706  0.6356  0.4567
12893TIP3    H160094   6.311   2.799   0.650 -3.2723 -0.4167  1.4692
12893TIP3    H260095   6.278   2.761   0.507  0.6531  0.5702  0.1836
12894TIP3   OH260096   4.892   3.476   5.639  0.1175  0.2325 -0.7887
12894TIP3    H160097   4.880   3.398   5.586  0.9735 -0.9854  0.7303
12894TIP3    H260098   4.897   3.443   5.729 -0.5164  2.1369 -0.0060
12895TIP3   OH260099   3.965   1.217  15.645  0.0814  0.2478 -0.2669
12895TIP3    H160100   3.915   1.263  15.713 -2.5934 -0.4118 -1.6297
12895TIP3    H260101   3.985   1.286  15.581 -0.1836  0.3078 -0.2896
12896TIP3   OH260102   2.276   2.531  12.524 -0.4772 -0.1751  0.5909
12896TIP3    H160103   2.287   2.603  12.462 -0.7824  0.1445  0.9081
12896TIP3    H260104   2.190   2.494  12.503 -0.4320 -0.2829  0.5963
12897TIP3   OH260105   2.287   2.971  12.335 -0.6093  0.3776  0.6108
12897TIP3    H160106   2.368   2.974  12.284 -1.2725 -0.4144 -0.5444
12897TIP3    H260107   2.243   3.054  12.315 -0.6776  0.2478  0.2185
12898TIP3   OH260108   2.902   2.593  12.519 -0.2646  0.0577 -0.0524
12898TIP3    H160109   2.960   2.568  12.447 -0.7229  1.7431 -1.0764
12898TIP3    H260110   2.919   2.529  12.588  0.3690 -1.4730 -1.5647
12899TIP3   OH260111   0.352   4.767   1.318  0.0910 -0.0019  0.0885
12899TIP3    H160112   0.364   4.672   1.322 -1.4212 -0.2284 -0.1357
12899TIP3    H260113   0.427   4.802   1.366  0.2486 -1.3301  0.8872
12900TIP3   OH260114   5.194   6.251   1.317 -0.0918 -0.8069  0.3123
12900TIP3    H160115   5.221   6.190   1.385  1.1025 -1.1824 -0.4713
12900TIP3    H260116   5.248   6.329   1.332 -1.1806 -0.1423  0.9365
12901TIP3   OH260117   5.590   1.701   1.448 -0.2063 -0.5374 -0.2470
12901TIP3    H160118   5.508   1.658   1.472 -0.7330  0.0774 -0.9097
12901TIP3    H260119   5.565   1.767   1.383  0.4638  1.2344  1.1911
12902TIP3   OH260120   1.966   4.965  17.327 -0.0509 -0.0246  0.2204
12902TIP3    H160121   2.055   4.953  17.358  0.0735 -1.0249 -0.4625
12902TIP3    H260122   1.965   4.923  17.241 -1.6135 -1.5755  0.9314
12903TIP3   OH260123   5.823   2.315  13.778 -0.2560 -0.0145  0.2123
12903TIP3    H160124   5.839   2.410  13.778  1.4359 -0.2792 -0.2872
12903TIP3    H260125   5.907   2.276  13.798 -0.5636 -1.4802 -1.1347
12904TIP3   OH260126   6.435   4.908  15.920  0.1771 -0.4865  0.3514
12904TIP3    H160127   6.509   4.950  15.963 -0.7415 -0.2824  1.8247
12904TIP3    H260128   6.413   4.835  15.978  0.0165 -1.3211 -0.7347
12905TIP3   OH260129   5.932   0.672   0.260 -0.5189 -0.0521 -0.0010
12905TIP3    H160130   5.876   0.612   0.309 -1.3158  1.5983  1.2322
12905TIP3    H260131   5.931   0.638   0.170  0.3852 -2.7525  0.9214
12906TIP3   OH260132   3.659   1.842   4.000  0.4805  0.0288 -0.4485
12906TIP3    H160133   3.691   1.920   3.954 -0.0485  0.2211 -0.5004
12906TIP3    H260134   3.591   1.806   3.943 -0.0841  0.1855  0.1033
12907TIP3   OH260135   3.068   4.319   2.911  0.1095  0.6208 -0.2810
12907TIP3    H160136   3.151   4.367   2.914  0.4701  0.0265 -0.5140
12907TIP3    H260137   3.088   4.239   2.862 -0.3318 -0.0436  0.5834
12908TIP3   OH260138   2.382   6.270   3.545 -0.1403  0.0063  0.1839
12908TIP3    H160139   2.422   6.342   3.594 -0.8703 -0.7579  1.9928
12908TIP3    H260140   2.380   6.197   3.607 -1.9996 -0.7289 -0.6725
12909TIP3   OH260141   0.075   3.086   4.980  0.2512  0.3934 -0.1505
12909TIP3    H160142   0.067   3.030   5.057  1.0515  0.2627 -0.1493
12909TIP3    H260143   0.149   3.143   4.999  1.9093 -1.0970 -1.6686
12910TIP3   OH260144   6.132   4.674   5.453 -0.6339 -0.4540  0.1291
12910TIP3    H160145   6.164   4.756   5.416  1.5809 -1.1041  0.4085
12910TIP3    H260146   6.133   4.688   5.548 -0.3390 -0.7391  0.1746
12911TIP3   OH260147   4.125   1.370   0.029 -0.5214  0.1876  0.1336
12911TIP3    H160148   4.117   1.464   0.040 -0.2650  0.1782  0.4129
12911TIP3    H260149   4.047   1.334   0.071  0.1778  0.1832  1.4860
12912TIP3   OH260150   0.407   4.934   3.256 -0.7517 -0.2363 -0.4510
12912TIP3    H160151   0.459   5.014   3.261 -0.4061 -0.3144 -2.1469
12912TIP3    H260152   0.385   4.914   3.347  2.4681 -0.4030  0.3950
12913TIP3   OH260153   1.825   5.218   2.459 -0.4010  0.5229  0.5895
12913TIP3    H160154   1.800   5.147   2.517 -0.7454  1.6314  1.8287
12913TIP3    H260155   1.749   5.232   2.403 -0.4147  0.0794  0.4951
12914TIP3   OH260156   4.461   1.368  12.282  0.1827 -0.4957  0.4267
12914TIP3    H160157   4.506   1.314  12.347  1.9090  0.3256 -0.0184
12914TIP3    H260158   4.482   1.458  12.307 -1.1405 -0.0788  0.1078
12915TIP3   OH260159   0.032   0.924  16.695 -0.6289  0.1522 -0.2126
12915TIP3    H160160   0.125   0.907  16.709 -0.0702  2.1501 -1.0989
12915TIP3    H260161   0.013   0.886  16.609 -1.2760 -2.2932  0.9254
12916TIP3   OH260162   2.217   0.163  11.102  0.1946 -0.1425  0.3319
12916TIP3    H160163   2.204   0.215  11.022  0.3694  1.9870  1.6013
12916TIP3    H260164   2.174   0.080  11.083 -0.2427  0.4838 -1.7742
12917TIP3   OH260165   2.870   5.063   4.792 -0.5427  0.2226  0.2997
12917TIP3    H160166   2.900   5.051   4.702  2.1871 -1.1266  1.2970
12917TIP3    H260167   2.775   5.046   4.788 -0.1464 -2.0642 -1.9585
12918TIP3   OH260168   0.318   1.232  16.222 -0.1954  0.0902  0.3007
12918TIP3    H160169   0.245   1.185  16.180 -0.4474 -0.1073  0.9380
12918TIP3    H260170   0.315   1.320  16.186 -1.2265  0.3011  0.8610
12919TIP3   OH260171   4.103   2.237  16.070  0.8133 -0.6488  0.4494
12919TIP3    H160172   4.120   2.210  15.980 -0.8241  1.0381 -0.4429
12919TIP3    H260173   4.017   2.201  16.090 -0.2647  1.6116  0.1318
12920TIP3   OH260174   5.716   2.955  13.533 -0.3399  0.2835  0.4868
12920TIP3    H160175   5.724   3.047  13.509 -2.3884  0.5465  0.5766
12920TIP3    H260176   5.796   2.934  13.580  0.1376  2.0316  0.4933
12921TIP3   OH260177   6.070   3.764  16.472 -0.3595  0.6390  0.1180
12921TIP3    H160178   5.988   3.802  16.441 -1.4965 -0.2529  1.8409
12921TIP3    H260179   6.066   3.673  16.444  0.1535  0.6437  0.0236
12922TIP3   OH260180   4.970   2.446  11.809  0.0210  0.0623 -0.3005
12922TIP3    H160181   4.947   2.502  11.883  0.9493 -0.6659  0.5684
12922TIP3    H260182   4.894   2.450  11.751 -1.1730 -0.1796  1.1922
12923TIP3   OH260183   4.267   2.324   5.958  0.6811  0.6037  0.6062
12923TIP3    H160184   4.253   2.307   5.865 -0.5117  1.6605  0.5587
12923TIP3    H260185   4.359   2.304   5.972  0.9154  0.5306 -0.8342
12924TIP3   OH260186   2.159   4.418  16.214 -0.4454  0.3035  0.1210
12924TIP3    H160187   2.217   4.343  16.200 -0.8679 -0.2207  1.1017
12924TIP3    H260188   2.137   4.415  16.307 -1.1670  1.1454 -0.0058
12925TIP3   OH260189   5.381   4.187  11.276 -0.2033  0.3621  0.5290
12925TIP3    H160190   5.368   4.098  11.309  1.1323  0.6983  2.1059
12925TIP3    H260191   5.476   4.201  11.282 -0.2606  1.5021 -0.7923
12926TIP3   OH260192   0.845   4.998  15.539  0.0911  0.0130  0.4075
12926TIP3    H160193   0.881   5.045  15.614 -2.3358  1.7836  0.5641
12926TIP3    H260194   0.876   4.908  15.551  1.9002  0.7906  2.0881
12927TIP3   OH260195   2.432   1.253  16.172 -0.9589  0.0463  0.0497
12927TIP3    H160196   2.476   1.172  16.196 -0.3272  0.3237 -0.1475
12927TIP3    H260197   2.372   1.228  16.101  0.7946  0.1145 -1.5311
12928TIP3   OH260198   4.893   2.920  14.694 -0.0657 -0.2862 -0.5553
12928TIP3    H160199   4.913   2.897  14.603  1.8519 -2.9604  0.4327
12928TIP3    H260200   4.933   3.006  14.706 -0.8127  0.3630 -2.3414
12929TIP3   OH260201   4.750   4.541   0.020 -0.1094  0.1735 -0.0166
12929TIP3    H160202   4.828   4.538  -0.036  1.0439 -0.2826  1.5460
12929TIP3    H260203   4.768   4.612   0.081  0.1259 -1.3566  1.7692
12930TIP3   OH260204   2.313   6.524   2.768  0.2070 -0.0607 -0.0971
12930TIP3    H160205   2.311   6.484   2.855 -0.5928  0.2526  0.0390
12930TIP3    H260206   2.229   6.569   2.761  1.7551  3.3303  0.5641
12931TIP3   OH260207   1.334   6.346  11.565 -0.3935 -0.2839  0.2075
12931TIP3    H160208   1.302   6.263  11.528  0.2689 -1.2147  1.6311
12931TIP3    H260209   1.321   6.410  11.495  0.9466 -1.9671 -1.6835
12932TIP3   OH260210   6.678   0.503   6.355  0.0583 -0.3806  0.4790
12932TIP3    H160211   6.741   0.567   6.321  0.9730 -0.5898  1.6866
12932TIP3    H260212   6.681   0.431   6.293 -1.7914  1.1153 -1.5168
12933TIP3   OH260213   4.034   1.863   5.853  0.2275 -0.6417  0.9505
12933TIP3    H160214   3.988   1.887   5.933 -0.1754 -0.9964  0.8324
12933TIP3    H260215   4.104   1.804   5.882  0.6269 -0.0820  1.1339
12934TIP3   OH260216   2.982   4.705   5.080 -0.1659  0.3412 -0.3386
12934TIP3    H160217   3.040   4.640   5.118 -0.7916 -1.3496 -2.1069
12934TIP3    H260218   2.941   4.748   5.155  0.2636 -1.3119  0.8855
12935TIP3   OH260219   4.375   2.703  12.113  0.1571 -0.0488 -0.2591
12935TIP3    H160220   4.388   2.687  12.020  2.4205  0.0219 -0.0025
12935TIP3    H260221   4.363   2.615  12.150 -2.4135  0.0049 -0.7544
12936TIP3   OH260222   3.807   2.787   0.159  0.0803  0.4972  0.6280
12936TIP3    H160223   3.893   2.760   0.127  0.1503  2.1147 -0.6981
12936TIP3    H260224   3.753   2.791   0.080 -0.7905  0.9798  1.2330
12937TIP3   OH260225   2.092   4.644   1.213 -0.4492 -0.1057  0.4594
12937TIP3    H160226   2.051   4.702   1.149  0.3191 -0.5038 -0.4180
12937TIP3    H260227   2.136   4.703   1.275  1.5086  0.2854 -1.2082
12938TIP3   OH260228   1.941   5.632   2.720  0.1197  0.1501 -0.8794
12938TIP3    H160229   2.004   5.565   2.745  1.1286  1.1915 -0.5553
12938TIP3    H260230   1.883   5.589   2.658  2.0250 -0.4615 -2.3339
12939TIP3   OH260231   3.552   2.823  13.030 -0.5256  0.0663  0.2884
12939TIP3    H160232   3.587   2.735  13.042  1.2654  0.5069 -1.2170
12939TIP3    H260233   3.511   2.821  12.943 -1.1504  0.5160  0.5638
12940TIP3   OH260234   3.102   3.590   4.875  0.1492  0.0722  0.2906
12940TIP3    H160235   3.165   3.579   4.803  2.0494 -0.2817  1.9103
12940TIP3    H260236   3.153   3.632   4.945 -2.2325  2.6441  0.6601
12941TIP3   OH260237   2.464   5.043  11.066 -0.2229  0.2047 -0.4382
12941TIP3    H160238   2.474   4.970  11.004  1.7578  0.4039 -0.4281
12941TIP3    H260239   2.419   5.111  11.016  0.2088 -0.1066 -1.2759
12942TIP3   OH260240   6.143   3.688   5.748  0.0084 -0.0823  0.2669
12942TIP3    H160241   6.190   3.746   5.688 -1.7888  0.0381 -1.1344
12942TIP3    H260242   6.142   3.604   5.704 -3.5791  0.6009 -1.3348
12943TIP3   OH260243   2.861   0.714   2.785 -0.5249 -0.1548  0.3221
12943TIP3    H160244   2.932   0.778   2.787 -0.0471 -0.6860  0.6837
12943TIP3    H260245   2.809   0.738   2.709 -1.4985  1.8747  1.5417
12944TIP3   OH260246   1.019   3.256   2.326  0.4159 -0.1567 -0.3049
12944TIP3    H160247   0.928   3.236   2.303 -0.3561  1.3017  1.2545
12944TIP3    H260248   1.041   3.332   2.272  1.3905 -1.5784 -2.0190
12945TIP3   OH260249   6.390   2.806  11.349  0.1191 -0.0213  0.2005
12945TIP3    H160250   6.444   2.745  11.299 -1.7355 -0.8310 -0.9023
12945TIP3    H260251   6.321   2.833  11.288 -1.0629  0.5177  1.7140
12946TIP3   OH260252   4.554   2.188  10.812  0.4750  0.2702  0.4204
12946TIP3    H160253   4.643   2.191  10.777  0.3499 -0.9568 -0.0751
12946TIP3    H260254   4.504   2.248  10.757  0.5241 -0.7857 -0.8080
12947TIP3   OH260255   0.981   1.518   1.197  0.5004 -0.1323 -0.0361
12947TIP3    H160256   0.894   1.551   1.218  0.4106 -0.1223 -0.4194
12947TIP3    H260257   1.029   1.594   1.165  0.0004 -0.5296 -1.8448
12948TIP3   OH260258   3.200   4.002  17.276 -0.2104 -0.3924 -0.4921
12948TIP3    H160259   3.222   3.931  17.336  1.5650 -0.9625 -1.7288
12948TIP3    H260260   3.274   4.006  17.215 -0.4429  2.2587 -0.7208
12949TIP3   OH260261   3.107   4.572   3.170 -0.4165  0.6791 -0.2589
12949TIP3    H160262   3.022   4.548   3.206  0.0360 -0.2156  0.2597
12949TIP3    H260263   3.091   4.588   3.077 -1.2011  0.8550 -0.0965
12950TIP3   OH260264   0.465   4.603  15.265 -0.0534  0.3094 -0.2570
12950TIP3    H160265   0.414   4.567  15.337  0.9850  0.9266  0.8221
12950TIP3    H260266   0.534   4.539  15.250  1.2877  1.3623  1.0945
12951TIP3   OH260267   1.927   4.314  10.964  0.1111  0.0912  0.0996
12951TIP3    H160268   1.870   4.339  10.891  0.8810 -0.5758 -0.7540
12951TIP3    H260269   1.916   4.219  10.971  1.6377 -0.1654 -0.5637
12952TIP3   OH260270   3.660   0.192   5.359  0.3585 -0.0890  0.1231
12952TIP3    H160271   3.670   0.124   5.425 -0.8270  0.3721  0.8260
12952TIP3    H260272   3.631   0.269   5.408 -0.7454  0.2103 -0.9429
12953TIP3   OH260273   5.856   2.916  17.318 -0.7310  0.0331 -0.4628
12953TIP3    H160274   5.848   2.975  17.393 -0.5374 -0.2013 -0.2553
12953TIP3    H260275   5.950   2.895  17.314 -0.6594  0.4298 -1.0678
12954TIP3   OH260276   5.160   0.541  12.046 -0.2790 -0.5589  0.8148
12954TIP3    H160277   5.072   0.523  12.077 -1.8563 -0.3178 -2.9147
12954TIP3    H260278   5.161   0.636  12.030  1.0055 -0.4042  1.6362
12955TIP3   OH260279   0.918   6.508  11.993 -0.0835  0.0649  0.3970
12955TIP3    H160280   0.850   6.564  12.029 -0.5879  0.1374 -0.6369
12955TIP3    H260281   0.991   6.567  11.975  0.4108 -0.0660  1.8189
12956TIP3   OH260282   1.557   5.426  17.302 -0.6778  0.3848  0.6145
12956TIP3    H160283   1.546   5.491  17.372  0.4787 -1.3723  2.5596
12956TIP3    H260284   1.647   5.437  17.273 -0.9886  0.7354 -0.2410
12957TIP3   OH260285   3.779   4.948  16.766 -0.3916 -0.5212 -0.0598
12957TIP3    H160286   3.698   4.978  16.807  0.4577 -0.6494  1.8398
12957TIP3    H260287   3.772   4.976  16.675 -2.0742  0.4537  0.3283
12958TIP3   OH260288   5.230   1.348   2.655 -0.1591  0.2203  0.2234
12958TIP3    H160289   5.226   1.253   2.655  0.6168  0.1821  0.1825
12958TIP3    H260290   5.140   1.376   2.637 -0.2870 -0.5010 -0.2852
12959TIP3   OH260291   1.223   5.994  14.975 -0.4940 -0.4897  0.5928
12959TIP3    H160292   1.200   6.061  15.040  1.6487  1.6781 -0.7210
12959TIP3    H260293   1.164   6.011  14.902 -0.7279 -0.8004  0.7090
12960TIP3   OH260294   2.150   0.145  14.853 -0.2919 -0.2198  0.2765
12960TIP3    H160295   2.082   0.108  14.797  1.0820 -1.0766 -0.8896
12960TIP3    H260296   2.126   0.237  14.864 -1.6502 -0.5235 -0.0597
12961TIP3   OH260297   1.833   0.119   0.004  0.2235  0.6954  0.6330
12961TIP3    H160298   1.892   0.143   0.075  0.4752  0.0642  0.6413
12961TIP3    H260299   1.745   0.131   0.041  0.3344  1.7365  0.5849
12962TIP3   OH260300   6.453   2.614  16.293  0.4150  0.9670 -0.2646
12962TIP3    H160301   6.460   2.561  16.372  1.5816  1.3458 -0.0865
12962TIP3    H260302   6.445   2.550  16.222  1.6251  0.5282 -0.0370
12963TIP3   OH260303   2.785   5.153  13.973 -0.0126 -0.0977  0.2238
12963TIP3    H160304   2.753   5.082  13.918  2.0827 -0.4842 -0.5889
12963TIP3    H260305   2.754   5.131  14.061 -2.2639 -0.1691 -0.5122
12964TIP3   OH260306   1.425   3.039   0.148  0.0542  0.1093  0.4087
12964TIP3    H160307   1.427   3.129   0.178 -0.4053  0.5449 -0.8032
12964TIP3    H260308   1.509   3.002   0.175  0.8136  1.3027 -0.2764
12965TIP3   OH260309   1.985   0.079   2.862 -0.0562  0.0245  1.1609
12965TIP3    H160310   1.891   0.090   2.848  0.2046  1.1560  0.0981
12965TIP3    H260311   2.005   0.134   2.938  0.0083  1.1828  0.3349
12966TIP3   OH260312   5.229   1.624   0.723  0.9150 -0.0612 -0.0321
12966TIP3    H160313   5.153   1.651   0.775 -0.0220 -2.0228 -0.2949
12966TIP3    H260314   5.276   1.706   0.705  1.0129  0.7975  3.4160
12967TIP3   OH260315   6.384   1.874  13.310  0.0953 -0.6961  0.5177
12967TIP3    H160316   6.432   1.797  13.341  0.0457 -0.2575  1.7262
12967TIP3    H260317   6.408   1.881  13.217 -1.9817 -3.7394 -0.4189
12968TIP3   OH260318   3.597   3.664   2.286  0.6480 -0.4600  0.0505
12968TIP3    H160319   3.632   3.749   2.313 -0.1531 -0.4231  1.0379
12968TIP3    H260320   3.502   3.676   2.288  0.5235 -1.4012  0.2414
12969TIP3   OH260321   3.072   0.752   6.028  0.2971  0.1816  0.0707
12969TIP3    H160322   3.079   0.730   6.121  0.6706  0.9622  0.2342
12969TIP3    H260323   3.136   0.695   5.986  1.7814  1.4109  0.5780
12970TIP3   OH260324   2.745   3.283   3.769  0.4167 -0.2491 -0.1419
12970TIP3    H160325   2.661   3.261   3.807 -0.7314  0.4310 -2.1331
12970TIP3    H260326   2.742   3.246   3.680  1.8345  0.5578 -0.5669
12971TIP3   OH260327   4.829   4.780  13.494  0.4572 -0.8350 -0.0375
12971TIP3    H160328   4.742   4.780  13.453  0.0170 -0.4163  0.8497
12971TIP3    H260329   4.852   4.688  13.503  0.4289 -0.9342 -0.9374
12972TIP3   OH260330   0.333   5.371  13.521  0.3619 -0.0705 -0.4494
12972TIP3    H160331   0.379   5.287  13.514 -0.0174 -0.2135 -1.3509
12972TIP3    H260332   0.330   5.388  13.615  2.4354  0.0519 -0.3453
12973TIP3   OH260333   6.070   6.038   0.533 -0.1294  0.6782  0.2992
12973TIP3    H160334   6.064   6.124   0.575 -0.1248  0.1006  1.5140
12973TIP3    H260335   6.007   5.984   0.580 -0.3581  0.0856 -0.6596
12974TIP3   OH260336   2.718   4.897   2.408  0.0373  0.9308  0.9966
12974TIP3    H160337   2.785   4.918   2.343 -0.9775  0.3665 -0.2776
12974TIP3    H260338   2.763   4.846   2.475  0.6299 -0.6263 -0.5296
12975TIP3   OH260339   3.608   5.181  13.283  0.0095  0.0047 -0.4721
12975TIP3    H160340   3.615   5.267  13.242  1.4558 -0.0036 -0.2805
12975TIP3    H260341   3.687   5.135  13.256 -0.2256 -0.8817  0.3060
12976TIP3   OH260342   5.622   4.374   4.876 -0.4840 -0.1599 -0.3099
12976TIP3    H160343   5.560   4.304   4.854  1.0822 -1.3356 -1.1857
12976TIP3    H260344   5.691   4.330   4.926 -0.1901  1.0715  0.4125
12977TIP3   OH260345   5.040   3.562   0.750 -0.6015 -0.2513  0.0388
12977TIP3    H160346   4.990   3.515   0.684 -0.6335  1.4539 -1.2268
12977TIP3    H260347   5.001   3.650   0.753  0.9522  0.4653  0.5522
12978TIP3   OH260348   5.030   3.380  10.982  0.3615 -0.0687  0.2509
12978TIP3    H160349   5.019   3.470  10.953  2.1083  0.0945 -0.0648
12978TIP3    H260350   4.967   3.330  10.930 -0.4774  0.9418  0.2805
12979TIP3   OH260351   6.474   3.135  11.211 -0.0736  0.1312 -0.6259
12979TIP3    H160352   6.412   3.203  11.185 -0.6681 -0.5117 -0.9311
12979TIP3    H260353   6.529   3.122  11.133  0.0855  0.3081 -0.5441
12980TIP3   OH260354   3.384   2.397  15.960 -0.3651 -0.0708 -0.0823
12980TIP3    H160355   3.304   2.445  15.979 -1.0347 -1.1890 -0.0388
12980TIP3    H260356   3.386   2.389  15.865 -1.7724 -2.4096  0.0013
12981TIP3   OH260357   3.404   2.745   2.227 -0.0388  0.4612  0.4881
12981TIP3    H160358   3.333   2.801   2.195 -1.0611 -0.0283  1.7663
12981TIP3    H260359   3.375   2.718   2.315 -0.0750 -2.7978 -0.3908
12982TIP3   OH260360   0.150   4.216   5.791 -0.2355  0.6575 -0.0717
12982TIP3    H160361   0.226   4.256   5.833  0.9174 -1.9708  0.4866
12982TIP3    H260362   0.143   4.129   5.829 -1.9601 -0.1561 -2.0227
12983TIP3   OH260363   0.754   2.990   4.600  0.4730  0.1020  0.6350
12983TIP3    H160364   0.694   3.029   4.664  1.8013 -1.0682  2.6746
12983TIP3    H260365   0.809   3.063   4.571 -1.3080  1.0315 -0.6777
12984TIP3   OH260366   3.387   5.823  13.855 -0.4067 -0.2362  0.2795
12984TIP3    H160367   3.363   5.902  13.807 -0.1712 -0.9948 -1.1499
12984TIP3    H260368   3.304   5.786  13.886 -0.6906 -0.3571 -0.5913
12985TIP3   OH260369   3.662   1.715   0.791 -0.1087 -0.8694  0.1629
12985TIP3    H160370   3.656   1.796   0.842  3.5944 -1.1322  1.3352
12985TIP3    H260371   3.649   1.646   0.855  0.7065 -1.1842 -0.0005
12986TIP3   OH260372   1.495   3.594   3.802 -0.3207  0.2103 -0.0069
12986TIP3    H160373   1.517   3.510   3.763 -0.1289 -0.3943  1.3402
12986TIP3    H260374   1.534   3.591   3.890  0.1743  1.9320 -0.1253
12987TIP3   OH260375   3.922   6.500   1.586  0.1027  0.2311 -0.2343
12987TIP3    H160376   3.903   6.577   1.533 -0.0810  1.4103  1.4521
12987TIP3    H260377   4.012   6.515   1.617  0.4235 -0.7273 -0.6552
12988TIP3   OH260378   6.674   0.039   6.960 -0.6070  0.1071 -0.7178
12988TIP3    H160379   6.641  -0.037   7.007 -2.2048  0.9081 -0.4701
12988TIP3    H260380   6.689   0.008   6.870  2.3518 -1.3971  0.1481
12989TIP3   OH260381   2.827   3.764   6.678 -0.6433 -0.1763  0.2512
12989TIP3    H160382   2.867   3.677   6.683  0.1813  0.2287  1.0769
12989TIP3    H260383   2.755   3.754   6.617  1.3644 -0.6800 -2.1862
12990TIP3   OH260384   4.485   4.869   4.968  0.0549  0.2355 -0.2648
12990TIP3    H160385   4.450   4.860   5.056 -1.5079  1.7008 -0.6855
12990TIP3    H260386   4.533   4.952   4.970  0.4725  0.0056 -0.6520
12991TIP3   OH260387   5.576   6.317  11.934  0.7248  0.2281  0.4550
12991TIP3    H160388   5.511   6.381  11.907 -0.6924 -0.9458  0.9525
12991TIP3    H260389   5.582   6.256  11.860  0.9361  0.0735  0.5955
12992TIP3   OH260390   0.233   4.313   0.850 -0.1729 -0.5574 -0.0821
12992TIP3    H160391   0.266   4.325   0.939 -2.4159 -2.5890  1.1364
12992TIP3    H260392   0.236   4.219   0.835 -3.7870 -0.7813 -0.3930
12993TIP3   OH260393   6.411   1.682   6.818  0.2707 -0.2747  0.2688
12993TIP3    H160394   6.503   1.661   6.831  0.1817 -1.6556 -1.0161
12993TIP3    H260395   6.411   1.742   6.743  0.0298 -2.2690 -1.4289
12994TIP3   OH260396   0.895   4.819   4.045 -0.1044 -0.0347 -0.0780
12994TIP3    H160397   0.881   4.724   4.053  4.8849 -1.1361 -1.2657
12994TIP3    H260398   0.871   4.839   3.954 -0.1268 -0.3593 -0.1448
12995TIP3   OH260399   4.797   4.143  16.962 -0.1695 -0.5747 -0.1374
12995TIP3    H160400   4.741   4.161  16.886 -1.0519  1.3517  0.9084
12995TIP3    H260401   4.867   4.209  16.956  0.0053 -0.7001  0.4912
12996TIP3   OH260402   2.224   5.961   3.411 -0.1098 -0.0849  0.2251
12996TIP3    H160403   2.168   5.885   3.423 -0.3696  0.2006  0.8959
12996TIP3    H260404   2.261   5.977   3.498  1.5865 -0.6954 -0.3512
12997TIP3   OH260405   3.109   1.678  14.459 -0.1513 -0.1263  0.1256
12997TIP3    H160406   3.180   1.614  14.449  1.2815  1.3392  0.3966
12997TIP3    H260407   3.042   1.650  14.397  0.1129 -2.2601  0.7281
12998TIP3   OH260408   3.505   0.605   3.795  0.4460  0.1476 -0.6254
12998TIP3    H160409   3.550   0.561   3.723  0.1197 -0.3814 -0.5066
12998TIP3    H260410   3.527   0.553   3.872 -2.9451 -2.0588 -0.9945
12999TIP3   OH260411   5.064   0.331   0.402  0.3165 -0.3168  0.7914
12999TIP3    H160412   5.112   0.365   0.477 -0.5173  1.2535  0.6572
12999TIP3    H260413   4.979   0.306   0.437 -0.4112  1.2863  0.2568
13000TIP3   OH260414   1.422   5.010   3.686  0.7202 -0.3845  0.3444
13000TIP3    H160415   1.423   4.968   3.600  0.0293  2.3059 -1.0903
13000TIP3    H260416   1.506   4.986   3.725  1.5165 -0.8657 -1.5249
13001TIP3   OH260417   4.832   0.421  13.108 -0.0339 -0.1439 -0.2821
13001TIP3    H160418   4.814   0.337  13.150  1.2104 -0.1606  0.2661
13001TIP3    H260419   4.828   0.485  13.178  0.3271  0.0665 -0.4473
13002TIP3   OH260420   3.182   3.516  13.966 -0.1187  0.0724 -0.5162
13002TIP3    H160421   3.126   3.569  13.910  1.5465  0.6804 -1.6678
13002TIP3    H260422   3.271   3.536  13.938  0.7842 -0.0329  1.9665
13003TIP3   OH260423   2.702   6.614   2.274  0.5969  0.6530 -0.3055
13003TIP3    H160424   2.716   6.635   2.182  0.8160  0.5008 -0.3068
13003TIP3    H260425   2.769   6.664   2.321  1.3717 -0.3266 -0.3374
13004TIP3   OH260426   2.070   1.850  12.825 -0.5237 -0.0550  0.2175
13004TIP3    H160427   2.071   1.944  12.843 -2.8906  0.1319 -0.2897
13004TIP3    H260428   2.153   1.833  12.781  0.4617  1.5540  1.3679
13005TIP3   OH260429   0.564   4.134  12.658  0.3099 -0.5521 -0.3917
13005TIP3    H160430   0.481   4.085  12.655 -0.3651  0.5689 -0.3306
13005TIP3    H260431   0.614   4.099  12.584  0.0331 -1.6526 -0.0909
13006TIP3   OH260432   3.595   2.143  16.952 -0.0264  0.4813  0.4006
13006TIP3    H160433   3.572   2.201  17.024 -0.6195  3.5486 -2.0256
13006TIP3    H260434   3.515   2.093  16.936 -0.5937  1.2911  0.5876
13007TIP3   OH260435   1.884   1.096   3.011 -0.0509 -0.7381 -0.2910
13007TIP3    H160436   1.810   1.108   3.071  0.3432  2.4171 -0.2404
13007TIP3    H260437   1.906   1.185   2.983  4.8374 -1.2198  1.0832
13008TIP3   OH260438   5.149   5.232  11.973 -0.3978 -0.2731 -0.0904
13008TIP3    H160439   5.132   5.148  12.017  1.7671 -1.1657 -0.7720
13008TIP3    H260440   5.075   5.243  11.913 -1.2976 -1.1022  0.8197
13009TIP3   OH260441   3.796   4.707  13.210 -0.2264 -0.4489  0.0101
13009TIP3    H160442   3.844   4.746  13.137  1.0496 -0.2483  0.9124
13009TIP3    H260443   3.705   4.735  13.197  0.5705  2.8922  0.5523
13010TIP3   OH260444   2.903   0.951   2.509  0.1316  0.1948  0.6909
13010TIP3    H160445   2.983   0.948   2.562  0.1614  1.1838  0.7094
13010TIP3    H260446   2.862   0.866   2.523  1.4287 -0.5373  0.2969
13011TIP3   OH260447   2.703   3.293   3.291 -0.7157  0.5715  0.0570
13011TIP3    H160448   2.759   3.288   3.213 -1.4361  0.1671 -0.4472
13011TIP3    H260449   2.671   3.383   3.291 -0.1661  0.7727  0.2838
13012TIP3   OH260450   4.600   5.239  16.816  0.3159  0.1549 -0.2236
13012TIP3    H160451   4.654   5.272  16.887 -2.1465 -0.5198  2.1234
13012TIP3    H260452   4.611   5.144  16.819 -1.1235 -0.0158  0.4804
13013TIP3   OH260453   2.601   3.676  16.230  0.3485 -0.0786  0.3323
13013TIP3    H160454   2.542   3.654  16.158  0.8257  0.8068 -0.3516
13013TIP3    H260455   2.668   3.608  16.228 -0.3066 -0.7488  0.7317
13014TIP3   OH260456   6.270   4.245   0.983  0.4209 -0.4457 -0.3528
13014TIP3    H160457   6.259   4.300   0.905  0.2898  0.3939  0.2323
13014TIP3    H260458   6.364   4.248   1.001  0.2473  0.8176  0.5083
13015TIP3   OH260459   6.462   3.210  13.529 -0.5438  0.0923 -0.0921
13015TIP3    H160460   6.531   3.276  13.526 -1.0021  0.6963  1.3584
13015TIP3    H260461   6.426   3.218  13.618 -1.7892 -0.9050 -0.4789
13016TIP3   OH260462   2.923   6.270   2.790  0.6689  0.2617  0.4758
13016TIP3    H160463   2.923   6.250   2.696 -0.3515 -1.4936  0.8153
13016TIP3    H260464   3.015   6.259   2.816  0.8360  0.0432 -0.1713
13017TIP3   OH260465   1.194   0.500   5.459  0.3410 -0.1642  0.0151
13017TIP3    H160466   1.222   0.579   5.505  0.5359 -0.5420  0.5592
13017TIP3    H260467   1.219   0.428   5.518 -0.2385 -0.6037 -0.2685
13018TIP3   OH260468   6.735   1.898  16.615  1.0329  0.9330 -0.0282
13018TIP3    H160469   6.744   1.817  16.666 -0.4624  0.6817 -0.1223
13018TIP3    H260470   6.774   1.877  16.530 -0.6989 -0.2601 -0.5999
13019TIP3   OH260471   5.835   1.163  14.768  0.3715 -0.3370 -0.4879
13019TIP3    H160472   5.855   1.070  14.752  0.5700 -0.2077 -1.0025
13019TIP3    H260473   5.740   1.169  14.759  0.4027 -0.4097 -0.8953
13020TIP3   OH260474   0.937   4.404  15.379  0.9065  0.0714  0.0827
13020TIP3    H160475   0.850   4.442  15.387  1.4948  1.4744  0.0662
13020TIP3    H260476   0.997   4.473  15.407  2.1788  0.1465 -2.4678
13021TIP3   OH260477   0.363   6.647   3.762  0.2005 -0.1998 -0.3929
13021TIP3    H160478   0.356   6.685   3.674  0.7345  0.2272 -0.2560
13021TIP3    H260479   0.284   6.594   3.772  0.1536 -0.2740 -1.1424
13022TIP3   OH260480   3.964   2.863  13.592  0.2108  0.0221  0.0879
13022TIP3    H160481   4.042   2.808  13.584 -0.6217 -0.9706 -1.8822
13022TIP3    H260482   3.912   2.821  13.660  0.9234  0.1026  0.6911
13023TIP3   OH260483   5.329   4.800  11.312  0.2398  0.5462 -0.5445
13023TIP3    H160484   5.389   4.725  11.316  1.1021  1.2254 -0.2617
13023TIP3    H260485   5.387   4.876  11.315 -0.6747  1.2309  0.2058
13024TIP3   OH260486   3.902   2.593   2.629  0.1973 -0.5434  0.5093
13024TIP3    H160487   3.873   2.502   2.636 -0.5826 -0.1905  2.1455
13024TIP3    H260488   3.940   2.613   2.714  0.5263  0.6293  0.1058
13025TIP3   OH260489   0.772   2.847   4.255  0.0370 -0.0275  0.7224
13025TIP3    H160490   0.780   2.752   4.269  1.6370  0.2616  2.0319
13025TIP3    H260491   0.679   2.860   4.237 -0.1383 -1.8963 -0.0187
13026TIP3   OH260492   1.288   0.543  14.416 -0.1758  0.4085 -0.5386
13026TIP3    H160493   1.267   0.604  14.345 -0.8967  1.4189  0.4973
13026TIP3    H260494   1.257   0.458  14.384 -0.7035  0.8807 -1.3377
13027TIP3   OH260495   4.768   1.417  10.659 -0.2524  0.5493  0.4395
13027TIP3    H160496   4.788   1.409  10.566 -2.5806  1.1526 -0.1774
13027TIP3    H260497   4.796   1.506  10.682 -0.6952  0.8088  0.0062
13028TIP3   OH260498   0.073   6.284  13.509 -0.0984 -0.3654 -0.1838
13028TIP3    H160499   0.094   6.296  13.602 -0.0471 -1.8245  0.0186
13028TIP3    H260500   0.065   6.189  13.499 -1.9399 -0.1245 -1.2880
13029TIP3   OH260501   6.302   6.689  13.154  0.0561 -0.5210  0.2252
13029TIP3    H160502   6.390   6.657  13.133 -0.0203  0.8116 -2.5971
13029TIP3    H260503   6.270   6.629  13.221  3.2590 -0.7762  1.7074
13030TIP3   OH260504   0.353   0.890  13.250  0.4439  0.2770  0.0122
13030TIP3    H160505   0.363   0.963  13.189 -0.3984  0.1003 -0.3500
13030TIP3    H260506   0.259   0.885  13.266  0.4672 -0.8769 -0.1532
13031TIP3   OH260507   2.416   3.815  11.501  0.1381 -0.2523  0.2286
13031TIP3    H160508   2.503   3.829  11.537  0.0501  0.5057  0.1479
13031TIP3    H260509   2.359   3.808  11.577  0.3486 -1.4162  0.3105
13032TIP3   OH260510   1.093   0.089   4.302 -0.7034  0.2415  0.3517
13032TIP3    H160511   1.167   0.106   4.361 -0.8558  0.7193  0.4116
13032TIP3    H260512   1.029   0.043   4.357 -0.1094 -0.9530  0.0739
13033TIP3   OH260513   3.214   0.582  12.639 -0.3710 -0.1189 -0.5383
13033TIP3    H160514   3.246   0.630  12.715 -0.4394  0.6922 -1.0176
13033TIP3    H260515   3.291   0.535  12.607 -0.0055  0.6711 -0.8198
13034TIP3   OH260516   3.232   4.305   0.692  0.0436  0.0560 -0.0792
13034TIP3    H160517   3.171   4.232   0.687  1.5656 -1.1772 -2.4454
13034TIP3    H260518   3.247   4.330   0.601 -0.2605  3.2419  0.6410
13035TIP3   OH260519   0.819   4.605  15.864  0.4462 -0.8843  0.0941
13035TIP3    H160520   0.825   4.554  15.945 -2.5119 -2.4854 -0.5609
13035TIP3    H260521   0.867   4.685  15.883  0.5526 -1.5379  3.1383
13036TIP3   OH260522   2.066   1.840   5.646  0.7835 -0.0032 -0.2396
13036TIP3    H160523   2.014   1.919   5.663  0.0033 -0.6588  0.5044
13036TIP3    H260524   2.117   1.861   5.568 -1.3130  0.3312 -1.5947
13037TIP3   OH260525   5.047   5.031   4.905  0.0665 -0.1615  0.4422
13037TIP3    H160526   4.994   4.951   4.902 -0.8128  0.3967  0.6558
13037TIP3    H260527   5.136   5.000   4.920  0.1998 -1.2962 -2.0759
13038TIP3   OH260528   2.657   2.726  13.197 -0.0862 -0.2584  0.0498
13038TIP3    H160529   2.601   2.698  13.124  0.5904 -0.1879 -0.5154
13038TIP3    H260530   2.712   2.795  13.159 -1.6043  1.7932  1.3701
13039TIP3   OH260531   3.919   0.984   1.863 -0.2299  0.3937  0.0569
13039TIP3    H160532   3.923   1.030   1.778  0.6361 -0.3484 -0.3231
13039TIP3    H260533   3.916   0.891   1.840 -0.0781  0.1883  0.8382
13040TIP3   OH260534   5.489   0.352   6.011  0.2876  0.2064  0.1627
13040TIP3    H160535   5.524   0.421   6.067  1.2556 -1.1913  1.3949
13040TIP3    H260536   5.567   0.312   5.972  0.0432 -1.8105  1.5319
13041TIP3   OH260537   0.902   0.393  13.551 -0.0512  0.5026  0.1387
13041TIP3    H160538   0.881   0.438  13.469  1.9109  1.1074 -0.0833
13041TIP3    H260539   0.986   0.430  13.578 -0.2897 -0.2316  2.0497
13042TIP3   OH260540   0.319   2.090  13.421  0.1234 -0.2554  0.1577
13042TIP3    H160541   0.270   2.077  13.340 -1.3825 -0.4364  1.0593
13042TIP3    H260542   0.278   2.165  13.463  0.7652 -0.2693  0.8449
13043TIP3   OH260543   4.240   6.342  15.909  0.4566 -0.4500  0.4226
13043TIP3    H160544   4.145   6.351  15.914  0.4099 -0.2911 -0.6300
13043TIP3    H260545   4.254   6.253  15.877  0.7573 -1.5881  3.4098
13044TIP3   OH260546   0.474   6.366   3.025 -0.0753 -0.2820 -0.3418
13044TIP3    H160547   0.399   6.365   2.965 -0.3649  0.3470  0.0011
13044TIP3    H260548   0.532   6.297   2.991 -1.0994 -1.2381 -0.2278
13045TIP3   OH260549   2.884   4.172  15.043  0.3982  0.6350  0.8176
13045TIP3    H160550   2.831   4.130  14.975  1.6137  1.6145 -0.8248
13045TIP3    H260551   2.820   4.213  15.101 -0.6916  1.2237 -0.7151
13046TIP3   OH260552   1.899   0.539   5.036 -0.0492  0.1238 -0.3193
13046TIP3    H160553   1.896   0.502   5.125 -1.4005  2.3255  0.6334
13046TIP3    H260554   1.814   0.518   4.999  0.7468 -1.3525 -1.3936
13047TIP3   OH260555   6.760   3.738   3.217  0.1080  0.7359  0.3887
13047TIP3    H160556   6.848   3.708   3.192 -1.7673 -3.8139 -1.7275
13047TIP3    H260557   6.727   3.781   3.138 -1.1879 -2.1092 -0.7633
13048TIP3   OH260558   1.367   1.918  13.170  0.3153 -0.0622 -0.0550
13048TIP3    H160559   1.277   1.888  13.185 -0.4787  2.3055  0.3097
13048TIP3    H260560   1.389   1.886  13.083  0.0278 -2.6360  0.7304
13049TIP3   OH260561   0.708   2.161   3.623  0.1804  0.4466  0.2346
13049TIP3    H160562   0.717   2.256   3.625  0.1159  0.4798  3.1252
13049TIP3    H260563   0.798   2.128   3.627  0.4448  0.2257 -3.8414
13050TIP3   OH260564   5.513   5.131  16.726  0.5296 -0.2734  0.4606
13050TIP3    H160565   5.518   5.224  16.705 -2.0124 -0.4843 -1.5362
13050TIP3    H260566   5.545   5.086  16.648 -2.6821 -1.0275 -0.5826
13051TIP3   OH260567   0.154   5.910  15.748 -0.5675  0.4792 -0.2961
13051TIP3    H160568   0.060   5.924  15.760 -0.6408 -1.0957  1.5409
13051TIP3    H260569   0.195   5.978  15.800 -0.8117 -1.1599  2.2126
13052TIP3   OH260570   1.624   6.670   2.245 -0.5689  0.3421 -0.2533
13052TIP3    H160571   1.547   6.685   2.300 -0.4440 -2.0954  0.7005
13052TIP3    H260572   1.588   6.627   2.167 -0.2032 -0.6666  0.1288
13053TIP3   OH260573   0.060   3.828   1.097  0.2504 -0.7086 -0.1983
13053TIP3    H160574   0.095   3.915   1.112  0.1642 -0.6090 -0.5581
13053TIP3    H260575   0.060   3.786   1.183 -1.2096  0.2100  0.2797
13054TIP3   OH260576   3.888   5.097   2.058 -0.3163  0.1629 -0.1042
13054TIP3    H160577   3.958   5.058   2.004 -0.2876  0.8975 -0.6219
13054TIP3    H260578   3.813   5.039   2.046 -0.3122  0.3226 -0.9684
13055TIP3   OH260579   5.254   0.606  15.295 -0.0283 -0.0764  0.0758
13055TIP3    H160580   5.214   0.523  15.270 -1.6659  0.3773  0.9722
13055TIP3    H260581   5.204   0.634  15.373  1.0017  1.3468  0.2719
13056TIP3   OH260582   3.960   6.400  13.017  0.3896  0.1988 -0.4521
13056TIP3    H160583   4.016   6.415  12.940  1.4794  2.6263  0.7022
13056TIP3    H260584   3.997   6.322  13.058 -0.1300 -1.0680 -2.2681
13057TIP3   OH260585   2.674   4.448  11.542 -0.1936 -0.0472 -0.3682
13057TIP3    H160586   2.725   4.520  11.578  0.2814 -0.2130 -0.7016
13057TIP3    H260587   2.698   4.445  11.450 -0.7039 -0.2162 -0.5011
13058TIP3   OH260588   4.164   1.666   5.020 -0.0911  0.0042  0.2453
13058TIP3    H160589   4.121   1.721   5.086  1.0469 -0.3121  1.2693
13058TIP3    H260590   4.151   1.577   5.051 -0.1806 -0.1994 -0.3597
13059TIP3   OH260591   2.095   0.221   2.128 -0.4676 -0.4424 -0.0813
13059TIP3    H160592   2.084   0.222   2.223 -1.1344  0.6606 -0.1560
13059TIP3    H260593   2.013   0.254   2.094 -0.2185 -0.7979 -1.0542
13060TIP3   OH260594   5.722   3.900   1.460  0.3696  0.3557  0.0169
13060TIP3    H160595   5.798   3.860   1.417  0.4049 -0.5119  0.8470
13060TIP3    H260596   5.699   3.974   1.404  0.8065 -0.3514 -1.1379
13061TIP3   OH260597   0.145   1.449   1.315  0.6353  0.1084  0.1656
13061TIP3    H160598   0.187   1.462   1.231 -0.8501 -1.4771 -0.9168
13061TIP3    H260599   0.209   1.477   1.380  2.8774 -1.1230 -1.4040
13062TIP3   OH260600   1.376   2.372  15.723  0.1257 -0.0625 -0.1389
13062TIP3    H160601   1.407   2.459  15.749 -0.0376  0.1248 -0.5659
13062TIP3    H260602   1.410   2.314  15.791 -0.0585  0.3836  0.3464
13063TIP3   OH260603   2.916   4.876  13.772 -0.0283 -0.0409  0.8547
13063TIP3    H160604   2.923   4.782  13.754  0.0631 -0.0545  0.9644
13063TIP3    H260605   2.988   4.895  13.831  0.8444  0.3835 -0.3169
13064TIP3   OH260606   2.523   5.013  13.900 -0.4676 -0.1996  0.3567
13064TIP3    H160607   2.583   4.960  13.953  1.3029  1.6035  0.3107
13064TIP3    H260608   2.468   5.058  13.965 -0.0383  0.0461  0.5601
13065TIP3   OH260609   0.010   1.208  13.432 -0.0817 -0.2370 -0.4154
13065TIP3    H160610   0.024   1.113  13.428  0.9282 -0.0799 -0.7366
13065TIP3    H260611   0.018   1.238  13.342  1.5657  0.4034 -0.1010
13066TIP3   OH260612   6.382   3.593  13.557  0.0586  0.0023  0.0559
13066TIP3    H160613   6.454   3.654  13.571  0.3072 -0.4029  0.5765
13066TIP3    H260614   6.402   3.549  13.475  1.7154 -1.8937  1.3994
13067TIP3   OH260615   5.204   2.933  14.498  0.1750  0.1581  0.3330
13067TIP3    H160616   5.173   3.024  14.491 -0.8094 -0.2526 -1.1162
13067TIP3    H260617   5.292   2.934  14.461  0.3184  0.5818  0.6754
13068TIP3   OH260618   5.468   6.055  15.753 -0.2875  0.2163 -0.1216
13068TIP3    H160619   5.532   6.106  15.803 -1.2688 -0.1926  1.6202
13068TIP3    H260620   5.506   5.967  15.747  0.5221  0.6270 -1.4634
13069TIP3   OH260621   5.716   2.875  11.546  0.2976  0.3277 -0.5828
13069TIP3    H160622   5.750   2.789  11.571 -0.7280 -0.2699 -1.1687
13069TIP3    H260623   5.648   2.856  11.482  1.1855  1.6957 -1.9822
13070TIP3   OH260624   1.864   2.170  16.916  0.1401 -0.2080 -0.1825
13070TIP3    H160625   1.852   2.093  16.972  0.4494 -1.9727 -2.3702
13070TIP3    H260626   1.893   2.239  16.975 -0.2700 -1.7263  1.9052
13071TIP3   OH260627   4.013   3.569   3.420 -0.5738  0.5057  0.3111
13071TIP3    H160628   4.053   3.557   3.333  0.9196 -1.1471  1.1697
13071TIP3    H260629   4.072   3.524   3.480 -3.1180 -0.9619  1.8558
13072TIP3   OH260630   3.327   6.565   0.955 -0.2553 -0.1027 -0.5128
13072TIP3    H160631   3.274   6.566   0.876 -1.8978 -1.7000  0.4842
13072TIP3    H260632   3.285   6.500   1.011  1.2707  0.4587  1.3947
13073TIP3   OH260633   1.811   5.334  17.203  0.0885 -0.3686  0.5629
13073TIP3    H160634   1.799   5.292  17.288 -0.3625  1.0174  1.2212
13073TIP3    H260635   1.905   5.330  17.187  0.3234  0.2739  1.6512
13074TIP3   OH260636   4.945   5.253   5.017  0.1459 -0.0321 -0.4768
13074TIP3    H160637   4.868   5.217   4.972  0.5413 -1.2192 -0.2344
13074TIP3    H260638   5.018   5.201   4.984  0.5058 -0.6351  1.1977
13075TIP3   OH260639   2.760   6.245  11.472 -0.4336 -0.2044 -0.8232
13075TIP3    H160640   2.748   6.213  11.562 -1.0627  0.6635 -0.5888
13075TIP3    H260641   2.818   6.181  11.432  0.5080 -0.1760  0.4430
13076TIP3   OH260642   4.513   5.105   1.888 -0.0681 -0.1733 -0.1685
13076TIP3    H160643   4.602   5.072   1.899  0.3611  0.8580 -0.4119
13076TIP3    H260644   4.497   5.158   1.965 -0.0601  0.5169 -0.6293
13077TIP3   OH260645   0.015   2.222   2.224 -0.4466  0.1319 -0.0945
13077TIP3    H160646  -0.022   2.267   2.148 -1.9665  0.4505  0.7774
13077TIP3    H260647  -0.060   2.210   2.283  1.0964  2.5635  2.6892
13078TIP3   OH260648   6.133   5.475  12.802 -0.2014  0.5522  0.2348
13078TIP3    H160649   6.208   5.422  12.775  0.6894  1.7091  0.3435
13078TIP3    H260650   6.065   5.411  12.823  0.6613 -0.5212 -0.1225
13079TIP3   OH260651   2.098   1.007   3.885 -0.1199 -0.3585 -0.4222
13079TIP3    H160652   2.156   1.013   3.961 -0.3006 -1.2347 -0.2097
13079TIP3    H260653   2.155   1.026   3.810 -0.0089  0.8509 -0.0623
13080TIP3   OH260654   3.757   0.727   2.647  0.8918 -0.0309  0.1238
13080TIP3    H160655   3.816   0.747   2.720 -2.0044  0.6657  2.4717
13080TIP3    H260656   3.753   0.632   2.645 -2.2226 -0.2689  4.0309
13081TIP3   OH260657   0.831   6.437   2.528 -0.2015 -0.3063  0.0554
13081TIP3    H160658   0.857   6.386   2.605  2.6046  0.2646 -0.4153
13081TIP3    H260659   0.775   6.506   2.564 -0.4429 -1.1222  1.3182
13082TIP3   OH260660   2.149   0.525  14.321 -0.4458  0.1139 -0.3063
13082TIP3    H160661   2.202   0.468  14.265  1.1059 -0.3103  1.5022
13082TIP3    H260662   2.208   0.596  14.345 -2.1710  2.2895 -2.0490
13083TIP3   OH260663   6.563   1.924   2.157  0.4226  0.7214  0.0251
13083TIP3    H160664   6.657   1.931   2.143  0.9215 -1.3766  1.6891
13083TIP3    H260665   6.546   1.977   2.234  0.6450 -0.4501  0.9087
13084TIP3   OH260666   3.654   4.483  16.724 -0.0962  0.0098 -0.0743
13084TIP3    H160667   3.747   4.490  16.744 -0.0197 -1.3295  0.1654
13084TIP3    H260668   3.623   4.412  16.780 -1.0387 -0.2237 -0.8548
13085TIP3   OH260669   3.822   5.854  14.473  0.2361 -0.1010  0.9434
13085TIP3    H160670   3.737   5.877  14.512 -0.9051 -1.6068 -0.5115
13085TIP3    H260671   3.828   5.911  14.396 -0.0314 -0.8073  0.3904
13086TIP3   OH260672   6.763   6.529  12.078 -0.4188 -0.8357  0.0951
13086TIP3    H160673   6.714   6.490  12.005  0.3213 -2.2024  0.3080
13086TIP3    H260674   6.826   6.462  12.104 -0.0994 -0.0465  1.4548
13087TIP3   OH260675   5.768   3.858   4.348 -0.3112 -0.3501 -0.6538
13087TIP3    H160676   5.812   3.852   4.433 -0.2326 -0.4718 -0.7036
13087TIP3    H260677   5.675   3.862   4.370 -0.2458  0.8957 -0.4914
13088TIP3   OH260678   0.788   5.894   3.048  0.2491 -0.6576 -0.1174
13088TIP3    H160679   0.836   5.812   3.060 -0.1517 -0.7329  1.0969
13088TIP3    H260680   0.855   5.962   3.055  0.7395 -0.8705 -2.0426
13089TIP3   OH260681   6.224   3.707  12.353 -0.3266 -0.3937 -0.2904
13089TIP3    H160682   6.174   3.769  12.406 -2.6563 -1.9677 -0.4937
13089TIP3    H260683   6.234   3.750  12.268  0.1103  0.6129  0.2566
13090TIP3   OH260684   5.247   4.592   0.011  0.4792  0.0098  0.2303
13090TIP3    H160685   5.266   4.677  -0.030  0.9902  0.0243  0.4885
13090TIP3    H260686   5.327   4.570   0.058  0.0753 -0.2519  0.8061
13091TIP3   OH260687   2.118   3.949  13.354  0.4536 -0.9208 -0.2573
13091TIP3    H160688   2.075   4.021  13.308  1.6573  0.0521  0.0837
13091TIP3    H260689   2.158   3.897  13.285  1.5428  0.0590 -0.3825
13092TIP3   OH260690   1.281   4.420  14.616  0.0668  0.1547 -0.3414
13092TIP3    H160691   1.200   4.452  14.576  0.6619  1.6369 -0.4088
13092TIP3    H260692   1.320   4.366  14.547 -1.3644 -1.5160  0.0776
13093TIP3   OH260693   5.940   5.285   0.168  0.0970 -0.1220 -0.2058
13093TIP3    H160694   5.993   5.206   0.160  2.3101  1.3290 -0.8713
13093TIP3    H260695   5.954   5.316   0.257 -2.6775 -1.6439  0.8858
13094TIP3   OH260696   1.677   2.861  11.521  0.3894  0.8325  0.5052
13094TIP3    H160697   1.691   2.954  11.503  0.4731  0.5865 -0.8146
13094TIP3    H260698   1.745   2.816  11.470 -1.1168 -0.0595 -0.8162
13095TIP3   OH260699   6.620   3.950  14.173 -0.0658  0.6479 -0.1085
13095TIP3    H160700   6.647   4.032  14.133 -1.0830  0.2918 -1.6098
13095TIP3    H260701   6.601   3.973  14.264  1.5618  1.6420  0.0153
13096TIP3   OH260702   3.216   0.248  11.818  0.3970  0.1495 -0.5193
13096TIP3    H160703   3.147   0.193  11.781 -2.2423  3.6345 -1.3235
13096TIP3    H260704   3.221   0.220  11.910 -1.3407 -0.9661 -0.7011
13097TIP3   OH260705   4.120   4.089  11.668  0.2843  0.2677  0.1707
13097TIP3    H160706   4.208   4.118  11.692 -0.6120  1.6540  2.0219
13097TIP3    H260707   4.070   4.171  11.658 -1.6388 -0.4685  2.7368
13098TIP3   OH260708   4.005   0.698   5.265 -0.9011  0.0615  0.0693
13098TIP3    H160709   3.967   0.786   5.263 -0.4998  0.2339 -0.0809
13098TIP3    H260710   4.098   0.712   5.281 -0.2683 -0.1226 -2.8183
13099TIP3   OH260711   5.090   2.156   2.006  0.1320 -0.2969  0.0510
13099TIP3    H160712   4.995   2.166   2.017  0.0151 -1.3009  0.1069
13099TIP3    H260713   5.123   2.245   1.999 -1.4463  0.2763 -5.5778
13100TIP3   OH260714   3.862   1.167   1.658 -0.5749 -0.1011 -0.3193
13100TIP3    H160715   3.940   1.219   1.636 -0.6251 -0.0221 -0.3103
13100TIP3    H260716   3.794   1.232   1.675 -0.5365 -0.1618  0.0804
13101TIP3   OH260717   0.312   4.671  13.808  0.5032  0.5167  0.1561
13101TIP3    H160718   0.298   4.577  13.795  0.7518  0.7259 -2.0735
13101TIP3    H260719   0.405   4.679  13.831  0.2910  0.1834  1.1875
13102TIP3   OH260720   1.394   1.248   3.717 -0.1681 -0.1122 -0.1161
13102TIP3    H160721   1.323   1.255   3.653  0.7798 -3.0495 -1.6909
13102TIP3    H260722   1.352   1.266   3.801 -2.0211  1.4010 -1.2730
13103TIP3   OH260723   3.132   3.328   0.861  0.6232 -0.1276 -0.0994
13103TIP3    H160724   3.191   3.301   0.932  0.6836  0.2091 -0.0200
13103TIP3    H260725   3.170   3.409   0.827  1.2300 -0.8848 -1.2905
13104TIP3   OH260726   0.412   3.791   2.409 -0.0104 -0.2948  0.2667
13104TIP3    H160727   0.430   3.712   2.460 -1.8280 -0.1774  1.1914
13104TIP3    H260728   0.446   3.863   2.462  0.9814 -0.3755 -0.2319
13105TIP3   OH260729   5.211   6.067  17.027  0.5042  0.2268 -0.1843
13105TIP3    H160730   5.117   6.085  17.023  0.3392 -0.6421 -0.3854
13105TIP3    H260731   5.253   6.152  17.016 -0.2497  0.5386 -0.6485
13106TIP3   OH260732   6.292   1.646   4.858  0.3688  0.1217  0.1397
13106TIP3    H160733   6.339   1.716   4.903  0.4060  0.7950 -0.9180
13106TIP3    H260734   6.204   1.648   4.896 -0.1535  1.8925 -1.0445
13107TIP3   OH260735   3.749   4.933   2.392  0.0254 -0.5643 -1.1676
13107TIP3    H160736   3.770   4.868   2.325 -0.2234  1.3092 -3.1923
13107TIP3    H260737   3.828   4.986   2.400 -0.8078  0.8748 -2.0278
13108TIP3   OH260738   6.361   3.322   6.480  0.2435 -0.0614  0.5726
13108TIP3    H160739   6.326   3.393   6.535  0.3172 -0.9077  1.7557
13108TIP3    H260740   6.377   3.363   6.395  0.5583  1.4137  1.3072
13109TIP3   OH260741   3.779   0.614  11.978 -0.4155  0.1011  0.4120
13109TIP3    H160742   3.802   0.603  12.071 -0.5811  0.2257  0.4697
13109TIP3    H260743   3.862   0.637  11.936 -0.5101  1.0766  0.7095
13110TIP3   OH260744   4.769   3.312  16.403 -0.2181 -0.2252  0.5504
13110TIP3    H160745   4.695   3.270  16.359  1.7666 -1.3111 -1.9441
13110TIP3    H260746   4.745   3.405  16.406 -2.0785 -0.6628  0.7471
13111TIP3   OH260747   1.979   0.788  11.318 -0.5310 -0.1458  0.1170
13111TIP3    H160748   1.896   0.834  11.305 -0.5234 -0.2638 -0.4126
13111TIP3    H260749   1.994   0.743  11.234 -0.2936 -0.7056  0.4502
13112TIP3   OH260750   2.435   0.487  13.214 -0.2063  0.0373 -0.0153
13112TIP3    H160751   2.432   0.438  13.132  1.7475  1.7545 -1.2154
13112TIP3    H260752   2.392   0.429  13.278 -1.1221 -1.6752 -2.0494
13113TIP3   OH260753   3.122   5.864   3.715 -0.4802 -0.1729  0.0673
13113TIP3    H160754   3.101   5.813   3.638  0.7211 -2.6250  1.2517
13113TIP3    H260755   3.086   5.814   3.788 -1.1994  1.8469  1.1828
13114TIP3   OH260756   2.303   6.368  14.818  0.2727 -0.3971  0.2332
13114TIP3    H160757   2.337   6.377  14.729 -1.0762  2.3451 -0.1125
13114TIP3    H260758   2.350   6.434  14.869 -1.0385  0.1065  0.8358
13115TIP3   OH260759   0.692   2.371  15.692  0.1386 -0.2493 -0.3508
13115TIP3    H160760   0.706   2.433  15.764 -3.9986  1.0183 -0.4035
13115TIP3    H260761   0.613   2.403  15.649 -1.1735 -4.5579 -1.5428
13116TIP3   OH260762   2.794   1.352  14.583  0.7372  0.2521 -0.4183
13116TIP3    H160763   2.712   1.323  14.623  0.3317 -1.1889 -2.1250
13116TIP3    H260764   2.770   1.430  14.533  1.1415  1.7567  1.6347
13117TIP3   OH260765   1.018   2.204  13.519  0.4213  0.3956  0.2627
13117TIP3    H160766   0.958   2.168  13.585  0.2658  1.5701  0.7796
13117TIP3    H260767   0.982   2.172  13.436 -0.2051  0.0631  0.6468
13118TIP3   OH260768   3.942   6.036  16.563  0.0811  0.0197  0.1074
13118TIP3    H160769   4.016   6.047  16.503 -0.9821 -0.6430 -1.3778
13118TIP3    H260770   3.925   5.942  16.563 -0.8700  0.1852  0.3000
13119TIP3   OH260771   4.511   1.026  16.677  0.2508  0.0203  0.1570
13119TIP3    H160772   4.586   1.042  16.733  0.1079 -2.0068  1.0243
13119TIP3    H260773   4.494   0.932  16.685 -2.4158  0.3909  0.0670
13120TIP3   OH260774   4.505   1.677   0.065 -0.0723  0.2555  0.4507
13120TIP3    H160775   4.478   1.585   0.057 -0.1961  0.3720 -0.8414
13120TIP3    H260776   4.581   1.675   0.122  1.6721 -1.0369 -1.7626
13121TIP3   OH260777   3.912   5.363  11.797  0.0645  0.2212 -0.2272
13121TIP3    H160778   3.966   5.285  11.816 -0.5138  0.0862  0.9206
13121TIP3    H260779   3.884   5.394  11.883 -0.7158  0.9957 -0.7537
13122TIP3   OH260780   1.210   4.872   4.896 -0.1142 -0.3810  0.1099
13122TIP3    H160781   1.222   4.795   4.840 -0.6653 -0.5220  0.1732
13122TIP3    H260782   1.180   4.941   4.836 -0.3322 -0.4240  0.1686
13123TIP3   OH260783   4.624   0.658  11.818 -0.1692 -0.4615 -0.1624
13123TIP3    H160784   4.569   0.708  11.878  1.9096  1.5190  0.2374
13123TIP3    H260785   4.649   0.580  11.868 -0.7056 -0.2051  0.5106
13124TIP3   OH260786   5.706   0.094   3.959  0.5301 -0.2856 -0.3199
13124TIP3    H160787   5.730   0.186   3.966 -0.8857  0.1024 -0.1585
13124TIP3    H260788   5.789   0.047   3.957  1.2761  1.0029 -0.5652
13125TIP3   OH260789   1.444   6.303  13.634  0.4189 -0.1205  0.3180
13125TIP3    H160790   1.495   6.374  13.672  0.0333 -0.8479  2.2883
13125TIP3    H260791   1.499   6.225  13.644 -0.1405 -0.5159  0.3990
13126TIP3   OH260792   5.311   4.078  13.368  0.1425 -0.6534  0.2300
13126TIP3    H160793   5.318   4.165  13.328  1.1560 -0.5045  0.7010
13126TIP3    H260794   5.297   4.019  13.294  0.6327 -0.2231 -0.2192
13127TIP3   OH260795   5.852   2.957  15.762  0.3502  0.0375  0.1591
13127TIP3    H160796   5.839   3.052  15.761 -0.7127 -0.1034 -0.3488
13127TIP3    H260797   5.846   2.933  15.854  1.0616  0.5148  0.3372
13128TIP3   OH260798   2.829   3.674   1.511  0.0717  0.2765 -0.1887
13128TIP3    H160799   2.844   3.766   1.535 -1.6312  0.5752 -0.1163
13128TIP3    H260800   2.871   3.624   1.581 -0.6539  1.0579  0.8442
13129TIP3   OH260801   1.029   5.069   6.492  0.2194  0.1268  0.7087
13129TIP3    H160802   1.058   4.993   6.542 -0.9025 -1.1186 -0.4471
13129TIP3    H260803   0.948   5.040   6.449 -0.1577  1.9261  0.1003
13130TIP3   OH260804   0.045   5.425   5.316  0.2379 -0.3246 -0.1058
13130TIP3    H160805  -0.046   5.412   5.341 -0.0933 -2.6842 -2.1739
13130TIP3    H260806   0.041   5.486   5.242  0.4563  0.4532  0.5183
13131TIP3   OH260807   0.873   4.456   4.508  0.6212  0.4406  0.0110
13131TIP3    H160808   0.816   4.385   4.479  1.3178  0.1020 -0.5473
13131TIP3    H260809   0.836   4.534   4.467  0.2432  0.3091  0.0916
13132TIP3   OH260810   0.885   5.552   0.545  0.4082  0.3799  0.1198
13132TIP3    H160811   0.895   5.640   0.581 -1.3788  0.6275  0.1085
13132TIP3    H260812   0.920   5.558   0.456 -0.8035  1.4271 -0.3134
13133TIP3   OH260813   6.748   4.731  15.466  0.0545 -0.2424 -0.1408
13133TIP3    H160814   6.809   4.739  15.539  0.9869  1.1883 -1.0385
13133TIP3    H260815   6.689   4.659  15.491  3.1179 -2.8944  0.0292
13134TIP3   OH260816   3.184   4.531  17.026 -0.0888  0.3311 -0.0315
13134TIP3    H160817   3.095   4.530  16.991 -0.6066  1.6996  1.1345
13134TIP3    H260818   3.237   4.573  16.959 -0.1320 -1.1278 -1.0401
13135TIP3   OH260819   2.620   4.457  13.009  0.4823  0.2911 -0.1085
13135TIP3    H160820   2.670   4.533  13.040  0.6260 -0.3993  1.4743
13135TIP3    H260821   2.597   4.409  13.089  0.3490 -1.3087 -1.0511
13136TIP3   OH260822   3.282   4.820   1.722  0.4539 -0.2475  0.2991
13136TIP3    H160823   3.202   4.766   1.724  0.0075  0.4139  0.4026
13136TIP3    H260824   3.252   4.907   1.696  0.9269  0.3580  1.7033
13137TIP3   OH260825   4.405   3.968   0.436 -0.4394 -0.1527  0.1602
13137TIP3    H160826   4.468   4.024   0.391 -0.6992 -0.6577 -0.8563
13137TIP3    H260827   4.369   4.024   0.506  1.4346  0.0010  1.0672
13138TIP3   OH260828   0.943   1.291  14.771 -0.6175 -0.2061 -0.2589
13138TIP3    H160829   0.945   1.370  14.825 -0.5121 -1.3642  1.5027
13138TIP3    H260830   0.890   1.229  14.821 -0.7306 -1.2501 -1.6277
13139TIP3   OH260831   5.169   1.346  12.066 -0.0636 -0.3730  0.0948
13139TIP3    H160832   5.255   1.367  12.103 -0.1116  0.6941 -0.3510
13139TIP3    H260833   5.107   1.395  12.120 -0.2845 -0.2277 -0.2847
13140TIP3   OH260834   3.956   5.045   1.333 -0.4216  0.1473 -0.3330
13140TIP3    H160835   3.977   5.115   1.273  1.8260 -1.1138 -1.1221
13140TIP3    H260836   4.037   5.028   1.380 -1.2364 -1.1225  0.6958
13141TIP3   OH260837   4.128   2.529   1.990 -0.2260 -0.5020 -0.4687
13141TIP3    H160838   4.106   2.450   2.038 -1.3394  0.1503  0.1405
13141TIP3    H260839   4.165   2.498   1.907  0.4329 -1.6384  0.2319
13142TIP3   OH260840   5.807   4.233   4.036  0.0504 -0.4720  0.1977
13142TIP3    H160841   5.826   4.316   4.079 -0.9719  0.3811 -0.9302
13142TIP3    H260842   5.880   4.176   4.060  1.7049  1.2908 -0.4221
13143TIP3   OH260843   2.349   3.091   1.991  0.7797  0.5224  0.2067
13143TIP3    H160844   2.393   3.161   1.942  0.9756 -0.5847 -1.2553
13143TIP3    H260845   2.316   3.135   2.070  0.1773  2.4704 -1.0358
13144TIP3   OH260846   5.836   1.774  12.809 -0.8291  0.1472  0.2809
13144TIP3    H160847   5.865   1.864  12.821  0.2773 -0.3365  1.6297
13144TIP3    H260848   5.785   1.755  12.888 -1.7020 -0.1781 -0.3480
13145TIP3   OH260849   4.567   0.730  14.675 -0.7095 -0.0397 -0.0373
13145TIP3    H160850   4.472   0.736  14.668 -0.6701 -1.0427 -2.0029
13145TIP3    H260851   4.591   0.657  14.619  1.3089  0.6901 -0.2192
13146TIP3   OH260852   1.371   5.423  11.051 -0.1686 -0.0251 -0.5425
13146TIP3    H160853   1.428   5.500  11.062  1.1819 -1.0000 -0.5318
13146TIP3    H260854   1.420   5.365  10.994 -1.3215 -0.7629 -0.8139
13147TIP3   OH260855   2.863   0.138   6.097  0.8395  0.0807 -0.1701
13147TIP3    H160856   2.813   0.179   6.168 -0.0040 -1.3666  0.1142
13147TIP3    H260857   2.809   0.154   6.019  0.3642 -0.7070 -0.0117
13148TIP3   OH260858   6.051   3.154  12.716  0.5326 -0.7771 -0.3739
13148TIP3    H160859   6.146   3.165  12.718  0.4309  0.2186 -0.1120
13148TIP3    H260860   6.026   3.144  12.808  0.2730  0.3091 -0.3016
13149TIP3   OH260861   5.711   1.540   4.707  0.1582  0.0093  0.0482
13149TIP3    H160862   5.638   1.542   4.645  0.7167 -0.1662 -0.6238
13149TIP3    H260863   5.768   1.471   4.675 -0.4111 -1.3738  1.7810
13150TIP3   OH260864   0.256   4.898  14.548  0.0179 -0.2501 -0.2742
13150TIP3    H160865   0.199   4.975  14.541  2.2083  1.5892  0.7361
13150TIP3    H260866   0.295   4.888  14.461  2.6964  2.3934  0.4341
13151TIP3   OH260867   1.240   1.257   5.758 -0.6507  0.6005  0.9598
13151TIP3    H160868   1.232   1.238   5.851  0.6688 -1.6965  0.6671
13151TIP3    H260869   1.328   1.295   5.749 -1.3330  2.2393  0.8056
13152TIP3   OH260870   0.789   2.287   2.185  0.1431  0.3046 -0.7686
13152TIP3    H160871   0.736   2.230   2.240  1.3366 -0.7442 -0.6681
13152TIP3    H260872   0.760   2.269   2.096 -0.9579  1.1296 -0.5957
13153TIP3   OH260873   4.521   2.320  12.127 -0.3222 -0.3001 -0.1484
13153TIP3    H160874   4.572   2.351  12.052 -0.7013  0.5052 -0.0775
13153TIP3    H260875   4.448   2.272  12.088 -0.0823 -0.5769 -0.2682
13154TIP3   OH260876   5.543   3.455   1.546 -0.2003 -0.3647  0.0465
13154TIP3    H160877   5.607   3.523   1.566 -0.6996  0.3718 -0.7804
13154TIP3    H260878   5.514   3.423   1.632 -1.3407  1.8014  0.5375
13155TIP3   OH260879   3.937   3.354   4.598  0.6852 -0.0552 -0.0343
13155TIP3    H160880   3.899   3.441   4.611  0.1657 -0.1407 -0.8743
13155TIP3    H260881   3.958   3.323   4.686 -0.9334  0.1249  0.4541
13156TIP3   OH260882   1.019   1.188   2.159  0.3182 -0.7477  0.3310
13156TIP3    H160883   0.955   1.201   2.089 -0.3607 -0.3191  1.0203
13156TIP3    H260884   0.970   1.146   2.229  0.4901  0.5899  1.2980
13157TIP3   OH260885   0.951   5.354  12.163 -0.3303  0.2419  0.0211
13157TIP3    H160886   1.039   5.360  12.126 -0.2846 -2.8482 -0.6510
13157TIP3    H260887   0.956   5.403  12.245  1.8270  0.6482 -0.2921
13158TIP3   OH260888   4.105   3.765  13.972  0.3888 -0.5346  0.1792
13158TIP3    H160889   4.102   3.695  13.907 -2.3335  0.7739 -1.2959
13158TIP3    H260890   4.057   3.730  14.047 -0.0036 -0.6681 -0.1267
13159TIP3   OH260891   1.821   6.638   4.393  0.0426  0.3016 -0.5401
13159TIP3    H160892   1.747   6.584   4.421  0.4472 -0.1305 -0.2736
13159TIP3    H260893   1.785   6.696   4.326 -0.4940 -0.0346 -0.5486
13160TIP3   OH260894   3.764   0.846  11.446 -0.0550 -0.7025  0.4851
13160TIP3    H160895   3.732   0.757  11.464 -1.8310  0.1665  1.9321
13160TIP3    H260896   3.689   0.892  11.409  1.3346 -0.2222 -1.9111
13161TIP3   OH260897   2.121   6.630   5.683  0.5701 -0.0913 -0.1557
13161TIP3    H160898   2.123   6.611   5.589  0.8698  1.6037 -0.5233
13161TIP3    H260899   2.061   6.564   5.720  0.9044 -1.1436 -1.4296
13162TIP3   OH260900   1.016   6.621   0.911  0.0178 -0.2006 -0.0806
13162TIP3    H160901   0.971   6.571   0.979 -0.5374 -0.2450 -0.4730
13162TIP3    H260902   0.975   6.707   0.913 -1.1295 -0.6740 -1.4163
13163TIP3   OH260903   2.135   4.312  12.452 -0.1076  0.5686  0.0817
13163TIP3    H160904   2.157   4.269  12.535  0.5506  0.6697 -0.0289
13163TIP3    H260905   2.081   4.387  12.477 -1.0794 -0.1949  0.2936
13164TIP3   OH260906   0.657   6.245  14.849  0.0951  0.1648  0.1191
13164TIP3    H160907   0.730   6.195  14.885 -0.0544 -0.6042 -0.6222
13164TIP3    H260908   0.663   6.233  14.754  0.4441  2.1054 -0.1376
13165TIP3   OH260909   4.612   4.197   6.055  0.2213  0.0674  0.7152
13165TIP3    H160910   4.624   4.189   5.961  0.3271 -1.5385  0.8481
13165TIP3    H260911   4.644   4.115   6.091 -1.5561 -0.1176  1.9976
13166TIP3   OH260912   4.244   6.488   5.147 -0.1035 -0.1946  0.0303
13166TIP3    H160913   4.279   6.399   5.145  1.4709  0.3788 -0.0227
13166TIP3    H260914   4.150   6.478   5.138  0.1709 -1.7686 -1.6480
13167TIP3   OH260915   5.522   1.010  14.410 -0.4224  0.0282 -0.3063
13167TIP3    H160916   5.518   0.914  14.407  1.5651 -0.0891 -1.1489
13167TIP3    H260917   5.602   1.029  14.459  0.9706  1.1190 -2.7756
13168TIP3   OH260918   0.273   1.500   2.532 -0.2131  0.6933 -0.5496
13168TIP3    H160919   0.360   1.461   2.542 -0.3308  0.6546  0.4199
13168TIP3    H260920   0.221   1.458   2.600 -0.8002  1.2583 -0.6462
13169TIP3   OH260921   1.822   2.608  12.322 -0.3796 -0.1776 -0.2022
13169TIP3    H160922   1.773   2.602  12.404 -0.8448  0.0475 -0.4593
13169TIP3    H260923   1.853   2.698  12.319  0.8001 -0.5512  0.3773
13170TIP3   OH260924   4.818   1.242  11.299  0.3184 -0.0394  0.7709
13170TIP3    H160925   4.858   1.256  11.213  1.1036 -0.9667  0.9681
13170TIP3    H260926   4.726   1.223  11.281 -0.0639  2.0172  0.2989
13171TIP3   OH260927   1.845   2.731  16.329  0.8903 -0.5081  0.5115
13171TIP3    H160928   1.820   2.745  16.238  1.3173  0.4442  0.5202
13171TIP3    H260929   1.808   2.807  16.375  0.3137 -1.1991  1.2043
13172TIP3   OH260930   4.996   2.363   5.613 -0.0543  0.0857 -0.3838
13172TIP3    H160931   5.081   2.398   5.639  0.4794 -0.7374 -0.9703
13172TIP3    H260932   5.002   2.269   5.631 -0.1991 -0.2675 -1.9774
13173TIP3   OH260933   6.191   2.932   4.217  0.3622 -0.1488  0.0725
13173TIP3    H160934   6.137   3.004   4.251  0.6708  0.0794  0.0904
13173TIP3    H260935   6.171   2.859   4.275 -0.9827 -0.4821 -0.7783
13174TIP3   OH260936   0.508   4.205   5.814 -0.0925  0.4404 -0.3387
13174TIP3    H160937   0.445   4.240   5.877 -0.8737 -0.4494 -0.5984
13174TIP3    H260938   0.545   4.283   5.772  1.4107  1.1542  2.0597
13175TIP3   OH260939   1.371   5.481  14.611 -0.2735 -0.2610 -0.2911
13175TIP3    H160940   1.313   5.407  14.628  1.5105 -1.4001  1.2912
13175TIP3    H260941   1.419   5.494  14.693 -0.6732  2.8703 -0.4164
13176TIP3   OH260942   1.905   2.971   0.309  0.5921  0.8879  0.4787
13176TIP3    H160943   1.998   2.956   0.298  0.2345  0.1602 -2.3674
13176TIP3    H260944   1.882   2.923   0.388  2.2971 -0.5547  0.1564
13177TIP3   OH260945   4.103   0.804   6.161  0.3378  0.4990 -0.2583
13177TIP3    H160946   4.066   0.754   6.234 -0.2396  0.8184 -0.3233
13177TIP3    H260947   4.196   0.785   6.164  0.4509  1.1276  1.0739
13178TIP3   OH260948   0.228   6.384  12.100 -0.0520  0.5939 -0.4882
13178TIP3    H160949   0.215   6.398  12.194  1.1870  0.0845 -0.2130
13178TIP3    H260950   0.293   6.449  12.074  3.1520 -2.1203  0.0777
13179TIP3   OH260951   4.693   1.223  13.011  0.0420 -0.7424  0.1333
13179TIP3    H160952   4.706   1.139  13.056  0.7057 -0.9399 -0.4001
13179TIP3    H260953   4.780   1.247  12.979 -0.1910  0.0184  0.0459
13180TIP3   OH260954   5.067   5.630  16.863  0.5905  0.3825 -0.2301
13180TIP3    H160955   5.125   5.683  16.917  1.3453 -0.4274 -0.2291
13180TIP3    H260956   5.118   5.553  16.841 -0.4499 -0.2968 -0.3379
13181TIP3   OH260957   5.945   4.132  15.306 -0.0608 -0.7016  1.3944
13181TIP3    H160958   5.941   4.078  15.385  3.2231 -0.9565  1.5286
13181TIP3    H260959   6.012   4.197  15.325 -0.9669  0.8279 -0.3240
13182TIP3   OH260960   3.845   4.980   0.449  0.1191 -0.3126  0.1553
13182TIP3    H160961   3.849   4.888   0.474 -0.5302  0.0473  1.6805
13182TIP3    H260962   3.757   4.990   0.413  0.6823 -0.5835 -1.3792
13183TIP3   OH260963   6.600   2.046   1.457 -0.8218 -0.4395  0.5669
13183TIP3    H160964   6.570   2.114   1.397  0.4124 -0.6657 -0.3534
13183TIP3    H260965   6.546   2.057   1.535 -3.6471 -1.2056 -1.1339
13184TIP3   OH260966   2.681   2.762  17.013 -0.1295  0.7009 -0.4866
13184TIP3    H160967   2.681   2.835  16.951 -0.5709  0.1775 -1.1259
13184TIP3    H260968   2.632   2.693  16.967 -1.5020  0.7062  0.9045
13185TIP3   OH260969   3.490   0.024   5.099  0.4457 -0.0471  0.0833
13185TIP3    H160970   3.581   0.005   5.074  1.2998  0.4617  2.4538
13185TIP3    H260971   3.479  -0.022   5.182 -0.3217  2.5645  1.5399
13186TIP3   OH260972   2.712   1.153  16.437  0.6258 -0.0729 -0.0632
13186TIP3    H160973   2.647   1.092  16.403 -0.7511  0.5431  1.3638
13186TIP3    H260974   2.705   1.230  16.381  0.1596 -0.0317  0.0536
13187TIP3   OH260975   0.106   3.406  15.889 -0.1750  0.0248  0.5605
13187TIP3    H160976   0.090   3.317  15.918  0.1189 -1.0280 -2.2303
13187TIP3    H260977   0.025   3.433  15.847  0.0521  0.7515  0.5750
13188TIP3   OH260978   1.540   5.766  15.156  0.3272  0.5807  0.2745
13188TIP3    H160979   1.525   5.800  15.244 -1.3074 -0.3135  0.3733
13188TIP3    H260980   1.593   5.833  15.113 -1.0286  2.2684  1.1161
13189TIP3   OH260981   3.211   2.196   4.051 -0.1263  0.1648  0.2312
13189TIP3    H160982   3.183   2.185   3.960 -0.5564  1.1274  0.2337
13189TIP3    H260983   3.229   2.107   4.082 -2.2473 -0.4261 -0.0891
13190TIP3   OH260984   1.046   3.323  10.999  0.1275 -0.3892 -0.0867
13190TIP3    H160985   0.957   3.342  11.029  0.8393  0.1799  1.8237
13190TIP3    H260986   1.102   3.342  11.075  1.6117 -3.5111 -0.2234
13191TIP3   OH260987   1.379   4.440  15.991 -0.2018  0.0911 -0.2654
13191TIP3    H160988   1.292   4.403  16.004 -0.9990  1.4010 -1.5233
13191TIP3    H260989   1.363   4.524  15.947  1.7813 -0.4870 -2.2635
13192TIP3   OH260990   0.563   6.654   1.724  0.0012 -0.2389  0.3071
13192TIP3    H160991   0.509   6.650   1.645  0.7454 -1.6342 -0.1587
13192TIP3    H260992   0.653   6.658   1.692  0.2437  1.2404  1.0815
13193TIP3   OH260993   0.009   0.516  12.069 -0.7352  0.2858 -0.7199
13193TIP3    H160994   0.047   0.513  12.157  0.9023 -2.5517 -1.4106
13193TIP3    H260995  -0.085   0.526  12.085 -0.8171 -2.5155  1.5652
13194TIP3   OH260996   0.039   1.343  13.192  0.2980  0.9747  0.1824
13194TIP3    H160997  -0.028   1.389  13.141 -0.6100 -0.6866 -0.2318
13194TIP3    H260998   0.073   1.277  13.131  1.5904  1.1355  0.7222
13195TIP3   OH260999   6.223   2.753  12.660 -0.0694  0.0413  0.1942
13195TIP3    H161000   6.164   2.729  12.589 -1.0353 -0.9990  1.3129
13195TIP3    H261001   6.249   2.843  12.639  0.5566 -0.5806 -2.0330
13196TIP3   OH261002   2.942   5.436  15.821 -0.5744 -0.1503 -0.3708
13196TIP3    H161003   2.957   5.376  15.895  1.2249 -0.3633 -0.8569
13196TIP3    H261004   2.847   5.450  15.820 -0.7126 -0.6629  1.5655
13197TIP3   OH261005   3.088   1.131  11.266 -0.1338  0.6629 -0.2183
13197TIP3    H161006   3.087   1.220  11.232 -1.2703  0.9225  0.4481
13197TIP3    H261007   2.996   1.110  11.283  0.2756  0.2057  1.7277
13198TIP3   OH261008   1.926   6.149   1.045  0.8338 -0.6229  0.3482
13198TIP3    H161009   1.946   6.136   0.952 -0.3714 -0.8396  0.0993
13198TIP3    H261010   1.976   6.227   1.069 -1.1136  1.2647 -1.2897
13199TIP3   OH261011   0.556   1.442  12.584 -0.1211  0.4521  0.2212
13199TIP3    H161012   0.643   1.432  12.545 -0.2778 -0.6445  0.1193
13199TIP3    H261013   0.562   1.523  12.635  1.2339 -0.0625  0.9396
13200TIP3   OH261014   1.002   6.355  14.663  0.6607 -0.1251  0.2171
13200TIP3    H161015   1.013   6.308  14.746 -1.6662 -0.2706  0.5238
13200TIP3    H261016   1.013   6.288  14.596  1.7711 -0.1700  0.4312
13201TIP3   OH261017   3.621   6.513   3.549  0.7927  0.2196 -0.1896
13201TIP3    H161018   3.679   6.485   3.620 -1.7888  1.2502  2.5496
13201TIP3    H261019   3.672   6.579   3.502  2.8143 -0.9242  0.2719
13202TIP3   OH261020   0.126   6.626  11.362 -0.0909 -0.0592 -0.9187
13202TIP3    H161021   0.036   6.595  11.353 -0.3137  0.2920 -0.0163
13202TIP3    H261022   0.120   6.701  11.421  0.8544 -0.3113 -0.4848
13203TIP3   OH261023   0.678   4.462  11.834 -0.3248  0.8815  0.3627
13203TIP3    H161024   0.671   4.481  11.740 -1.6670  0.7897  0.4177
13203TIP3    H261025   0.590   4.432  11.858  0.2260  0.1168  1.4841
13204TIP3   OH261026   5.920   4.268   0.108  0.0655  0.3260 -0.1653
13204TIP3    H161027   6.012   4.291   0.093  0.3774 -1.2987 -0.9895
13204TIP3    H261028   5.916   4.173   0.095 -1.6109  0.2538  0.5355
13205TIP3   OH261029   2.709   1.043  14.753  0.1512  0.6836 -0.5334
13205TIP3    H161030   2.790   0.993  14.762 -0.7130 -0.8253 -0.7231
13205TIP3    H261031   2.695   1.082  14.839  1.1247  1.0631 -0.5369
13206TIP3   OH261032   0.048   1.990   6.233 -0.3447  0.4511 -0.5210
13206TIP3    H161033  -0.031   1.945   6.203  0.0895 -0.5710 -0.1956
13206TIP3    H261034   0.118   1.926   6.219  0.1077  0.5573  1.1326
13207TIP3   OH261035   4.910   2.583   1.968 -0.3871  0.5028  0.3012
13207TIP3    H161036   4.823   2.564   1.933  0.7343  0.8784 -3.0272
13207TIP3    H261037   4.913   2.538   2.053 -2.5419 -2.6399 -1.1248
13208TIP3   OH261038   4.783   2.645  15.687  1.2491  0.4759 -0.2058
13208TIP3    H161039   4.781   2.597  15.605 -1.1592 -0.5369  0.3537
13208TIP3    H261040   4.727   2.722  15.672  2.1331  1.1855  0.0161
13209TIP3   OH261041   0.894   5.860   1.231 -0.3670  0.0439  0.3758
13209TIP3    H161042   0.837   5.805   1.177  0.0616 -0.5992  0.5692
13209TIP3    H261043   0.949   5.798   1.280  0.3881  0.6454  0.3138
13210TIP3   OH261044   2.380   2.519   3.802 -0.2252  0.0113  0.1456
13210TIP3    H161045   2.473   2.504   3.792  0.1707  0.5999  2.3695
13210TIP3    H261046   2.358   2.581   3.733  0.3590 -2.2790 -2.2299
13211TIP3   OH261047   5.955   0.042   4.648 -0.0247 -0.0429  0.8434
13211TIP3    H161048   5.964  -0.049   4.621 -0.8115 -0.0926  0.7114
13211TIP3    H261049   6.014   0.091   4.591  0.1364 -0.4287  0.6821
13212TIP3   OH261050   1.713   5.613   4.310 -0.2839 -0.5288 -0.2033
13212TIP3    H161051   1.643   5.645   4.367 -0.7513 -1.7131 -0.0825
13212TIP3    H261052   1.752   5.540   4.358 -0.0081 -0.8865 -0.9624
13213TIP3   OH261053   3.585   1.826  12.669  0.1684  0.3147 -0.2812
13213TIP3    H161054   3.619   1.911  12.639 -3.1096  2.1309  0.6505
13213TIP3    H261055   3.535   1.794  12.594 -0.4872  0.3387  0.1470
13214TIP3   OH261056   4.999   2.183  16.907  0.4978 -0.1697 -0.2411
13214TIP3    H161057   5.018   2.144  16.992  0.6788  0.8338  0.1944
13214TIP3    H261058   4.990   2.277  16.925 -0.4783 -0.0657 -1.1637
13215TIP3   OH261059   0.111   0.102   1.294  0.2820  0.1412  1.0379
13215TIP3    H161060   0.157   0.099   1.210 -0.9587  0.1273  0.3460
13215TIP3    H261061   0.028   0.145   1.275 -0.2407 -0.3452  2.1417
13216TIP3   OH261062   0.268   2.956   1.237  0.1339 -0.2424  0.2578
13216TIP3    H161063   0.297   2.923   1.152 -0.9404 -0.3516 -0.0801
13216TIP3    H261064   0.349   2.976   1.284  0.8006 -2.2839  0.0561
13217TIP3   OH261065   4.170   5.540   3.932  0.9393 -0.4150 -0.1869
13217TIP3    H161066   4.162   5.473   3.864  1.2487  1.5221 -2.2522
13217TIP3    H261067   4.083   5.579   3.937  1.4177  0.8792 -1.1249
13218TIP3   OH261068   1.888   3.920   2.226 -0.2250  0.2870 -0.3500
13218TIP3    H161069   1.965   3.973   2.247  0.0351 -0.3373  0.3268
13218TIP3    H261070   1.863   3.880   2.309 -1.1307  0.2746 -0.6143
13219TIP3   OH261071   4.404   4.289   1.037 -0.2306  0.6963 -0.2502
13219TIP3    H161072   4.417   4.256   0.948  0.2937  0.1862  0.0108
13219TIP3    H261073   4.358   4.219   1.082  0.7684  0.3668  0.2703
13220TIP3   OH261074   3.287   1.710   1.988 -0.6668  0.6158 -0.4769
13220TIP3    H161075   3.254   1.623   1.966 -0.2146 -0.0969  1.4104
13220TIP3    H261076   3.220   1.770   1.957 -0.4030 -0.2668 -2.9757
13221TIP3   OH261077   1.010   1.974   3.216  0.0557  0.3529 -0.0899
13221TIP3    H161078   1.004   2.056   3.166 -0.6359  1.3953  1.5967
13221TIP3    H261079   0.941   1.981   3.281  1.1044 -0.7892  1.2074
13222TIP3   OH261080   3.011   4.072   3.911 -0.6089 -0.1785 -0.4168
13222TIP3    H161081   3.045   4.138   3.851 -2.4496  0.9045 -0.3540
13222TIP3    H261082   2.991   3.996   3.855 -1.6897  0.5825 -1.1140
13223TIP3   OH261083   1.335   3.386   3.562 -0.1153 -0.0906  0.0152
13223TIP3    H161084   1.346   3.473   3.523  0.9782 -0.4171 -0.4391
13223TIP3    H261085   1.277   3.401   3.636 -0.5816  0.8976 -0.5162
13224TIP3   OH261086   5.226   0.124   3.217 -0.1783  0.7041 -0.3856
13224TIP3    H161087   5.225   0.219   3.230 -0.3590  0.7150 -0.4748
13224TIP3    H261088   5.309   0.096   3.256 -0.7390  0.7307  0.8949
13225TIP3   OH261089   6.281   6.279  14.574 -0.2723 -0.1489 -0.5858
13225TIP3    H161090   6.192   6.270  14.608 -0.5150 -1.0887 -1.4287
13225TIP3    H261091   6.268   6.312  14.484  0.2519  0.0826 -0.5774
13226TIP3   OH261092   6.504   1.418  12.478  0.4271  0.3688 -0.2535
13226TIP3    H161093   6.507   1.322  12.481  0.5271  0.3928  0.6561
13226TIP3    H261094   6.436   1.442  12.541  2.1476  0.9709  1.4720
13227TIP3   OH261095   2.542   1.195   0.254  0.4442  0.2247  0.6414
13227TIP3    H161096   2.473   1.233   0.201  0.0789 -1.4104 -0.1027
13227TIP3    H261097   2.621   1.244   0.230 -0.3138  1.7490  1.1122
13228TIP3   OH261098   1.017   0.087  16.157 -0.4629 -0.0875 -0.2781
13228TIP3    H161099   1.035   0.090  16.063 -2.1763 -0.9623 -0.6700
13228TIP3    H261100   1.066   0.011  16.188  0.6684  0.6109 -0.3088
13229TIP3   OH261101   6.021   5.242  13.560  0.4224 -0.5032  0.0126
13229TIP3    H161102   5.999   5.244  13.466 -2.2082  1.6522  0.5269
13229TIP3    H261103   6.077   5.165  13.570 -0.5524 -1.7891 -3.0418
13230TIP3   OH261104   2.659   0.962  11.826  0.5007 -0.2033  0.4202
13230TIP3    H161105   2.676   1.047  11.866 -0.3571  0.7905 -1.2537
13230TIP3    H261106   2.597   0.920  11.886  1.7286 -0.1501  1.8100
13231TIP3   OH261107   3.129   4.877  13.949 -0.0947  0.4468  0.0257
13231TIP3    H161108   3.174   4.902  14.030 -1.7645  1.3234  0.7219
13231TIP3    H261109   3.171   4.795  13.923  2.6542  1.7334  0.0182
13232TIP3   OH261110   0.350   2.630  16.028 -0.2465 -0.2973 -0.3072
13232TIP3    H161111   0.331   2.547  16.071 -1.8611  0.4091  0.4227
13232TIP3    H261112   0.265   2.663  16.000  0.0900  1.9202  0.9929
13233TIP3   OH261113   6.263   4.764  17.147 -0.3229  0.0602  0.6644
13233TIP3    H161114   6.254   4.679  17.104 -2.6777 -0.4836  2.0727
13233TIP3    H261115   6.354   4.790  17.129 -0.5587 -1.0359 -2.8058
13234TIP3   OH261116   1.241   2.119   1.654  0.1246  0.0416  0.2433
13234TIP3    H161117   1.179   2.046   1.652  0.3667 -0.1674  0.2986
13234TIP3    H261118   1.199   2.185   1.709 -0.5757  0.3834 -0.6752
13235TIP3   OH261119   4.442   0.049  12.048 -0.3457 -0.4064 -0.3325
13235TIP3    H161120   4.419   0.124  11.993  0.1497 -0.3964 -0.5249
13235TIP3    H261121   4.490   0.088  12.122 -3.4494 -0.0299  1.6810
13236TIP3   OH261122   5.177   4.801  13.446  0.4471 -0.1102  0.2804
13236TIP3    H161123   5.181   4.706  13.453 -1.7933 -0.1819  1.2019
13236TIP3    H261124   5.164   4.817  13.352  0.0924 -0.7604  0.2118
13237TIP3   OH261125   4.188   6.279  16.448  0.3301 -1.1069  0.1053
13237TIP3    H161126   4.106   6.328  16.440  0.4192 -1.1890 -1.6841
13237TIP3    H261127   4.254   6.345  16.469  0.9305  0.2094 -4.7381
13238TIP3   OH261128   1.051   0.312  15.738  0.1961 -0.2747 -0.4371
13238TIP3    H161129   0.959   0.331  15.721  0.5479  0.5482 -1.6050
13238TIP3    H261130   1.090   0.304  15.651  1.6230  1.5072 -0.0197
13239TIP3   OH261131   2.037   4.095   2.501 -0.0114  0.3347 -0.6014
13239TIP3    H161132   2.086   4.121   2.580 -0.3344  0.3390 -0.4019
13239TIP3    H261133   1.953   4.062   2.534 -1.1014  2.4801 -1.0364
13240TIP3   OH261134   5.344   5.584   0.302  0.3960  0.3704 -0.6954
13240TIP3    H161135   5.288   5.661   0.314  0.7707  0.7785 -1.5073
13240TIP3    H261136   5.370   5.587   0.210  0.9109 -0.3952 -0.5854
13241TIP3   OH261137   4.923   3.293  16.692 -0.3047  0.6878 -0.6415
13241TIP3    H161138   4.951   3.293  16.601  0.5109  1.7645 -0.3997
13241TIP3    H261139   5.003   3.278  16.742 -0.8093 -0.3344 -0.1046
13242TIP3   OH261140   4.357   1.204  11.675 -0.0253 -0.1913  0.1090
13242TIP3    H161141   4.288   1.192  11.610  2.5124 -1.8835 -2.4822
13242TIP3    H261142   4.379   1.115  11.703  2.3125  0.1000 -0.5848
13243TIP3   OH261143   3.377   4.079  11.363 -0.0899  0.1982 -0.2509
13243TIP3    H161144   3.292   4.090  11.404  0.0117 -1.0238  0.3610
13243TIP3    H261145   3.361   4.019  11.290  0.7782 -3.5866  2.3261
13244TIP3   OH261146   2.006   3.584   2.251  0.0160  0.0671  0.2750
13244TIP3    H161147   2.082   3.632   2.282  0.6348 -1.2623  0.8463
13244TIP3    H261148   2.013   3.497   2.290 -1.3121 -0.3746 -0.3827
13245TIP3   OH261149   4.808   1.726  14.586 -0.0895  0.7653  0.0631
13245TIP3    H161150   4.902   1.713  14.575 -0.0356  0.6109  0.6983
13245TIP3    H261151   4.795   1.820  14.574 -0.1566  0.5244 -2.1680
13246TIP3   OH261152   4.996   5.881  11.429  0.8551 -0.1035  0.9565
13246TIP3    H161153   4.953   5.806  11.388  1.2056 -1.0826  2.3113
13246TIP3    H261154   5.081   5.887  11.386  0.6616 -0.2171  0.5500
13247TIP3   OH261155   2.908   3.235   3.093  0.1969  0.5148  0.2332
13247TIP3    H161156   2.999   3.256   3.115 -0.2229  3.0347 -0.0978
13247TIP3    H261157   2.915   3.165   3.028  1.7374 -1.4286  2.3153
13248TIP3   OH261158   4.676   3.710   1.201 -0.0099 -0.3219 -0.5535
13248TIP3    H161159   4.684   3.689   1.294 -1.3073 -0.1746 -0.3886
13248TIP3    H261160   4.765   3.701   1.166  0.8009  1.0888  1.0013
13249TIP3   OH261161   3.025   1.978  14.416 -0.2527 -0.6937 -0.0280
13249TIP3    H161162   3.071   1.895  14.403 -0.7929 -0.9381 -0.4013
13249TIP3    H261163   2.960   1.959  14.484 -0.3246 -0.5546 -0.0585
13250TIP3   OH261164   2.943   3.506  15.928  0.0175 -0.0979 -0.3665
13250TIP3    H161165   2.956   3.443  15.858 -0.9637  0.4499 -1.0747
13250TIP3    H261166   2.858   3.546  15.909  0.6534  1.5150 -0.0215
13251TIP3   OH261167   4.213   3.706   2.907  0.2714  0.5332 -0.3106
13251TIP3    H161168   4.197   3.633   2.966  3.7402 -0.6036 -0.5608
13251TIP3    H261169   4.167   3.683   2.826 -0.4957 -0.2451  0.3296
13252TIP3   OH261170   1.318   0.227  14.670 -0.1761  0.1656  1.0186
13252TIP3    H161171   1.319   0.192  14.760 -0.8134  0.0637  0.9906
13252TIP3    H261172   1.275   0.312  14.678 -0.2772  0.1347  0.7993
13253TIP3   OH261173   2.275   1.228  15.053  0.3276 -0.7238  0.2947
13253TIP3    H161174   2.284   1.262  14.964 -1.8421  1.4456  0.8007
13253TIP3    H261175   2.309   1.298  15.108 -0.8858 -0.8921  1.2698
13254TIP3   OH261176   5.431   2.634   3.520  0.4331 -0.0203  0.3110
13254TIP3    H161177   5.402   2.584   3.596 -0.6499 -0.5200 -0.4037
13254TIP3    H261178   5.364   2.702   3.509  0.2661 -0.2926 -0.5009
13255TIP3   OH261179   3.890   2.461   5.936 -0.5548 -0.3893 -0.5256
13255TIP3    H161180   3.885   2.370   5.907  1.0863 -0.8596  0.5343
13255TIP3    H261181   3.888   2.513   5.856 -2.1343 -1.2911 -1.1147
13256TIP3   OH261182   0.630   2.932   0.984  0.1017  0.0885 -0.3845
13256TIP3    H161183   0.658   2.999   0.922  1.0124  0.8973  0.8583
13256TIP3    H261184   0.616   2.979   1.066 -0.5204 -1.0425  0.1853
13257TIP3   OH261185   3.349   6.115  12.435  0.1115  0.2744  0.2419
13257TIP3    H161186   3.429   6.146  12.392  0.0387 -0.4579 -0.4483
13257TIP3    H261187   3.309   6.056  12.371 -0.4033 -0.2443  1.0325
13258TIP3   OH261188   1.467   3.653   5.559 -0.6173  0.0454  0.3784
13258TIP3    H161189   1.411   3.711   5.506 -0.0259  0.7602  0.5152
13258TIP3    H261190   1.419   3.571   5.563 -1.2332  0.3592 -0.2714
13259TIP3   OH261191   4.622   1.941  12.091  0.0145 -0.0874  0.0227
13259TIP3    H161192   4.694   1.926  12.030 -1.5751  0.2942 -2.0463
13259TIP3    H261193   4.605   2.035  12.085 -0.4244 -0.1095  0.7781
13260TIP3   OH261194   2.159   2.159   5.728  0.7765 -0.9025 -0.2070
13260TIP3    H161195   2.251   2.150   5.753  0.1256 -0.1899  2.8079
13260TIP3    H261196   2.111   2.106   5.791 -0.9964 -0.0593 -0.7731
13261TIP3   OH261197   2.419   0.318   4.808 -0.1672  0.0760 -0.9015
13261TIP3    H161198   2.413   0.315   4.904 -0.7619  0.1978 -0.9345
13261TIP3    H261199   2.432   0.410   4.788  0.6412 -0.0283 -0.9068
13262TIP3   OH261200   6.738   5.152  11.040  0.4650 -0.3327 -0.3734
13262TIP3    H161201   6.726   5.166  11.134  0.6814  1.8285 -0.6117
13262TIP3    H261202   6.739   5.057  11.030 -2.6962 -0.7224  1.3955
13263TIP3   OH261203   4.556   6.005   1.601 -0.0638  0.0665  0.5107
13263TIP3    H161204   4.586   5.934   1.544 -0.1207  0.6828 -0.2999
13263TIP3    H261205   4.630   6.066   1.604 -0.4557  0.5597  0.2275
13264TIP3   OH261206   3.997   0.266   4.874  0.2868 -0.2261 -0.8925
13264TIP3    H161207   4.056   0.199   4.840 -1.1750 -0.5970 -2.8678
13264TIP3    H261208   3.910   0.230   4.861 -0.4712  1.3197 -0.3355
13265TIP3   OH261209   3.377   1.990   0.351 -0.7750 -0.3725  0.1363
13265TIP3    H161210   3.295   1.945   0.336 -0.0223 -1.6398 -0.3226
13265TIP3    H261211   3.385   2.051   0.278 -1.4788  0.0351  0.3932
13266TIP3   OH261212   0.464   6.393   5.544  0.3214  0.1499  0.6916
13266TIP3    H161213   0.407   6.375   5.470  1.8841  0.2726 -0.5789
13266TIP3    H261214   0.416   6.359   5.620 -0.9202 -0.7731 -0.4659
13267TIP3   OH261215   4.300   0.215  12.512  0.5472 -0.5227  0.3884
13267TIP3    H161216   4.206   0.221  12.527  0.3351 -0.4304 -0.8525
13267TIP3    H261217   4.338   0.290  12.557  0.0795 -0.8027  1.2561
13268TIP3   OH261218   1.357   2.215   5.312  0.5416  0.3681  0.8419
13268TIP3    H161219   1.317   2.130   5.297  0.4587  0.6234 -0.4894
13268TIP3    H261220   1.299   2.259   5.374 -0.6344  0.3001 -0.1833
13269TIP3   OH261221   6.650   3.768  11.231 -0.6288  0.0843  0.1286
13269TIP3    H161222   6.636   3.738  11.321  1.1790 -0.5801  0.2211
13269TIP3    H261223   6.644   3.688  11.178 -0.6142  0.3039 -0.2063
13270TIP3   OH261224   6.252   2.278   2.019 -0.6015 -0.1209  0.9082
13270TIP3    H161225   6.223   2.254   2.107 -0.3287  0.4928  1.1781
13270TIP3    H261226   6.234   2.201   1.965 -1.4305 -0.2428  1.3537
13271TIP3   OH261227   3.073   6.173   4.073  0.8073 -0.2632 -0.6134
13271TIP3    H161228   3.019   6.226   4.131  0.4772 -2.5715  1.3511
13271TIP3    H261229   3.028   6.177   3.988 -1.0437 -0.1061  0.3217
13272TIP3   OH261230   6.493   3.937  13.497  0.0733 -0.2829 -0.0984
13272TIP3    H161231   6.398   3.933  13.503  0.0923 -0.5017  0.1284
13272TIP3    H261232   6.514   3.898  13.412 -0.1444  1.6715 -1.1057
13273TIP3   OH261233   4.588   0.287   1.382 -0.5081 -0.1490  0.2478
13273TIP3    H161234   4.523   0.353   1.406  1.9399  2.3234  0.5805
13273TIP3    H261235   4.627   0.260   1.465 -0.3056 -0.7189 -0.0257
13274TIP3   OH261236   2.161   5.843  15.937 -0.0578 -0.0424 -0.2337
13274TIP3    H161237   2.075   5.849  15.896 -0.6752 -0.7939  0.8977
13274TIP3    H261238   2.200   5.763  15.902  0.0694  0.1453 -0.5267
13275TIP3   OH261239   5.305   3.459   4.608  0.6479 -0.0842  0.4988
13275TIP3    H161240   5.307   3.474   4.702 -0.5180  0.6949  0.4186
13275TIP3    H261241   5.251   3.381   4.597  0.5001  0.0253  0.4522
13276TIP3   OH261242   6.025   2.181  11.082 -0.0239 -0.0359 -0.0276
13276TIP3    H161243   6.031   2.220  10.994 -2.5705  0.2662 -0.1243
13276TIP3    H261244   6.054   2.091  11.069  0.0043  0.1036 -1.0856
13277TIP3   OH261245   5.317   5.140  12.729 -0.0834 -0.0985  0.8012
13277TIP3    H161246   5.411   5.149  12.716  0.2549  0.7060  3.2725
13277TIP3    H261247   5.306   5.054  12.769 -0.4578 -0.3518  0.1655
13278TIP3   OH261248   1.430   4.022   2.635 -0.0472 -0.0367  0.2993
13278TIP3    H161249   1.416   4.117   2.635  1.2438  0.1770  0.3629
13278TIP3    H261250   1.348   3.985   2.666 -1.1380  0.9627 -1.2614
13279TIP3   OH261251   4.880   0.844   4.203  0.2157 -0.1255 -0.3875
13279TIP3    H161252   4.914   0.822   4.289  2.4733  3.4805 -0.1562
13279TIP3    H261253   4.815   0.913   4.219  1.3977  1.3246 -1.5468
13280TIP3   OH261254   5.098   5.993   0.145  0.4111 -0.0245  0.5211
13280TIP3    H161255   5.040   6.038   0.083  0.9187 -1.4649 -1.0723
13280TIP3    H261256   5.179   6.044   0.143  0.1181  0.4511  0.6925
13281TIP3   OH261257   4.359   2.090  11.020  0.3165 -0.7296 -0.2390
13281TIP3    H161258   4.284   2.072  10.964 -0.7543  1.3967  0.4292
13281TIP3    H261259   4.423   2.132  10.961  0.0537 -0.4508 -0.3278
13282TIP3   OH261260   4.869   5.674  11.324 -0.2401  0.1278  0.2407
13282TIP3    H161261   4.894   5.669  11.232  0.6355 -1.5105  0.5362
13282TIP3    H261262   4.776   5.652  11.325 -0.5291  1.2286 -0.3363
13283TIP3   OH261263   3.767   0.683   0.497  0.0220  0.6098 -0.0503
13283TIP3    H161264   3.714   0.611   0.462 -2.1175  2.4616 -0.8497
13283TIP3    H261265   3.857   0.655   0.483 -0.6693 -2.4794  0.9108
13284TIP3   OH261266   2.824   5.671  15.604  0.1584 -0.0927 -0.1212
13284TIP3    H161267   2.853   5.662  15.695  0.6530  0.0771 -0.2620
13284TIP3    H261268   2.763   5.745  15.606 -2.9522 -2.4189  0.8060
13285TIP3   OH261269   5.910   0.433  17.253 -0.1193  0.8246  0.5874
13285TIP3    H161270   5.982   0.496  17.262  0.3545  0.2164  1.2105
13285TIP3    H261271   5.928   0.388  17.171  0.0418  0.8752  0.5951
13286TIP3   OH261272   0.524   1.188   1.878 -0.0440  0.3780 -0.1515
13286TIP3    H161273   0.539   1.254   1.947 -0.5056  1.5832 -1.1644
13286TIP3    H261274   0.442   1.145   1.903 -0.1770  0.7644  0.0883
13287TIP3   OH261275   0.342   3.412   3.053  0.3724  0.2763  0.2845
13287TIP3    H161276   0.264   3.411   2.996  0.6558 -2.4337 -0.2150
13287TIP3    H261277   0.409   3.366   3.002  1.7892  1.0625  1.3779
13288TIP3   OH261278   4.583   3.065  15.010 -0.0327  0.2761  0.4393
13288TIP3    H161279   4.661   3.009  15.006 -0.0388  0.2435  0.8011
13288TIP3    H261280   4.616   3.151  15.036  0.2474  0.9546 -1.9198
13289TIP3   OH261281   2.079   2.070   1.929 -0.1484 -0.1256 -0.2290
13289TIP3    H161282   2.074   2.082   2.024  0.2152  0.6481 -0.3065
13289TIP3    H261283   1.997   2.026   1.907 -1.2502  1.6391  0.1534
13290TIP3   OH261284   5.635   3.701  14.528  0.2127 -0.4163  0.7151
13290TIP3    H161285   5.686   3.737  14.601 -0.4439 -0.1021  1.0305
13290TIP3    H261286   5.556   3.666  14.569 -1.4428  2.1033 -0.0661
13291TIP3   OH261287   1.263   1.083  13.231  0.2926 -0.3854  0.3681
13291TIP3    H161288   1.242   1.053  13.142 -1.6252  1.2503  0.1951
13291TIP3    H261289   1.238   1.011  13.288 -1.9737 -0.0896 -0.1882
13292TIP3   OH261290   0.708   2.576  14.591 -0.6501  0.2387 -0.6305
13292TIP3    H161291   0.622   2.537  14.577  0.6036 -2.6626 -1.0609
13292TIP3    H261292   0.743   2.529  14.667  0.7034  1.0799 -0.7022
13293TIP3   OH261293   0.118   2.945  16.657 -0.5161 -0.4530 -0.4019
13293TIP3    H161294   0.039   2.891  16.652 -1.9153  1.4981 -0.3451
13293TIP3    H261295   0.105   2.999  16.735 -0.0499  1.2751 -1.4725
13294TIP3   OH261296   4.333   5.995   3.904  0.5484  0.4698  0.0583
13294TIP3    H161297   4.304   5.918   3.854  1.3628 -0.6916  1.2770
13294TIP3    H261298   4.428   5.985   3.908  0.5417  0.7757  1.4016
13295TIP3   OH261299   4.680   3.657  12.830  0.1612  0.1446 -0.5344
13295TIP3    H161300   4.728   3.618  12.757  0.4751 -0.2531 -0.1252
13295TIP3    H261301   4.596   3.684  12.793  0.3371 -0.0071 -1.0484
13296TIP3   OH261302   0.888   5.077  14.883  0.4507 -0.4916  0.3721
13296TIP3    H161303   0.870   4.990  14.920 -0.6453 -1.2220 -1.7072
13296TIP3    H261304   0.955   5.061  14.816  0.3019  0.2743  0.0341
13297TIP3   OH261305   3.058   5.980  12.843  0.8507 -0.4458 -0.2012
13297TIP3    H161306   3.103   5.938  12.916 -1.1352 -1.1358  0.6999
13297TIP3    H261307   2.978   6.016  12.881 -0.7072 -1.6025 -2.1307
13298TIP3   OH261308   2.781   3.556   0.549  0.1232 -0.0106  0.3989
13298TIP3    H161309   2.753   3.536   0.460  0.6231  0.9087  0.0254
13298TIP3    H261310   2.826   3.640   0.542  1.2550 -0.5119  1.3108
13299TIP3   OH261311   1.334   2.822   4.761 -0.2022  0.0498  0.0942
13299TIP3    H161312   1.276   2.897   4.767  0.5849  0.5770  1.5995
13299TIP3    H261313   1.410   2.845   4.815  0.0972 -1.7688  0.5459
13300TIP3   OH261314   1.348   1.013   6.710 -0.3393  0.3951 -0.1844
13300TIP3    H161315   1.288   1.080   6.743  0.3775  0.3041  1.3888
13300TIP3    H261316   1.430   1.059   6.695  0.5943 -0.2880  2.2509
13301TIP3   OH261317   4.407   2.384   0.947 -0.1223 -0.8604 -0.0098
13301TIP3    H161318   4.331   2.369   1.003 -1.1416  0.5306 -0.9416
13301TIP3    H261319   4.480   2.395   1.008 -0.9683 -0.5879  0.9897
13302TIP3   OH261320   3.558   1.528   4.771 -0.3712  0.0196  0.3704
13302TIP3    H161321   3.635   1.574   4.737 -0.2383  0.6464  1.4491
13302TIP3    H261322   3.539   1.572   4.854 -0.0746 -2.0700  1.6080
13303TIP3   OH261323   1.087   5.320  14.367  0.1633  0.8383  0.2401
13303TIP3    H161324   1.007   5.357  14.330 -0.1151  1.3551  1.3294
13303TIP3    H261325   1.158   5.367  14.323 -0.1154  0.4255 -0.6813
13304TIP3   OH261326   0.459   0.792   2.622  0.1472 -0.5694 -0.2502
13304TIP3    H161327   0.442   0.843   2.701 -1.7430 -1.2847 -0.1477
13304TIP3    H261328   0.395   0.825   2.558 -0.5136 -2.1537 -0.4577
13305TIP3   OH261329   5.305   3.474  11.961 -0.0907  1.0221  0.3499
13305TIP3    H161330   5.307   3.502  12.052  0.0618  1.1859  0.2951
13305TIP3    H261331   5.283   3.380  11.966 -0.1187  1.0381  0.5510
13306TIP3   OH261332   6.170   3.735  13.672 -0.5066 -0.2743 -0.2041
13306TIP3    H161333   6.250   3.698  13.635  0.1967  2.1216 -1.3353
13306TIP3    H261334   6.104   3.725  13.604 -0.0412  1.3396 -0.9426
13307TIP3   OH261335   1.657   3.611  15.180 -0.6417 -0.2942  0.4664
13307TIP3    H161336   1.616   3.632  15.096  0.5218  0.9919  0.1654
13307TIP3    H261337   1.713   3.536  15.162  1.8444  1.6711 -0.7491
13308TIP3   OH261338   6.218   5.996  14.194 -0.0069 -0.0604  0.1367
13308TIP3    H161339   6.182   5.989  14.106  0.7151  0.9198 -0.2524
13308TIP3    H261340   6.287   5.930  14.196  0.2239  0.1677 -0.1666
13309TIP3   OH261341   0.413   1.463  15.007 -0.3544 -0.0032 -0.0039
13309TIP3    H161342   0.426   1.412  15.087 -0.0562  1.6983  1.0845
13309TIP3    H261343   0.325   1.498  15.016 -0.2153  0.4194 -0.2885
13310TIP3   OH261344   3.082   5.381   2.881 -0.1722  0.6475  0.3303
13310TIP3    H161345   3.018   5.448   2.905 -0.3613  0.2965  0.8049
13310TIP3    H261346   3.161   5.404   2.930 -0.7709 -0.4747  1.9027
13311TIP3   OH261347   0.624   6.358  11.204 -0.3842 -0.3066 -0.6493
13311TIP3    H161348   0.597   6.440  11.244 -1.8739  0.0398 -2.2242
13311TIP3    H261349   0.623   6.294  11.275  0.5201  0.9486  0.5384
13312TIP3   OH261350   6.521   3.143   5.094 -0.2539 -0.5176 -1.0010
13312TIP3    H161351   6.500   3.099   5.011  0.4341 -1.7590 -0.5509
13312TIP3    H261352   6.448   3.120   5.152 -1.7424  1.9423 -1.7605
13313TIP3   OH261353   0.285   0.971   0.591  0.6546  0.9214  0.0292
13313TIP3    H161354   0.311   0.975   0.499  2.0888 -1.3731  0.2447
13313TIP3    H261355   0.362   1.003   0.639  0.2848  1.1540  0.4804
13314TIP3   OH261356   0.427   3.837  12.307 -0.3348 -0.0193  0.7490
13314TIP3    H161357   0.507   3.888  12.304 -0.3262 -0.0730 -0.1953
13314TIP3    H261358   0.430   3.782  12.229 -0.4890 -1.2525  1.5783
13315TIP3   OH261359   1.845   6.093  15.215 -0.0426  0.2735  0.0199
13315TIP3    H161360   1.849   6.189  15.212 -0.4145  0.2783 -2.7858
13315TIP3    H261361   1.934   6.065  15.191 -0.1521 -0.0832  0.0246
13316TIP3   OH261362   5.056   4.258  16.896  0.7960  0.0001  0.0722
13316TIP3    H161363   5.039   4.347  16.925 -2.4899 -0.8692  1.2561
13316TIP3    H261364   5.017   4.253  16.809  2.4319  0.0935 -0.7038
13317TIP3   OH261365   6.037   0.902   1.545 -0.0637  0.2853 -0.0831
13317TIP3    H161366   6.114   0.950   1.575 -1.1520  2.4596 -0.5755
13317TIP3    H261367   6.018   0.841   1.616  1.4044  0.5193  0.5520
13318TIP3   OH261368   6.647   5.131   2.390 -0.1166  1.1451 -0.2475
13318TIP3    H161369   6.724   5.085   2.424 -0.6103  1.2098  1.0091
13318TIP3    H261370   6.672   5.223   2.388 -0.8254  1.4659  2.2491
13319TIP3   OH261371   1.071   3.774   0.872  0.0603  0.5778  0.1858
13319TIP3    H161372   1.006   3.844   0.877  0.1448  0.7590 -0.9496
13319TIP3    H261373   1.029   3.706   0.818  0.5299  0.3929  0.0447
13320TIP3   OH261374   6.147   0.959   5.295 -0.2996  0.3025 -0.2550
13320TIP3    H161375   6.206   0.971   5.369 -0.8604  0.7072  0.1308
13320TIP3    H261376   6.063   0.937   5.334 -0.1164 -1.5917 -0.8404
13321TIP3   OH261377   3.815   0.673   3.482  0.0060  0.4895 -0.3241
13321TIP3    H161378   3.872   0.738   3.524 -1.1508  2.2909 -1.4454
13321TIP3    H261379   3.873   0.627   3.421  1.2906 -0.9476  1.8014
13322TIP3   OH261380   0.448   5.392  10.661 -0.2785 -0.3011  0.1371
13322TIP3    H161381   0.517   5.448  10.696 -0.1439  0.0577 -0.6800
13322TIP3    H261382   0.457   5.309  10.709 -0.2202  0.2327  1.0669
13323TIP3   OH261383   2.890   0.522  15.534 -0.0471 -0.1209 -1.0278
13323TIP3    H161384   2.943   0.446  15.508 -1.8554 -1.4650 -1.0055
13323TIP3    H261385   2.806   0.484  15.562  0.0388  1.6421  2.0340
13324TIP3   OH261386   3.075   3.720  12.128  0.0467 -0.8409  0.3488
13324TIP3    H161387   3.095   3.628  12.144  2.9241  0.0444  3.1622
13324TIP3    H261388   3.000   3.739  12.185 -0.5901 -1.4459 -0.2859
13325TIP3   OH261389   4.052   5.600  16.425  0.0167 -0.1707  0.3773
13325TIP3    H161390   4.144   5.606  16.397 -0.0684  0.3710  0.1986
13325TIP3    H261391   4.007   5.563  16.349 -0.2775  1.6509 -0.4103
13326TIP3   OH261392   2.685   4.151  13.962  0.4240 -0.2062 -0.3459
13326TIP3    H161393   2.607   4.187  13.919  0.6292  0.3202 -0.2883
13326TIP3    H261394   2.759   4.186  13.911  0.6431 -0.1710 -0.0108
13327TIP3   OH261395   0.635   0.340   2.626  0.2393  0.2901  0.9022
13327TIP3    H161396   0.697   0.276   2.661  0.3799  0.0452  0.2152
13327TIP3    H261397   0.684   0.384   2.556 -0.2871  0.2439  0.5013
13328TIP3   OH261398   4.245   6.019   0.343  0.3278 -0.6820 -0.2095
13328TIP3    H161399   4.155   6.047   0.325  0.0502 -1.5157 -0.1389
13328TIP3    H261400   4.284   6.092   0.392 -0.2375 -0.2251 -0.4347
13329TIP3   OH261401   1.899   2.145  12.686  0.0785  0.5429 -0.0620
13329TIP3    H161402   1.905   2.145  12.781  0.8331 -0.8081 -0.0814
13329TIP3    H261403   1.845   2.069  12.665  1.1296 -0.0387 -0.7421
13330TIP3   OH261404   2.478   5.694   5.238 -0.2844 -0.2174 -1.0977
13330TIP3    H161405   2.566   5.660   5.252  0.1099  0.4785 -1.8444
13330TIP3    H261406   2.489   5.788   5.226 -1.1545 -0.0881 -0.9950
13331TIP3   OH261407   6.439   2.801   3.062  0.1190 -0.5499  0.3508
13331TIP3    H161408   6.368   2.865   3.062 -1.3452 -2.0085  2.5699
13331TIP3    H261409   6.517   2.851   3.087 -0.9901  0.3987  2.0761
13332TIP3   OH261410   3.784   4.018  14.476 -0.8097 -0.1845 -0.2431
13332TIP3    H161411   3.817   4.001  14.388 -0.5114 -0.5703 -0.0577
13332TIP3    H261412   3.861   4.041  14.527 -1.2778  2.8558 -0.7102
13333TIP3   OH261413   1.492   3.713  16.168 -0.1944 -0.3644  0.2041
13333TIP3    H161414   1.534   3.690  16.250 -0.4417 -0.1311  0.4014
13333TIP3    H261415   1.531   3.656  16.103  0.3529 -0.2154  0.4001
13334TIP3   OH261416   3.345   0.422   2.791 -0.2678 -0.0635  0.4912
13334TIP3    H161417   3.413   0.375   2.742 -2.0683  0.5182 -2.8919
13334TIP3    H261418   3.268   0.367   2.783 -0.8293  0.4232  2.1815
13335TIP3   OH261419   4.761   0.531  14.825 -0.1578  0.6681  0.3653
13335TIP3    H161420   4.805   0.492  14.750 -0.7338  2.2732 -0.8684
13335TIP3    H261421   4.831   0.573  14.875  0.3059 -0.8811  1.0946
13336TIP3   OH261422   4.074   2.732  17.164  0.2162  0.3914  0.0815
13336TIP3    H161423   4.142   2.664  17.167 -0.4485 -0.3790 -1.2712
13336TIP3    H261424   4.122   2.814  17.171  1.1921 -0.1753  0.2198
13337TIP3   OH261425   6.079   3.129  13.000  0.7958  0.2318 -0.0421
13337TIP3    H161426   6.059   3.137  13.094  2.8419 -0.0092  0.4725
13337TIP3    H261427   6.166   3.168  12.991 -0.5132  2.9779 -2.4223
13338TIP3   OH261428   1.033   3.893  14.449 -0.1721 -0.0683 -0.3544
13338TIP3    H161429   1.031   3.816  14.393 -1.4175 -1.2164  1.1920
13338TIP3    H261430   1.092   3.870  14.520  0.2175  0.7960 -0.3802
13339TIP3   OH261431   5.789   3.695  11.261 -0.5968 -0.3488 -1.0027
13339TIP3    H161432   5.864   3.743  11.295  0.1072 -2.1243  0.0813
13339TIP3    H261433   5.822   3.649  11.184 -0.2107 -2.0392  0.1280
13340TIP3   OH261434   4.018   1.884   5.098 -0.3301 -0.2518  0.4017
13340TIP3    H161435   4.109   1.891   5.127  0.1313 -0.0921 -0.9951
13340TIP3    H261436   3.984   1.973   5.104  0.3818  0.1845 -1.3789
13341TIP3   OH261437   1.578   4.263  13.376  1.0499  0.4700 -0.2175
13341TIP3    H161438   1.583   4.180  13.329 -2.0204  0.1531 -0.1706
13341TIP3    H261439   1.523   4.244  13.452  1.2150  2.3056  0.4113
13342TIP3   OH261440   6.302   3.998   4.865  0.2252  0.0183  0.4389
13342TIP3    H161441   6.304   4.046   4.782 -1.2236  1.0628  0.9662
13342TIP3    H261442   6.367   4.043   4.920 -1.1300  1.4586  0.9346
13343TIP3   OH261443   1.794   0.956   1.770 -0.5818  0.2225  0.6240
13343TIP3    H161444   1.822   0.881   1.821 -0.3547  1.1597  1.9203
13343TIP3    H261445   1.707   0.978   1.804 -1.2018 -0.1901 -0.6102
13344TIP3   OH261446   0.258   2.912  12.769  0.0406 -0.0542  0.2110
13344TIP3    H161447   0.323   2.891  12.701  1.6724 -1.7643  2.1686
13344TIP3    H261448   0.284   2.999  12.801 -0.6795  0.7181 -1.2172
13345TIP3   OH261449   4.797   3.998  15.315 -0.5871  0.5939 -0.2818
13345TIP3    H161450   4.872   4.050  15.285  1.4884 -0.2701  2.9170
13345TIP3    H261451   4.764   4.046  15.391 -1.4639 -0.4872  0.0345
13346TIP3   OH261452   3.755   3.061   3.330  0.1765 -0.2385  0.4607
13346TIP3    H161453   3.734   3.059   3.423 -0.3368  2.8785  0.5182
13346TIP3    H261454   3.833   3.117   3.324  0.6810 -1.0372 -0.9317
13347TIP3   OH261455   0.356   4.864  15.291  0.2436  0.1798 -0.2039
13347TIP3    H161456   0.372   4.774  15.261 -1.0846 -0.3869  0.6764
13347TIP3    H261457   0.443   4.901  15.304  0.8166 -1.0300 -0.4356
13348TIP3   OH261458   1.103   6.381  14.105 -0.0054 -0.4314  0.3990
13348TIP3    H161459   1.184   6.379  14.055 -1.2660  0.5949 -1.8703
13348TIP3    H261460   1.109   6.461  14.158  0.8442 -0.8603  0.9508
13349TIP3   OH261461   5.027   0.165  12.172 -0.3954  0.7330 -0.4545
13349TIP3    H161462   5.108   0.157  12.222  0.4708 -1.4910 -2.0134
13349TIP3    H261463   5.055   0.153  12.081 -1.8089  5.0336 -1.6877
13350TIP3   OH261464   5.901   3.981   4.135 -0.1078 -0.6383 -0.0029
13350TIP3    H161465   5.835   3.958   4.200 -1.4254 -1.3810 -1.5415
13350TIP3    H261466   5.984   3.959   4.176 -0.5545  2.1878  2.7997
13351TIP3   OH261467   5.858   6.645  16.206 -0.2543 -0.4978  0.3298
13351TIP3    H161468   5.897   6.649  16.119  0.4630 -2.3140  0.5287
13351TIP3    H261469   5.810   6.563  16.207 -0.3708 -0.4356  1.6146
13352TIP3   OH261470   0.490   1.051  16.857 -0.4830 -0.1818 -0.4596
13352TIP3    H161471   0.554   1.047  16.785 -0.0665  2.0912 -0.3181
13352TIP3    H261472   0.541   1.082  16.932 -1.6835  1.7945 -0.3767
13353TIP3   OH261473   5.531   0.437   5.264  0.1268  0.0355  0.0433
13353TIP3    H161474   5.621   0.445   5.294 -0.0885  1.8765  0.3679
13353TIP3    H261475   5.480   0.426   5.344  0.0292 -0.6529 -0.1109
13354TIP3   OH261476   0.438   1.412  16.973  0.0991  0.0606  0.0506
13354TIP3    H161477   0.364   1.472  16.978 -0.5446 -0.7854  1.2054
13354TIP3    H261478   0.515   1.469  16.967 -0.4267  1.0666  1.8880
13355TIP3   OH261479   2.949   0.267   5.453  0.2506  0.3079 -0.1190
13355TIP3    H161480   3.015   0.223   5.399  0.2303 -0.0729  0.1632
13355TIP3    H261481   2.984   0.263   5.542 -0.0642  0.2665  0.0041
13356TIP3   OH261482   2.345   3.126  15.844  0.2813 -0.0784  0.4975
13356TIP3    H161483   2.369   3.079  15.764  0.7535  2.1014 -0.7187
13356TIP3    H261484   2.423   3.119  15.900  1.6748  1.9638 -1.0319
13357TIP3   OH261485   2.698   6.250  13.193 -0.4712  0.2363  1.1656
13357TIP3    H161486   2.631   6.316  13.179 -0.1235  1.1885  3.5343
13357TIP3    H261487   2.759   6.291  13.255  3.6666  0.3936 -2.4745
13358TIP3   OH261488   6.331   5.529  11.570  0.0734 -0.3340 -0.0212
13358TIP3    H161489   6.364   5.447  11.532  0.6431 -0.0842 -0.0835
13358TIP3    H261490   6.335   5.592  11.498  1.1599  0.1419  0.4259
13359TIP3   OH261491   3.360   6.480  17.104 -0.1044  0.3796 -0.1681
13359TIP3    H161492   3.364   6.404  17.045 -2.5059  0.8742 -1.1042
13359TIP3    H261493   3.316   6.548  17.052 -1.4957  1.1377  1.8673
13360TIP3   OH261494   4.124   2.131   1.799 -0.3137  0.0547 -0.1593
13360TIP3    H161495   4.075   2.211   1.778  1.1625  1.0666  0.0957
13360TIP3    H261496   4.152   2.097   1.714  0.5888  0.8463 -0.2005
13361TIP3   OH261497   1.282   2.256   0.928  0.4205  0.2974  0.0891
13361TIP3    H161498   1.298   2.239   1.021  0.4159 -0.0077  0.0375
13361TIP3    H261499   1.231   2.336   0.926  0.6788  0.4688  0.3349
13362TIP3   OH261500   2.121   2.124  14.637  0.4684 -0.5341 -0.1341
13362TIP3    H161501   2.161   2.038  14.643  1.3065 -0.1754 -0.3536
13362TIP3    H261502   2.165   2.166  14.563  0.3987  0.2380  0.2427
13363TIP3   OH261503   5.993   0.978  11.654  0.8458 -0.1076  0.2290
13363TIP3    H161504   5.995   0.891  11.615  3.0985 -0.1124  0.2259
13363TIP3    H261505   5.946   1.032  11.590 -0.6452 -1.3025  0.2789
13364TIP3   OH261506   6.292   2.576  13.172 -0.1824 -0.2944  0.2619
13364TIP3    H161507   6.366   2.591  13.113  0.6519 -1.7794  0.8555
13364TIP3    H261508   6.278   2.660  13.216  0.4237  0.3049 -0.6594
13365TIP3   OH261509   1.621   5.977  16.165 -0.3511  0.2669  0.2000
13365TIP3    H161510   1.628   5.981  16.070 -1.2202  0.9827  0.1627
13365TIP3    H261511   1.609   5.884  16.184 -1.6013  0.2620 -0.5041
13366TIP3   OH261512   2.791   0.291  11.060  0.7625 -0.0511  0.1902
13366TIP3    H161513   2.711   0.301  11.009  1.7700  0.5198 -1.3659
13366TIP3    H261514   2.803   0.376  11.102  0.6177 -0.1032  0.3392
13367TIP3   OH261515   0.503   4.639   4.255 -0.1963 -0.4605 -0.2922
13367TIP3    H161516   0.581   4.617   4.307  1.2206  2.5617 -0.9506
13367TIP3    H261517   0.431   4.595   4.300  1.6819 -2.3070  1.0893
13368TIP3   OH261518   5.081   4.235   4.766  0.2413  0.3011 -0.1333
13368TIP3    H161519   5.113   4.222   4.676 -0.4887  0.7456 -0.4702
13368TIP3    H261520   4.988   4.211   4.761  0.2304  0.2038  0.5384
13369TIP3   OH261521   2.573   5.423  15.549  0.0731 -0.5807 -0.2368
13369TIP3    H161522   2.563   5.506  15.597  0.8447 -0.7946  0.3297
13369TIP3    H261523   2.657   5.432  15.504  0.7535 -1.4856  0.7755
13370TIP3   OH261524   2.496   6.680   5.965 -0.0361  0.1130 -0.3706
13370TIP3    H161525   2.518   6.709   6.054 -1.8812  1.8403 -0.4002
13370TIP3    H261526   2.581   6.665   5.923  0.9744  2.0021  0.8451
13371TIP3   OH261527   6.636   4.913  13.473  0.4953 -0.4356  0.2375
13371TIP3    H161528   6.726   4.933  13.445 -0.1514  0.8105 -1.1244
13371TIP3    H261529   6.626   4.960  13.556  1.1840 -0.8467  0.5688
13372TIP3   OH261530   1.490   5.019  14.533 -0.6982  0.0678  0.3525
13372TIP3    H161531   1.433   5.010  14.609 -1.6702 -1.5309 -0.5202
13372TIP3    H261532   1.433   5.050  14.463  0.5248  3.2756  0.6077
13373TIP3   OH261533   1.445   6.024   6.178 -0.2476  0.1140  0.3007
13373TIP3    H161534   1.406   6.036   6.092 -1.0587 -0.0511  0.6402
13373TIP3    H261535   1.378   5.978   6.229  0.9440 -1.4987  0.4721
13374TIP3   OH261536   0.983   4.314  11.206  0.0712  0.0949  0.2563
13374TIP3    H161537   0.902   4.362  11.189 -0.7254 -0.7222  1.6119
13374TIP3    H261538   1.052   4.374  11.177 -1.0089  0.6460 -1.2842
13375TIP3   OH261539   3.507   6.663  16.408 -0.0577  0.5379  0.1085
13375TIP3    H161540   3.528   6.736  16.466 -0.3995 -0.7583  1.9662
13375TIP3    H261541   3.561   6.591  16.441 -0.6953 -0.4006 -0.8374
13376TIP3   OH261542   5.691   4.096  17.325 -0.1649  0.5745  0.2124
13376TIP3    H161543   5.624   4.063  17.386 -0.6928 -1.6068 -1.4304
13376TIP3    H261544   5.765   4.037  17.336  1.4941  2.7752  1.7705
13377TIP3   OH261545   4.776   2.535   3.410  0.2775 -0.1689 -0.8714
13377TIP3    H161546   4.712   2.574   3.351  0.0377 -0.4831 -0.8221
13377TIP3    H261547   4.788   2.600   3.479 -0.4737 -0.3785 -0.5366
13378TIP3   OH261548   3.904   2.343   6.662  0.4128  0.3522  0.2527
13378TIP3    H161549   3.855   2.327   6.581 -2.2061 -0.3454  1.8307
13378TIP3    H261550   3.837   2.370   6.724  2.3580  0.9688  2.1933
13379TIP3   OH261551   2.765   5.612   0.740 -0.3537 -0.0228 -0.4956
13379TIP3    H161552   2.713   5.613   0.820 -1.5089  1.3905 -1.2365
13379TIP3    H261553   2.839   5.669   0.759 -0.4525  0.0491 -0.3276
13380TIP3   OH261554   1.540   1.097  14.569 -0.6698  0.6612  0.6766
13380TIP3    H161555   1.602   1.168  14.587  1.5250 -0.8091 -0.5180
13380TIP3    H261556   1.577   1.052  14.493 -2.9569 -0.6826  0.2660
13381TIP3   OH261557   2.762   6.485   2.823 -0.2156  1.2880 -0.3899
13381TIP3    H161558   2.803   6.571   2.828 -0.5808  1.3856  2.2009
13381TIP3    H261559   2.835   6.424   2.818  0.0671  1.6836 -1.2652
13382TIP3   OH261560   1.289   1.261   5.330  0.0344 -0.2383 -0.1259
13382TIP3    H161561   1.364   1.314   5.303 -1.0590 -0.0691 -3.1381
13382TIP3    H261562   1.311   1.172   5.302 -1.3145  0.0151 -2.2366
13383TIP3   OH261563   6.111   0.748  16.978 -0.1363  0.3905 -0.4122
13383TIP3    H161564   6.116   0.817  16.911  1.0249 -0.4818 -1.2597
13383TIP3    H261565   6.197   0.746  17.018 -0.3512 -0.1441  0.0411
13384TIP3   OH261566   6.228   5.550   0.595 -0.1138  0.4806 -0.4653
13384TIP3    H161567   6.205   5.585   0.509  0.6135 -0.7576 -1.1978
13384TIP3    H261568   6.156   5.577   0.652 -0.3238  1.8129 -1.3235
13385TIP3   OH261569   1.017   3.911  14.744 -0.4878  0.7471 -0.6376
13385TIP3    H161570   0.957   3.941  14.812  1.3842  1.5693  0.7496
13385TIP3    H261571   0.964   3.855  14.688 -1.6804 -1.8378  2.7474
13386TIP3   OH261572   0.101   3.327  11.145  0.2627  0.3927  0.1380
13386TIP3    H161573   0.019   3.375  11.157 -0.5830 -1.2112  1.1008
13386TIP3    H261574   0.099   3.300  11.053 -0.2911  0.3621  0.1525
13387TIP3   OH261575   5.533   0.618   6.099  0.2671  0.2744  0.0599
13387TIP3    H161576   5.536   0.700   6.049 -0.7256  0.7644  0.7671
13387TIP3    H261577   5.617   0.615   6.144 -0.3247  1.7986  1.3604
13388TIP3   OH261578   2.990   5.167  15.639  0.3666 -0.0159 -0.2222
13388TIP3    H161579   2.913   5.172  15.696  0.2152  0.5463 -0.4657
13388TIP3    H261580   2.956   5.138  15.554  0.4028  0.3106 -0.3528
13389TIP3   OH261581   2.934   4.922   1.583  0.1545 -0.1117 -0.3096
13389TIP3    H161582   2.980   5.003   1.560  0.7378 -0.2590  0.2955
13389TIP3    H261583   2.856   4.923   1.529 -0.1903  1.1905  0.1619
13390TIP3   OH261584   1.833   0.897   5.631  0.0537  0.1730 -0.0107
13390TIP3    H161585   1.802   0.988   5.626 -2.6892 -0.6870 -0.1808
13390TIP3    H261586   1.870   0.890   5.719  1.9674  1.8829 -0.6047
13391TIP3   OH261587   3.421   0.095  15.028  0.0456  0.2609  0.5600
13391TIP3    H161588   3.448   0.017  15.075  0.8232 -0.7843 -1.4986
13391TIP3    H261589   3.329   0.108  15.052  0.0211 -1.0604  1.2372
13392TIP3   OH261590   2.829   5.159  16.283  0.2251 -0.4274  0.7101
13392TIP3    H161591   2.744   5.192  16.253  0.2471 -1.1170 -0.1526
13392TIP3    H261592   2.848   5.210  16.362 -1.0242 -0.3072  0.9568
13393TIP3   OH261593   4.981   1.961   3.576  0.1362  0.6277  0.1388
13393TIP3    H161594   4.924   2.029   3.539 -0.2415  1.2448  1.7508
13393TIP3    H261595   5.059   1.962   3.520 -0.9132  0.5925 -1.3934
13394TIP3   OH261596   0.638   6.225  14.573 -0.0928  0.5652 -0.0177
13394TIP3    H161597   0.547   6.252  14.562  0.0455  0.4594 -1.6545
13394TIP3    H261598   0.677   6.237  14.486  1.4852  0.7106  0.6755
13395TIP3   OH261599   0.450   6.327  13.835 -0.3200 -0.0792 -0.5307
13395TIP3    H161600   0.489   6.355  13.918 -0.2872  0.4203 -0.7092
13395TIP3    H261601   0.523   6.329  13.772 -0.2439 -0.8966 -0.4802
13396TIP3   OH261602   1.119   0.555  13.568  0.4268 -0.3030  0.2967
13396TIP3    H161603   1.146   0.574  13.658  1.4057 -1.3236  0.2368
13396TIP3    H261604   1.129   0.638  13.521  1.3148 -0.1209  0.8008
13397TIP3   OH261605   4.614   0.904  11.183 -0.5046  0.0044  0.4147
13397TIP3    H161606   4.614   0.883  11.276  0.2275 -0.9875  0.2069
13397TIP3    H261607   4.707   0.913  11.160 -0.6263 -0.7102 -0.4108
13398TIP3   OH261608   0.880   6.360   4.516 -0.1689 -0.3565  0.1488
13398TIP3    H161609   0.975   6.369   4.522 -0.2669 -0.1238  1.6686
13398TIP3    H261610   0.865   6.266   4.509  0.1996 -0.3378 -1.3637
13399TIP3   OH261611   0.281   2.773  13.064  0.1054  0.3378 -0.3517
13399TIP3    H161612   0.207   2.775  13.004 -0.2360  0.4000  0.0672
13399TIP3    H261613   0.262   2.841  13.128  1.0611  1.1216 -0.8629
13400TIP3   OH261614   2.585   0.382  12.805  0.3328 -0.0036  0.5345
13400TIP3    H161615   2.578   0.291  12.778  1.2920  0.0192  0.1528
13400TIP3    H261616   2.587   0.432  12.723 -0.9028  0.4324  0.7531
13401TIP3   OH261617   3.772   3.842  14.028 -0.2436 -0.2005 -0.1995
13401TIP3    H161618   3.804   3.928  14.054  0.8052 -0.1657 -1.5564
13401TIP3    H261619   3.797   3.784  14.101 -0.6894  0.5554  0.5743
13402TIP3   OH261620   1.852   5.575   2.328 -0.0296 -0.3866 -0.0078
13402TIP3    H161621   1.935   5.541   2.292  0.6186  0.6352  0.4766
13402TIP3    H261622   1.845   5.531   2.413 -0.2914 -0.9146 -0.2961
13403TIP3   OH261623   0.988   0.728   5.679  0.1981 -0.1342 -0.0054
13403TIP3    H161624   0.980   0.795   5.611 -0.1409 -0.5254 -0.3564
13403TIP3    H261625   1.082   0.708   5.681  0.3165  0.4164  0.1725
13404TIP3   OH261626   3.263   1.928   5.764 -0.1324  0.0800 -0.1166
13404TIP3    H161627   3.282   2.018   5.789  1.5226 -0.5947  1.2288
13404TIP3    H261628   3.188   1.903   5.818 -1.2332  0.9185 -1.2011
13405TIP3   OH261629   3.325   2.535  11.200  0.7784 -0.2516  0.0776
13405TIP3    H161630   3.344   2.629  11.199  1.0668 -0.3117 -1.6620
13405TIP3    H261631   3.229   2.530  11.203  0.7620  0.0884  0.2152
13406TIP3   OH261632   2.333   5.074   5.934  0.2511 -0.1322 -0.7152
13406TIP3    H161633   2.258   5.085   5.993  0.2658  0.3732 -0.7839
13406TIP3    H261634   2.297   5.092   5.847  0.2152 -0.9395 -0.8721
13407TIP3   OH261635   5.295   1.585  14.109 -0.7375  0.5395  1.1893
13407TIP3    H161636   5.314   1.525  14.037  1.0227  0.2519  1.8595
13407TIP3    H261637   5.276   1.669  14.066  1.2666  0.6343  0.3960
13408TIP3   OH261638   3.007   4.642  15.495  0.0399  0.2200  0.0277
13408TIP3    H161639   2.921   4.681  15.481  0.1847 -0.2461 -2.8057
13408TIP3    H261640   3.011   4.569  15.433  1.8700 -0.8390  1.2756
13409TIP3   OH261641   1.085   0.081   0.763 -0.3688  0.0477  0.0180
13409TIP3    H161642   1.144   0.090   0.838  0.1776 -2.7349  0.0495
13409TIP3    H261643   1.044   0.167   0.754  1.8028  1.3428  1.5819
13410TIP3   OH261644   0.918   0.844   4.971 -0.4201  0.0158 -0.1409
13410TIP3    H161645   0.845   0.901   4.946  0.2190  0.1673 -1.7820
13410TIP3    H261646   0.996   0.891   4.942  0.2492 -0.7598  0.3651
13411TIP3   OH261647   3.501   5.998   5.458  0.4106  0.1161 -0.1604
13411TIP3    H161648   3.507   6.047   5.540  0.4985  1.1175 -0.7405
13411TIP3    H261649   3.419   5.949   5.465  0.5732 -0.0542  0.6522
13412TIP3   OH261650   2.955   6.675   3.255  0.3789 -0.7294  0.4328
13412TIP3    H161651   3.005   6.652   3.334  1.6421 -1.3340 -0.5131
13412TIP3    H261652   2.866   6.645   3.274  1.3039 -3.8027  0.4516
13413TIP3   OH261653   3.680   5.359   4.437  0.0256 -0.3741 -0.3143
13413TIP3    H161654   3.734   5.308   4.497 -0.1110  0.6422  0.7048
13413TIP3    H261655   3.590   5.347   4.468  0.1433  2.0694  1.2640
13414TIP3   OH261656   1.074   1.674  15.519  0.0314 -0.0390 -0.3563
13414TIP3    H161657   1.032   1.591  15.540 -2.6871  1.1388 -0.7276
13414TIP3    H261658   1.005   1.727  15.479  1.1102  3.0587  1.4743
13415TIP3   OH261659   5.567   2.230  13.730  0.5174 -0.5982  0.1931
13415TIP3    H161660   5.558   2.140  13.764  1.6586 -1.2741 -1.1884
13415TIP3    H261661   5.661   2.248  13.733  0.3199  0.4826  0.2622
13416TIP3   OH261662   3.466   2.393  12.922 -0.5500  0.3004  0.1367
13416TIP3    H161663   3.517   2.332  12.869 -0.0515 -0.9075  1.9158
13416TIP3    H261664   3.382   2.351  12.935 -1.3022  1.3641 -1.0645
13417TIP3   OH261665   5.179   5.987   4.589  0.3941 -0.4667  0.1568
13417TIP3    H161666   5.139   6.071   4.569 -1.8826 -1.1037  1.6883
13417TIP3    H261667   5.139   5.926   4.526 -0.0093 -0.8565  0.7794
13418TIP3   OH261668   5.326   4.532   0.320  0.8143 -0.0284 -0.1055
13418TIP3    H161669   5.293   4.460   0.373  1.8348 -1.9963 -1.9704
13418TIP3    H261670   5.261   4.542   0.250  1.2949 -0.0312 -0.5595
13419TIP3   OH261671   0.494   5.830   3.498  0.3191 -0.7197 -0.2992
13419TIP3    H161672   0.414   5.782   3.518  1.9555 -3.1945  0.7963
13419TIP3    H261673   0.468   5.894   3.432 -2.9033 -0.1761  1.2954
13420TIP3   OH261674   5.205   0.495   0.630 -0.4043 -0.3646 -0.1591
13420TIP3    H161675   5.200   0.587   0.656 -0.7908 -0.3419 -0.3017
13420TIP3    H261676   5.193   0.446   0.711 -2.9909 -0.3137 -0.4181
13421TIP3   OH261677   5.585   2.014  13.932  0.3177  0.2072  0.1209
13421TIP3    H161678   5.632   2.029  14.014 -0.7894  0.4867  0.7244
13421TIP3    H261679   5.650   1.975  13.874  2.1071  3.1160 -0.0268
13422TIP3   OH261680   5.578   3.560   4.006  0.3490  0.7836 -0.1515
13422TIP3    H161681   5.556   3.653   4.018  0.2571  0.7930 -0.3945
13422TIP3    H261682   5.498   3.514   4.033 -0.2119  0.8415 -1.6329
13423TIP3   OH261683   6.593   0.290  13.424 -0.0557  0.2870  0.2478
13423TIP3    H161684   6.538   0.342  13.482 -2.3404 -1.6557 -0.0478
13423TIP3    H261685   6.531   0.242  13.369  1.8540 -2.8700  0.6217
13424TIP3   OH261686   0.958   4.660  14.710 -0.1773  0.0856  0.1498
13424TIP3    H161687   0.864   4.655  14.730 -0.2039 -0.8066 -0.1396
13424TIP3    H261688   0.966   4.614  14.626  0.6775 -0.8245  0.7123
13425TIP3   OH261689   1.732   1.270   1.920 -0.2268  0.0433 -0.6905
13425TIP3    H161690   1.744   1.355   1.962  3.0029 -0.1274 -1.0328
13425TIP3    H261691   1.756   1.206   1.988  2.0824 -0.3268 -1.7436
13426TIP3   OH261692   1.589   3.249   0.878 -0.6136 -0.2104 -0.0817
13426TIP3    H161693   1.555   3.320   0.931 -1.6922 -1.5588  1.1215
13426TIP3    H261694   1.639   3.195   0.939  0.7046 -0.1634 -1.0973
13427TIP3   OH261695   4.769   0.002   5.672 -0.0583 -0.9389  0.5147
13427TIP3    H161696   4.840   0.046   5.625 -0.2739 -2.6201 -1.5141
13427TIP3    H261697   4.697   0.065   5.670  0.5245 -0.2627  0.2172
13428TIP3   OH261698   0.107   0.524   4.065  0.1218  0.3876  0.4182
13428TIP3    H161699   0.079   0.616   4.066 -0.8085  0.1225  0.3791
13428TIP3    H261700   0.164   0.515   4.141 -0.1512  0.8921  0.6886
13429TIP3   OH261701   3.577   6.056  13.453 -0.8479  0.0037 -1.0446
13429TIP3    H161702   3.516   6.032  13.383 -0.1059 -1.8474 -1.1073
13429TIP3    H261703   3.570   5.984  13.516  1.9640 -0.8516 -1.5459
13430TIP3   OH261704   4.742   4.072  11.774  0.1491 -0.2141  0.6750
13430TIP3    H161705   4.760   4.144  11.835  2.7785  0.0979 -0.3452
13430TIP3    H261706   4.718   4.115  11.692 -0.3870 -0.5630  0.6453
13431TIP3   OH261707   4.434   3.644   5.419  0.5837  0.2142  0.1034
13431TIP3    H161708   4.476   3.619   5.502 -2.5358  0.2383  1.8398
13431TIP3    H261709   4.355   3.591   5.415  0.7628 -0.0323 -3.1323
13432TIP3   OH261710   6.336   2.948   3.778 -0.2507 -0.5369  1.1352
13432TIP3    H161711   6.245   2.918   3.770  0.2401 -1.7031 -0.7605
13432TIP3    H261712   6.339   3.028   3.726  0.2494 -1.7034 -0.7418
13433TIP3   OH261713   2.438   3.871   3.559  0.4958 -0.3975 -0.0832
13433TIP3    H161714   2.485   3.811   3.501 -0.7266 -0.1110 -1.4493
13433TIP3    H261715   2.402   3.937   3.499  0.5564  0.8433  1.2124
13434TIP3   OH261716   0.984   1.937  16.573  0.6286  0.3200  0.2857
13434TIP3    H161717   1.075   1.967  16.581  0.8329  0.6049 -2.3690
13434TIP3    H261718   0.982   1.888  16.491 -1.5198 -0.1203  0.5390
13435TIP3   OH261719   0.340   2.206  13.010 -0.0213  0.4725  0.3081
13435TIP3    H161720   0.429   2.207  13.043  0.0318  0.3589  0.1711
13435TIP3    H261721   0.304   2.122  13.040  0.6292 -0.5059 -1.4725
13436TIP3   OH261722   0.347   4.988  16.126  0.3515  0.2651  0.5559
13436TIP3    H161723   0.397   5.053  16.175  1.1007  0.0740  0.0680
13436TIP3    H261724   0.396   4.977  16.044  0.7046 -1.5288  0.9769
13437TIP3   OH261725   6.335   1.629  11.729  0.2280  0.6591 -0.1999
13437TIP3    H161726   6.424   1.634  11.694  0.4878 -0.8805  0.1434
13437TIP3    H261727   6.280   1.613  11.652  0.1502  2.2386 -0.4918
13438TIP3   OH261728   4.321   5.270   6.269  0.0781 -0.4830  0.7022
13438TIP3    H161729   4.290   5.201   6.210 -0.3205 -0.5909  1.0382
13438TIP3    H261730   4.255   5.339   6.262  0.9091  0.2443 -0.2942
13439TIP3   OH261731   2.710   5.489   1.835 -0.5684  0.7660  0.2517
13439TIP3    H161732   2.716   5.406   1.883 -1.5440 -1.3148 -2.8841
13439TIP3    H261733   2.641   5.538   1.880  1.1406  0.7180  3.1730
13440TIP3   OH261734   4.798   0.037   4.994  0.2638 -0.0072  0.2443
13440TIP3    H161735   4.738   0.062   5.064 -0.9607 -2.2007  0.0841
13440TIP3    H261736   4.749  -0.026   4.942  0.4446  2.7665 -3.7407
13441TIP3   OH261737   1.963   3.911  14.961  0.4640 -0.0905  0.2690
13441TIP3    H161738   1.978   4.001  14.932  1.1265 -0.6839 -1.3364
13441TIP3    H261739   2.051   3.873  14.967  0.2129 -0.5324  1.3017
13442TIP3   OH261740   4.141   4.390   1.691  0.4321  0.5381 -0.4673
13442TIP3    H161741   4.115   4.306   1.653  0.3468  0.5618 -0.4624
13442TIP3    H261742   4.059   4.438   1.703  0.1844 -0.3601  1.9376
13443TIP3   OH261743   2.657   3.108  17.073 -0.2837  0.4001 -0.2194
13443TIP3    H161744   2.728   3.101  17.009 -0.5827 -1.1468 -0.4026
13443TIP3    H261745   2.645   3.203  17.084  1.2873  0.6895 -0.7514
13444TIP3   OH261746   4.841   2.125  12.980 -1.2153 -0.0651  0.1686
13444TIP3    H161747   4.881   2.183  12.914 -1.7058  2.9750  2.3011
13444TIP3    H261748   4.841   2.039  12.939 -0.5426  1.4094 -3.3644
13445TIP3   OH261749   2.988   3.914   4.953 -0.0597 -0.1046 -0.5922
13445TIP3    H161750   2.916   3.860   4.920 -0.0877 -0.3286 -0.1745
13445TIP3    H261751   3.051   3.851   4.989  0.2471  0.1024 -0.7551
13446TIP3   OH261752   4.100   3.579  13.283  0.1614  0.2950  0.1185
13446TIP3    H161753   4.051   3.519  13.227 -0.4952  0.4205  0.5440
13446TIP3    H261754   4.181   3.533  13.303 -0.3461 -0.4615  0.4628
13447TIP3   OH261755   0.268   6.674  13.864 -0.0861 -0.2329 -0.4365
13447TIP3    H161756   0.215   6.606  13.822 -1.6590  1.5807 -1.5507
13447TIP3    H261757   0.207   6.720  13.921  0.5733  1.1486 -0.8063
13448TIP3   OH261758   0.550   2.370   1.152 -0.2215 -0.3502  0.8272
13448TIP3    H161759   0.603   2.447   1.173 -1.5654  1.4942 -1.9294
13448TIP3    H261760   0.483   2.367   1.221  1.1369 -0.4348  2.1925
13449TIP3   OH261761   3.740   3.235   4.211  0.4105  0.4419  0.1705
13449TIP3    H161762   3.734   3.224   4.306 -0.3149  0.5066  0.1381
13449TIP3    H261763   3.784   3.320   4.199  0.2902  0.5422  0.4486
13450TIP3   OH261764   3.139   3.145  15.056 -0.1752 -1.1838  0.3927
13450TIP3    H161765   3.051   3.108  15.056 -0.2611 -1.0120  1.4932
13450TIP3    H261766   3.139   3.208  15.127  0.0506  0.7780 -1.2453
13451TIP3   OH261767   4.112   2.274   2.806 -0.7044 -0.3772 -0.4350
13451TIP3    H161768   4.195   2.288   2.759 -0.5080 -0.7404 -0.2013
13451TIP3    H261769   4.047   2.321   2.754 -0.2407  0.5081 -0.2411
13452TIP3   OH261770   4.934   1.213   1.501 -0.2916 -0.0651  0.1687
13452TIP3    H161771   4.907   1.302   1.479 -2.3125 -0.7093 -0.1302
13452TIP3    H261772   4.967   1.220   1.591 -1.5628  0.7805  0.5947
13453TIP3   OH261773   3.364   3.545  14.829 -0.6860  0.5831  0.2396
13453TIP3    H161774   3.355   3.641  14.836 -0.4626  0.5866  0.5042
13453TIP3    H261775   3.452   3.527  14.861 -0.6088  0.3171 -0.1274
13454TIP3   OH261776   1.543   2.078   2.102 -0.3895  0.0791  0.1881
13454TIP3    H161777   1.624   2.097   2.149  0.5616  0.4811 -1.5307
13454TIP3    H261778   1.527   1.985   2.119  2.0904 -0.8269 -1.7740
13455TIP3   OH261779   3.222   6.389   4.643  0.2497 -0.4414  0.1804
13455TIP3    H161780   3.219   6.380   4.738  0.4488  1.4408  0.3989
13455TIP3    H261781   3.134   6.366   4.613 -0.1952  0.2067  0.9589
13456TIP3   OH261782   5.530   5.919  14.561 -0.0377 -0.3742 -0.1281
13456TIP3    H161783   5.602   5.961  14.608  0.4100  0.1891 -1.2796
13456TIP3    H261784   5.506   5.981  14.492 -1.5820 -0.5847  0.1651
13457TIP3   OH261785   5.757   4.225  17.034 -0.0913 -0.0622  0.3961
13457TIP3    H161786   5.697   4.168  16.987 -1.2115  1.6763 -0.3878
13457TIP3    H261787   5.769   4.183  17.119 -0.2656 -1.8142 -0.4076
13458TIP3   OH261788   0.854   0.807  10.944  0.0078  0.1307 -0.0234
13458TIP3    H161789   0.840   0.901  10.949  1.8742  0.3999  0.9145
13458TIP3    H261790   0.797   0.771  11.013 -0.4039  0.5906 -0.1156
13459TIP3   OH261791   6.151   1.179  14.664 -0.3821  0.2613 -0.0795
13459TIP3    H161792   6.145   1.214  14.575  2.0870 -0.0693 -0.4498
13459TIP3    H261793   6.118   1.090  14.658  0.6258 -0.0678 -0.8914
13460TIP3   OH261794   4.601   2.719   2.902  0.3284 -0.3442  0.7999
13460TIP3    H161795   4.670   2.771   2.861 -1.3383  0.7029 -0.8275
13460TIP3    H261796   4.546   2.784   2.946 -0.8160 -0.8977  0.2264
13461TIP3   OH261797   4.091   1.292   1.610  0.4710 -0.2278 -0.2309
13461TIP3    H161798   4.116   1.378   1.645 -0.0982 -0.7012  1.4451
13461TIP3    H261799   4.139   1.285   1.527 -0.0979  2.0261 -0.8191
13462TIP3   OH261800   1.288   5.817   0.515  0.1608  0.1011  0.1942
13462TIP3    H161801   1.224   5.869   0.564  0.0823 -0.3640  0.6047
13462TIP3    H261802   1.372   5.857   0.535 -0.1771  2.3862 -2.4567
13463TIP3   OH261803   5.877   6.560  13.038 -0.4832  0.3963 -0.0415
13463TIP3    H161804   5.789   6.576  13.071 -0.0616  2.3453  0.2800
13463TIP3    H261805   5.887   6.620  12.964  0.8270  0.7722  0.4014
13464TIP3   OH261806   0.945   3.841   1.374 -0.7102 -0.3028 -0.3666
13464TIP3    H161807   0.890   3.890   1.315 -1.7763  0.5605  1.2660
13464TIP3    H261808   0.895   3.762   1.395 -1.0184  0.1026  0.4969
13465TIP3   OH261809   1.042   3.860   2.450  0.0114  0.3048  0.3044
13465TIP3    H161810   1.089   3.906   2.381  0.3547  0.6917  0.7866
13465TIP3    H261811   1.065   3.767   2.438  1.9377  0.6103  1.2925
13466TIP3   OH261812   0.136   3.047  11.042  0.1942  0.3748  0.4350
13466TIP3    H161813   0.089   3.114  10.992  0.2698 -0.0447 -0.2086
13466TIP3    H261814   0.220   3.039  10.998 -0.1269 -0.7346 -0.0195
13467TIP3   OH261815   6.327   2.753   5.413  0.4071 -0.4148 -0.0372
13467TIP3    H161816   6.322   2.834   5.362  0.6428 -0.4830 -0.1698
13467TIP3    H261817   6.370   2.779   5.495 -0.5322 -0.1769  0.3961
13468TIP3   OH261818   4.938   3.633  10.907 -0.0463  0.0374 -0.3234
13468TIP3    H161819   4.954   3.648  11.000 -0.6845 -2.2502  0.2156
13468TIP3    H261820   4.854   3.675  10.889  0.1135  0.5437  0.1059
13469TIP3   OH261821   2.041   2.448  12.421  0.1864  0.1689 -0.5673
13469TIP3    H161822   1.987   2.438  12.499  1.2149 -0.6626  0.0715
13469TIP3    H261823   2.008   2.527  12.378  0.5457  1.5293  1.5019
13470TIP3   OH261824   5.021   3.698   1.894  0.4505 -0.0511 -0.0702
13470TIP3    H161825   5.076   3.760   1.845  0.4538  0.3257  0.4003
13470TIP3    H261826   4.952   3.753   1.932 -0.9345 -0.6590 -1.5841
13471TIP3   OH261827   3.061   4.714  13.188 -0.0365  0.5154  0.4251
13471TIP3    H161828   3.099   4.628  13.170  0.5195  0.5124  1.5367
13471TIP3    H261829   3.106   4.773  13.127  2.8572  0.7471  2.5513
13472TIP3   OH261830   1.287   5.707   1.584 -0.0710  0.1027 -0.4938
13472TIP3    H161831   1.343   5.633   1.561 -1.0598 -0.1011 -2.5064
13472TIP3    H261832   1.334   5.784   1.552  0.0834  0.1550 -0.1419
13473TIP3   OH261833   6.733   2.576  16.244 -0.2734  0.4845 -0.1302
13473TIP3    H161834   6.651   2.624  16.255 -0.6875 -0.4554  1.1912
13473TIP3    H261835   6.716   2.491  16.284  0.7682 -0.4059 -1.4864
13474TIP3   OH261836   2.664   3.420  15.696  0.2032 -0.2312  0.3994
13474TIP3    H161837   2.721   3.369  15.638 -0.9260  0.0654 -1.0467
13474TIP3    H261838   2.576   3.409  15.659 -0.3368  1.2240  1.1590
13475TIP3   OH261839   5.267   2.781  15.079 -0.0391  0.0923  0.5355
13475TIP3    H161840   5.178   2.810  15.058 -0.2065  0.4056  1.6012
13475TIP3    H261841   5.256   2.725  15.156  0.8139  1.2351  1.5323
13476TIP3   OH261842   0.332   2.833  15.380 -0.2256  0.1417  0.2427
13476TIP3    H161843   0.261   2.784  15.339  0.0283  0.9629 -1.2527
13476TIP3    H261844   0.291   2.877  15.454 -1.0169 -0.2835  0.0747
13477TIP3   OH261845   0.771   4.146  16.786  0.1127  0.2442 -0.2608
13477TIP3    H161846   0.846   4.174  16.734  0.4099  1.8832  0.9751
13477TIP3    H261847   0.792   4.056  16.811  0.9249  0.1515 -1.1957
13478TIP3   OH261848   4.440   1.976  15.420 -0.2233 -0.3005  0.3197
13478TIP3    H161849   4.503   2.045  15.441 -0.7927  0.3137  0.0650
13478TIP3    H261850   4.435   1.922  15.499  0.7457 -0.4674  0.2822
13479TIP3   OH261851   5.538   4.128   3.979 -0.0706 -0.2837 -0.4686
13479TIP3    H161852   5.617   4.175   4.007  0.6214  0.0616 -2.7831
13479TIP3    H261853   5.468   4.194   3.984  0.2711  0.0986 -0.7418
13480TIP3   OH261854   6.229   5.878   1.962 -0.2016  0.1200 -0.0957
13480TIP3    H161855   6.164   5.810   1.982 -0.6413  0.8248  0.9879
13480TIP3    H261856   6.269   5.850   1.880  0.1789 -1.8421  0.7030
13481TIP3   OH261857   1.744   4.827   4.301  0.1270 -0.1795  0.1242
13481TIP3    H161858   1.655   4.799   4.281  0.0303  0.0774  0.1919
13481TIP3    H261859   1.800   4.761   4.261 -0.1083 -0.6578  0.5825
13482TIP3   OH261860   0.595   4.248  10.556 -0.6999 -0.7078 -0.4758
13482TIP3    H161861   0.570   4.318  10.617 -0.6210 -1.9141  1.0223
13482TIP3    H261862   0.559   4.168  10.596 -1.9106 -1.4040 -2.7822
13483TIP3   OH261863   6.233   1.600  16.177 -0.1212  0.1772 -0.5823
13483TIP3    H161864   6.311   1.603  16.122  0.7536 -0.0617  0.5960
13483TIP3    H261865   6.259   1.546  16.252 -0.8702  1.4305  0.6289
13484TIP3   OH261866   2.147   2.917  11.856  0.6070 -0.3373 -0.3057
13484TIP3    H161867   2.068   2.971  11.855 -0.5359 -1.8641  1.4958
13484TIP3    H261868   2.141   2.865  11.776 -0.5779 -0.9107  0.1376
13485TIP3   OH261869   3.721   1.787   0.155 -0.2053  0.1357 -0.1801
13485TIP3    H161870   3.796   1.749   0.200 -0.6535 -1.2129 -0.5235
13485TIP3    H261871   3.646   1.761   0.208 -0.8636 -2.4837 -2.2160
13486TIP3   OH261872   4.172   0.148   2.712 -0.2345 -0.5311 -0.0310
13486TIP3    H161873   4.149   0.238   2.690 -0.7117 -0.5482  0.3673
13486TIP3    H261874   4.125   0.094   2.648 -0.3469 -0.5165  0.0392
13487TIP3   OH261875   1.917   6.042   4.532 -0.0521 -0.0681  0.0063
13487TIP3    H161876   1.826   6.055   4.504 -0.0715  2.8073  1.0823
13487TIP3    H261877   1.913   5.965   4.588 -2.0258  0.4661  0.7028
13488TIP3   OH261878   5.840   2.789   1.576  0.1933 -0.5261  0.5626
13488TIP3    H161879   5.805   2.744   1.652 -1.3535 -1.2040 -0.4958
13488TIP3    H261880   5.852   2.880   1.605  0.6158 -0.9948  1.8894
13489TIP3   OH261881   4.883   2.791   1.337  0.1535 -0.1718 -0.2769
13489TIP3    H161882   4.870   2.818   1.428  0.5969  1.4535 -0.6492
13489TIP3    H261883   4.978   2.792   1.325  0.0700  0.7474 -1.0406
13490TIP3   OH261884   4.671   6.136   0.301  0.1390  0.2345  0.9373
13490TIP3    H161885   4.620   6.117   0.222 -0.5338 -0.7561  1.5944
13490TIP3    H261886   4.646   6.068   0.363  1.1940  0.5821  1.7725
13491TIP3   OH261887   2.995   1.509   3.588 -0.5044  0.0305 -0.3403
13491TIP3    H161888   3.048   1.582   3.622 -0.8983  1.3822 -2.4081
13491TIP3    H261889   3.018   1.435   3.643 -0.1742  1.7251  1.9728
13492TIP3   OH261890   4.197   1.053   1.745 -0.4014  0.6948 -0.2795
13492TIP3    H161891   4.146   1.103   1.680 -0.0163  2.9132  1.0143
13492TIP3    H261892   4.139   1.048   1.821 -0.5019 -1.0957 -0.4392
13493TIP3   OH261893   4.599   0.768  14.941  0.0421 -0.1797 -0.0699
13493TIP3    H161894   4.628   0.685  14.979 -0.0192 -0.5054 -0.7133
13493TIP3    H261895   4.588   0.748  14.848 -0.6823  0.3649 -0.1030
13494TIP3   OH261896   5.703   3.812  15.748  0.1504  0.2642  0.4128
13494TIP3    H161897   5.746   3.758  15.814 -1.8215  0.4084  1.8999
13494TIP3    H261898   5.679   3.892  15.794 -1.3796  0.3207 -0.4037
13495TIP3   OH261899   2.999   4.235   5.232  0.4901 -0.2778 -0.0488
13495TIP3    H161900   3.000   4.197   5.145  0.8742  1.7110 -0.9602
13495TIP3    H261901   3.084   4.213   5.269  0.6184 -0.4738 -0.4574
13496TIP3   OH261902   2.467   2.308   0.345  0.6698 -0.0664  0.0155
13496TIP3    H161903   2.439   2.232   0.294  2.0279 -0.4510 -0.2027
13496TIP3    H261904   2.392   2.329   0.401 -0.6719  0.0634 -1.7706
13497TIP3   OH261905   0.277   0.532   6.874 -0.5575  1.0521 -0.5602
13497TIP3    H161906   0.310   0.444   6.893 -0.9169  1.2043  0.8793
13497TIP3    H261907   0.356   0.586   6.869 -0.3734  0.7648 -0.8241
13498TIP3   OH261908   1.281   4.804  13.938  0.3445  0.1085 -0.4370
13498TIP3    H161909   1.213   4.752  13.979 -0.0506  1.2181  0.3813
13498TIP3    H261910   1.311   4.863  14.008  1.4671  0.2924 -1.0484
13499TIP3   OH261911   1.595   1.978  13.590  0.1932  0.3570  0.3631
13499TIP3    H161912   1.620   2.047  13.529  0.3874 -0.0517 -0.0176
13499TIP3    H261913   1.669   1.918  13.592 -1.2077 -1.6564 -1.8909
13500TIP3   OH261914   4.417   0.403  11.464 -0.9325 -0.2717  0.1176
13500TIP3    H161915   4.494   0.345  11.471 -0.9764 -0.2802  0.5426
13500TIP3    H261916   4.360   0.359  11.401 -0.0363  0.3604 -1.1948
13501TIP3   OH261917   3.997   6.477  15.296  0.0402 -0.5625  0.0097
13501TIP3    H161918   4.008   6.479  15.201  3.3884 -0.6747  0.2898
13501TIP3    H261919   4.047   6.552  15.328 -2.0137  0.1939  1.6861
13502TIP3   OH261920   1.062   2.843  12.862  0.3949 -0.1477  0.0320
13502TIP3    H161921   1.150   2.860  12.827  0.2878 -0.1840 -0.2527
13502TIP3    H261922   1.013   2.808  12.788  0.3809 -0.9455  0.4081
13503TIP3   OH261923   3.293   3.320  16.031  0.5732  0.3172  0.3802
13503TIP3    H161924   3.333   3.238  16.004 -1.3827  0.3812 -3.4825
13503TIP3    H261925   3.309   3.380  15.958 -2.7900  1.5838  0.4723
13504TIP3   OH261926   5.593   2.414  16.645 -0.1401  0.2664  0.1100
13504TIP3    H161927   5.525   2.381  16.586  0.4473 -0.3744 -0.2092
13504TIP3    H261928   5.656   2.458  16.589  0.4594 -0.4104  0.2464
13505TIP3   OH261929   0.864   1.005  15.767 -0.1677  0.4632 -0.2575
13505TIP3    H161930   0.863   0.994  15.863  1.8024 -2.7722 -0.4314
13505TIP3    H261931   0.773   1.025  15.744 -0.7583  1.0172  2.2490
13506TIP3   OH261932   3.377   5.708  15.472 -0.1678 -0.0388  0.3150
13506TIP3    H161933   3.401   5.649  15.543 -1.2170 -0.0564  0.6651
13506TIP3    H261934   3.384   5.655  15.393 -0.7641 -0.5487  0.5947
13507TIP3   OH261935   5.799   2.549  16.533 -0.0064 -0.0960 -0.1921
13507TIP3    H161936   5.799   2.627  16.587  0.2732  0.1508 -0.5461
13507TIP3    H261937   5.794   2.581  16.443  0.5212 -0.4716 -0.3600
13508TIP3   OH261938   5.233   1.495   2.162 -0.2319  0.0026 -0.1200
13508TIP3    H161939   5.160   1.542   2.203 -0.1575  0.6570 -0.7171
13508TIP3    H261940   5.197   1.465   2.078 -0.9261 -2.8137  1.0758
13509TIP3   OH261941   6.180   0.295   0.345 -0.3385  0.1382 -0.2384
13509TIP3    H161942   6.213   0.359   0.282  0.6157 -1.9154 -1.9320
13509TIP3    H261943   6.087   0.288   0.326 -0.3154  0.4903 -0.4931
13510TIP3   OH261944   4.445   1.463  16.031 -0.1125 -0.7687 -0.7352
13510TIP3    H161945   4.367   1.453  15.977  0.9574 -0.6378 -2.3977
13510TIP3    H261946   4.494   1.381  16.017  0.1188 -0.7867  0.1473
13511TIP3   OH261947   2.708   5.828  13.091 -0.1665  0.0658  0.9453
13511TIP3    H161948   2.774   5.892  13.065 -0.0403 -0.3469  0.2192
13511TIP3    H261949   2.636   5.842  13.030 -0.1528 -0.4595  0.8102
13512TIP3   OH261950   3.357   2.274  10.626  0.3381  0.9081 -0.1466
13512TIP3    H161951   3.389   2.321  10.704  1.9664  1.8374 -1.3083
13512TIP3    H261952   3.327   2.190  10.659  1.3013  1.1543  1.4579
13513TIP3   OH261953   3.655   1.528   0.978  0.2984 -0.0268  0.3926
13513TIP3    H161954   3.636   1.435   0.967  1.8492 -0.3297  0.1248
13513TIP3    H261955   3.595   1.557   1.047 -1.3260 -0.8351 -0.6120
13514TIP3   OH261956   5.176   6.076   1.722  0.2602  0.0024  0.1885
13514TIP3    H161957   5.232   6.087   1.798 -0.6579  1.3053  0.7251
13514TIP3    H261958   5.111   6.011   1.749 -0.2963  0.7397  0.7062
13515TIP3   OH261959   5.215   2.499  14.448 -0.2314  0.2337 -0.2119
13515TIP3    H161960   5.291   2.527  14.499 -0.9387 -0.1799  1.1145
13515TIP3    H261961   5.198   2.410  14.478 -0.8749  0.0999 -0.9514
13516TIP3   OH261962   3.148   5.253  12.089  0.1778 -0.4165  0.1999
13516TIP3    H161963   3.222   5.270  12.148  0.0879 -1.9379  0.7885
13516TIP3    H261964   3.071   5.259  12.145 -0.0309 -0.3558 -0.0905
13517TIP3   OH261965   5.688   6.151   2.829 -0.2558  0.1542 -0.1648
13517TIP3    H161966   5.670   6.140   2.736  2.0307 -1.3264 -0.5045
13517TIP3    H261967   5.667   6.243   2.847 -0.3752  0.5690 -2.2200
13518TIP3   OH261968   3.524   4.556  12.156  0.0857  0.2570 -0.5451
13518TIP3    H161969   3.495   4.561  12.247 -0.4369  2.7600 -0.7611
13518TIP3    H261970   3.458   4.605  12.107  1.2320  0.4165 -2.0149
13519TIP3   OH261971   1.226   1.997   0.473 -0.3246 -0.0084  0.2467
13519TIP3    H161972   1.285   2.043   0.532  1.8007 -1.8176 -0.3157
13519TIP3    H261973   1.206   1.915   0.518 -1.1966 -0.0873 -0.2446
13520TIP3   OH261974   6.770   4.871  11.750  0.0543 -0.3627  0.0282
13520TIP3    H161975   6.741   4.930  11.681 -0.2033  0.3033  0.6857
13520TIP3    H261976   6.840   4.820  11.711 -0.0728  0.0241 -0.7154
13521TIP3   OH261977   0.489   4.622   2.014 -0.1180 -0.6667 -0.2302
13521TIP3    H161978   0.485   4.700   1.959 -1.0517 -1.0964 -0.7874
13521TIP3    H261979   0.445   4.554   1.963 -0.7740 -1.1482  0.9390
13522TIP3   OH261980   2.630   4.048   1.878  0.0126  0.6722  0.3952
13522TIP3    H161981   2.577   4.094   1.813 -0.1795  1.4441  1.0849
13522TIP3    H261982   2.566   4.012   1.940  0.1078 -1.1028 -0.4631
13523TIP3   OH261983   0.325   5.422  15.725 -0.5190 -1.1608  0.1325
13523TIP3    H161984   0.418   5.402  15.722 -0.3588 -0.4149 -0.5312
13523TIP3    H261985   0.321   5.517  15.741 -1.0877 -0.8078 -1.7589
13524TIP3   OH261986   4.635   0.737  15.254 -0.6590 -0.1113  0.3114
13524TIP3    H161987   4.585   0.818  15.242 -0.6538 -0.0672  0.5705
13524TIP3    H261988   4.719   0.766  15.290  0.1475 -0.0404 -1.5310
13525TIP3   OH261989   0.998   5.780   0.194 -0.0198 -0.5536 -0.6019
13525TIP3    H161990   0.923   5.825   0.155 -0.3554 -1.7761 -1.4241
13525TIP3    H261991   1.073   5.808   0.142  0.3040  1.4210  0.8119
13526TIP3   OH261992   0.406   6.710  14.557 -0.5467 -0.0010 -0.3035
13526TIP3    H161993   0.454   6.634  14.524  0.0065 -1.0928  2.7292
13526TIP3    H261994   0.455   6.785  14.523  0.8118 -1.0360 -0.7416
13527TIP3   OH261995   4.637   1.232  14.679 -0.5178 -0.5303 -0.1548
13527TIP3    H161996   4.683   1.160  14.721  0.0733  0.5186  1.0477
13527TIP3    H261997   4.574   1.262  14.744 -1.3152 -0.4570 -0.9376
13528TIP3   OH261998   1.603   3.752   4.363 -0.2253  0.0915 -0.3784
13528TIP3    H161999   1.639   3.837   4.336  0.9594 -0.2018  0.1832
13528TIP3    H262000   1.644   3.689   4.303  0.2719 -0.2554  0.3031
13529TIP3   OH262001   1.319   4.625   2.170  0.0932  0.2454  0.1555
13529TIP3    H162002   1.317   4.529   2.164  0.5308  0.2692 -0.4645
13529TIP3    H262003   1.247   4.647   2.229 -2.6856 -0.2562 -2.7721
13530TIP3   OH262004   1.364   3.550  11.347 -0.5528 -0.1523 -0.2361
13530TIP3    H162005   1.327   3.633  11.375  2.4014  1.2305 -0.0344
13530TIP3    H262006   1.411   3.570  11.266  2.5937 -0.8396  1.2629
13531TIP3   OH262007   1.874   1.887  12.371  0.2188  0.6530  0.2550
13531TIP3    H162008   1.900   1.888  12.279  1.2191  0.5840  0.5259
13531TIP3    H262009   1.947   1.928  12.417 -1.2359  2.8565  0.7928
13532TIP3   OH262010   0.139   4.016  15.320  0.1391  0.5314  0.4761
13532TIP3    H162011   0.082   4.093  15.319 -0.9337 -0.2475 -0.7690
13532TIP3    H262012   0.080   3.941  15.324  1.1824 -0.2893  3.5804
13533TIP3   OH262013   2.225   2.638   3.603 -0.2239 -0.8103  0.0661
13533TIP3    H162014   2.216   2.723   3.646 -0.1692 -1.0217  0.5018
13533TIP3    H262015   2.178   2.648   3.520 -0.9823 -0.6281  0.5102
13534TIP3   OH262016   5.072   1.862   4.754 -0.1929 -0.7738  0.1272
13534TIP3    H162017   5.106   1.937   4.705 -2.1620 -0.7737 -1.3793
13534TIP3    H262018   5.034   1.901   4.833  0.4451 -0.4141  0.2618
13535TIP3   OH262019   5.076   4.174   1.086  0.3391 -0.0128  0.7089
13535TIP3    H162020   4.991   4.211   1.063  0.4799  1.8761  2.9625
13535TIP3    H262021   5.138   4.214   1.025 -0.2384 -0.7128 -0.3552
13536TIP3   OH262022   3.429   1.060   5.164 -0.2040 -0.0500  0.0638
13536TIP3    H162023   3.377   1.140   5.160 -0.8251 -0.3439  1.5371
13536TIP3    H262024   3.512   1.087   5.204  0.5206  0.2688 -1.5729
13537TIP3   OH262025   2.807   2.044  13.714 -0.7033 -0.3340  0.2255
13537TIP3    H162026   2.849   1.959  13.700 -0.5964 -0.4000  0.8822
13537TIP3    H262027   2.809   2.055  13.809 -0.4590  0.5341  0.1215
13538TIP3   OH262028   3.029   5.335  14.449 -0.4155 -0.2524  0.1710
13538TIP3    H162029   3.028   5.426  14.479 -2.9154 -0.5566  1.2246
13538TIP3    H262030   2.956   5.293  14.494  1.6246 -3.2605  0.9930
13539TIP3   OH262031   2.620   4.390  14.901 -0.1971  0.0029  0.2595
13539TIP3    H162032   2.689   4.429  14.848 -1.4584  2.6874  0.3891
13539TIP3    H262033   2.539   4.415  14.856 -1.1971  0.1774  2.0787
13540TIP3   OH262034   2.223   2.480   5.203 -0.3336 -0.2908 -0.0281
13540TIP3    H162035   2.260   2.395   5.179  0.2891 -0.2747  0.8500
13540TIP3    H262036   2.193   2.517   5.120 -0.2952 -1.2160 -0.4665
13541TIP3   OH262037   1.870   1.629  16.512 -0.4817 -0.4000  0.4284
13541TIP3    H162038   1.900   1.718  16.498  2.7049 -1.3017  0.6744
13541TIP3    H262039   1.887   1.584  16.429 -1.4563 -0.9371  0.5009
13542TIP3   OH262040   3.602   4.986   1.910  0.3008  0.0845 -0.3639
13542TIP3    H162041   3.592   4.923   1.838  1.7065 -0.7546  0.1371
13542TIP3    H262042   3.644   5.062   1.869  1.1575 -0.4173 -0.4524
13543TIP3   OH262043   5.466   0.986  12.529 -0.5803  0.3025  0.0452
13543TIP3    H162044   5.532   0.979  12.598  1.8392  2.9616 -1.7458
13543TIP3    H262045   5.494   0.923  12.462 -0.7730  0.3452 -0.0780
13544TIP3   OH262046   1.215   3.946   4.915  0.1630  0.7757  0.2961
13544TIP3    H162047   1.172   3.932   5.000 -0.7596  0.6754 -0.1835
13544TIP3    H262048   1.199   3.866   4.866  2.2960  0.0575  0.6732
13545TIP3   OH262049   0.072   1.579  12.019  0.1467 -0.0392  0.1595
13545TIP3    H162050  -0.015   1.541  12.008  0.1173  0.2868 -0.8065
13545TIP3    H262051   0.093   1.564  12.111 -1.0218  0.0750  0.4580
13546TIP3   OH262052   2.441   0.468  11.333  0.3998 -0.1100  0.6070
13546TIP3    H162053   2.374   0.401  11.327 -1.1283  1.4627 -1.0300
13546TIP3    H262054   2.396   0.545  11.368  1.3119  0.9816 -0.4952
13547TIP3   OH262055   6.192   2.106  16.443 -0.5454 -0.3554  0.3964
13547TIP3    H162056   6.098   2.116  16.454 -0.7430  0.6415 -1.6781
13547TIP3    H262057   6.207   2.011  16.445 -1.5724 -0.5225  0.7580
13548TIP3   OH262058   2.937   2.564  16.250  0.2276  0.2098  0.3697
13548TIP3    H162059   2.947   2.635  16.186  0.0365  0.4452  0.5991
13548TIP3    H262060   2.871   2.596  16.312 -0.5886 -0.5665 -0.0756
13549TIP3   OH262061   2.452   5.896   1.018  0.2588  0.9319 -0.0670
13549TIP3    H162062   2.457   5.802   1.034 -2.1173  0.6417 -0.5237
13549TIP3    H262063   2.518   5.913   0.951 -0.0254 -0.6433 -0.7931
13550TIP3   OH262064   2.685   2.435  11.412  0.2641  0.0450 -0.7509
13550TIP3    H162065   2.707   2.342  11.411 -1.6064 -0.4386 -0.7477
13550TIP3    H262066   2.630   2.446  11.489  0.1732  1.0906 -0.9498
13551TIP3   OH262067   5.251   0.546   4.520 -0.1292  0.2020  0.5229
13551TIP3    H162068   5.208   0.590   4.593  3.0526  1.9153  1.5176
13551TIP3    H262069   5.270   0.616   4.458  1.9240 -0.2988  0.5297
13552TIP3   OH262070   1.156   2.703  12.468  0.8104  0.1087  0.2192
13552TIP3    H162071   1.154   2.725  12.375  0.6745  1.2161  0.4702
13552TIP3    H262072   1.143   2.787  12.513  1.5384 -0.3057  1.2468
13553TIP3   OH262073   5.244   0.945   0.132  0.1014 -1.1416 -0.1998
13553TIP3    H162074   5.235   0.910   0.220 -1.3256  2.7066  1.3750
13553TIP3    H262075   5.164   0.917   0.087 -0.7986 -0.3587  0.8583
13554TIP3   OH262076   6.102   4.578   4.851 -0.8809  0.0758  0.4025
13554TIP3    H162077   6.153   4.559   4.772 -1.0980 -1.9996  0.6857
13554TIP3    H262078   6.159   4.633   4.904  0.4815 -0.9172  0.0331
13555TIP3   OH262079   5.948   1.488   2.799  0.3124 -0.1369 -0.2065
13555TIP3    H162080   6.043   1.490   2.793  0.3521 -1.3825 -0.1250
13555TIP3    H262081   5.919   1.468   2.710  0.2303 -1.8828  0.1838
13556TIP3   OH262082   6.316   5.885   4.448  0.1998  0.4962  0.5234
13556TIP3    H162083   6.255   5.811   4.451 -0.3020  0.8468 -0.4918
13556TIP3    H262084   6.371   5.868   4.371 -0.3130  1.4512 -0.0866
13557TIP3   OH262085   5.334   3.715  11.464  0.3046  0.5906  0.3648
13557TIP3    H162086   5.337   3.685  11.555 -0.8571 -1.4114 -0.1746
13557TIP3    H262087   5.383   3.649  11.415 -1.7204 -0.1420 -0.8121
13558TIP3   OH262088   0.027   0.956  15.008 -0.0353  0.1825  0.6527
13558TIP3    H162089   0.105   0.969  14.953 -0.6740  0.6010 -0.1814
13558TIP3    H262090   0.051   0.885  15.067  1.3520  1.0045  1.1170
13559TIP3   OH262091   4.653   4.034  12.713  0.0392  0.4509  0.5419
13559TIP3    H162092   4.646   4.039  12.808 -0.6766 -0.0502  0.5258
13559TIP3    H262093   4.576   4.082  12.681 -0.8676 -1.1189  0.2621
13560TIP3   OH262094   0.046   0.236  11.261 -0.1069  0.4573 -0.1538
13560TIP3    H162095   0.119   0.250  11.322  0.2174  1.9206 -0.8246
13560TIP3    H262096  -0.031   0.262  11.311  0.0123  0.3777  0.0726
13561TIP3   OH262097   0.973   4.634   4.679  0.0698 -0.1019 -0.1175
13561TIP3    H162098   0.906   4.657   4.744  2.3114  2.6068  1.4393
13561TIP3    H262099   0.935   4.561   4.631 -2.6745 -0.7768  2.7373
13562TIP3   OH262100   3.209   5.756  15.702  0.6376  0.4737 -0.4309
13562TIP3    H162101   3.170   5.686  15.755 -0.2026 -0.5222 -2.2493
13562TIP3    H262102   3.144   5.826  15.703  0.1716  0.0577 -0.9312
13563TIP3   OH262103   4.572   2.079  15.164 -0.3931 -0.6274  0.3801
13563TIP3    H162104   4.583   2.110  15.254 -0.7581 -2.2628  1.0076
13563TIP3    H262105   4.658   2.093  15.123 -0.4366  0.8252  0.7313
13564TIP3   OH262106   6.527   5.852   2.058  0.3625 -0.1862  0.0853
13564TIP3    H162107   6.568   5.769   2.032  0.1552  0.2017 -1.6254
13564TIP3    H262108   6.433   5.835   2.049  0.3416  0.4478 -1.0400
13565TIP3   OH262109   0.637   5.091   2.360  0.2512 -0.2914 -0.0515
13565TIP3    H162110   0.596   5.012   2.394 -3.4056  1.5900  0.4658
13565TIP3    H262111   0.716   5.102   2.413 -1.2576 -1.5109  2.6709
13566TIP3   OH262112   6.414   4.191   1.940  0.2845 -0.3923 -0.4847
13566TIP3    H162113   6.502   4.165   1.915  0.3184 -0.2323 -0.5338
13566TIP3    H262114   6.377   4.114   1.983 -0.0359 -0.9294 -1.6823
13567TIP3   OH262115   1.661   0.730  15.746  0.7124  0.4082 -0.4586
13567TIP3    H162116   1.636   0.673  15.674 -1.3278  0.6529  0.0107
13567TIP3    H262117   1.689   0.811  15.703  2.5134 -0.4718 -1.0679
13568TIP3   OH262118   2.038   3.056   1.671 -0.4755  0.0180 -0.2127
13568TIP3    H162119   2.096   3.124   1.705 -0.2500 -0.8469  1.2237
13568TIP3    H262120   2.062   3.048   1.579  0.3438  1.0153 -0.1049
13569TIP3   OH262121   3.288   5.192   3.173  0.0094 -1.1696 -0.2269
13569TIP3    H162122   3.313   5.119   3.230 -1.1272 -1.1367  0.3434
13569TIP3    H262123   3.193   5.197   3.180  0.1586  1.9360  1.7663
13570TIP3   OH262124   2.518   4.409  14.114 -0.7838  0.5576  0.6577
13570TIP3    H162125   2.455   4.368  14.055  2.0120 -0.6255 -1.7501
13570TIP3    H262126   2.506   4.363  14.197 -2.6748  0.0331  0.1485
13571TIP3   OH262127   0.732   1.334   6.705 -0.2477  0.1071  0.3246
13571TIP3    H162128   0.649   1.371   6.674 -0.9763  0.2719  2.3053
13571TIP3    H262129   0.710   1.294   6.789  1.3887 -1.2395  0.1506
13572TIP3   OH262130   1.867   0.700   4.327  0.4536 -0.1543 -0.0574
13572TIP3    H162131   1.939   0.762   4.337  0.7161 -0.6357  1.1597
13572TIP3    H262132   1.788   0.754   4.333  0.4899 -0.2042  4.8257
13573TIP3   OH262133   2.055   0.413  16.920  0.0858  0.5265 -0.1077
13573TIP3    H162134   1.979   0.471  16.914 -0.3592 -0.2156 -2.9342
13573TIP3    H262135   2.130   0.472  16.927 -0.5444  1.3497 -0.2069
13574TIP3   OH262136   1.643   0.194   2.158 -0.5720 -0.0005  0.5100
13574TIP3    H162137   1.556   0.207   2.121 -0.1302  0.4318 -0.4059
13574TIP3    H262138   1.652   0.099   2.164 -1.0508 -0.0528  0.4771
13575TIP3   OH262139   2.223   4.961  13.836  0.1411 -0.0135  0.1190
13575TIP3    H162140   2.315   4.943  13.821 -0.3838 -2.5549 -0.5464
13575TIP3    H262141   2.178   4.923  13.760 -1.4629  1.1364  0.4375
13576TIP3   OH262142   5.487   4.347  14.247 -0.2253  0.4148  0.6249
13576TIP3    H162143   5.396   4.318  14.253 -0.8588  1.6594 -1.7078
13576TIP3    H262144   5.535   4.288  14.305 -2.2694 -1.4254  0.5791
13577TIP3   OH262145   6.077   0.804   1.273  0.9302 -0.0088 -0.3424
13577TIP3    H162146   6.099   0.794   1.365 -0.6358  3.2571  0.5207
13577TIP3    H262147   5.982   0.804   1.271  0.8437  3.2502 -1.3802
13578TIP3   OH262148   1.478   3.893   3.971  0.4003  0.3660  0.0067
13578TIP3    H162149   1.443   3.871   4.057 -0.6122 -0.4964 -0.5971
13578TIP3    H262150   1.402   3.926   3.922  0.8331  0.2700 -0.7465
13579TIP3   OH262151   0.885   6.182  12.610 -0.0222  0.0656 -0.3373
13579TIP3    H162152   0.918   6.265  12.642 -0.9624 -0.1491  1.2749
13579TIP3    H262153   0.833   6.205  12.532  1.5058  0.6970 -1.2105
13580TIP3   OH262154   5.139   1.542   3.549  0.0744 -0.5953 -0.7051
13580TIP3    H162155   5.230   1.559   3.525 -0.1650 -0.8524 -1.8832
13580TIP3    H262156   5.117   1.611   3.611  1.2057 -0.8135 -0.0225
13581TIP3   OH262157   6.629   1.792   3.116  0.1073 -0.5035  0.0198
13581TIP3    H162158   6.535   1.778   3.130  0.4886 -0.9238  3.0070
13581TIP3    H262159   6.648   1.874   3.161  1.1344 -0.2110 -0.9051
13582TIP3   OH262160   1.372   5.307  15.122  0.2051  0.2807  0.4086
13582TIP3    H162161   1.293   5.360  15.132  0.1535  0.6670 -1.5009
13582TIP3    H262162   1.443   5.370  15.125  0.3501  0.0998  0.8245
13583TIP3   OH262163   3.407   2.669  12.475  0.0018 -0.6041 -0.0363
13583TIP3    H162164   3.342   2.739  12.481 -0.5674 -0.8501 -2.3413
13583TIP3    H262165   3.395   2.618  12.555 -2.2148 -0.2423 -0.0701
13584TIP3   OH262166   3.433   2.977   0.929  0.0968  0.6550  0.3559
13584TIP3    H162167   3.474   3.043   0.984 -0.2007  0.7867  0.4212
13584TIP3    H262168   3.340   2.982   0.950  0.1078 -0.0237  0.6187
13585TIP3   OH262169   0.311   6.502   6.537  0.4766 -0.1312 -0.0522
13585TIP3    H162170   0.326   6.427   6.595  1.5524 -1.1113 -1.5181
13585TIP3    H262171   0.268   6.465   6.460  0.5775  0.8477 -0.6010
13586TIP3   OH262172   3.572   3.157   5.260  0.3448 -0.0093 -0.1223
13586TIP3    H162173   3.570   3.077   5.314 -1.4538  0.2784  0.2901
13586TIP3    H262174   3.663   3.186   5.264  0.4904 -0.5720  1.9543
13587TIP3   OH262175   0.979   1.180  12.771  0.5284 -0.5476  0.5121
13587TIP3    H162176   0.994   1.143  12.684  0.7519 -0.1995  0.4031
13587TIP3    H262177   0.883   1.183  12.778  0.4954  0.6528 -0.2514
13588TIP3   OH262178   3.131   5.886   0.064 -0.1654 -0.1190  0.1814
13588TIP3    H162179   3.159   5.977   0.056 -2.4305  0.5954 -0.3306
13588TIP3    H262180   3.077   5.870  -0.013  0.7533 -2.1653 -0.1182
13589TIP3   OH262181   3.863   3.693   3.094 -0.2246  0.0732 -0.2501
13589TIP3    H162182   3.917   3.615   3.107 -2.0018 -0.8610  2.3596
13589TIP3    H262183   3.916   3.764   3.130  0.5195 -0.2768 -0.6266
13590TIP3   OH262184   1.930   4.894  12.977 -0.4033 -0.9800  0.1951
13590TIP3    H162185   1.884   4.977  12.989  0.1476 -0.7126  0.4810
13590TIP3    H262186   1.867   4.828  13.004 -1.1234 -0.7087 -0.7723
13591TIP3   OH262187   4.869   4.531   5.447 -0.6591  0.4766  0.4282
13591TIP3    H162188   4.947   4.586   5.445 -0.6721  0.5611  1.7660
13591TIP3    H262189   4.851   4.517   5.540  0.4637 -3.3482  0.2253
13592TIP3   OH262190   0.689   5.345   5.722 -0.1379  0.0086  0.4523
13592TIP3    H162191   0.683   5.413   5.789  1.0780  0.5941 -0.0196
13592TIP3    H262192   0.752   5.282   5.757 -1.1781 -0.8660  0.8415
13593TIP3   OH262193   1.757   6.119   2.945  0.6980 -0.1598 -0.0489
13593TIP3    H162194   1.843   6.151   2.972 -0.6026  2.2438  1.6427
13593TIP3    H262195   1.752   6.138   2.851  0.7134  3.2159  0.5167
13594TIP3   OH262196   5.272   6.619  12.897  0.9153  0.2510  0.1266
13594TIP3    H162197   5.315   6.631  12.982  0.6083 -0.5717  0.4173
13594TIP3    H262198   5.300   6.693  12.844 -1.1965  2.4489  1.8770
13595TIP3   OH262199   3.090   4.414  16.294 -0.4514 -0.3913  0.0791
13595TIP3    H162200   3.065   4.405  16.386 -0.0972  0.8900  0.3104
13595TIP3    H262201   3.027   4.477  16.259  0.8791  0.9890  0.0632
13596TIP3   OH262202   3.559   3.381  17.002  0.2996 -0.2536 -0.8689
13596TIP3    H162203   3.572   3.305  16.944  1.3989 -0.1287 -0.8118
13596TIP3    H262204   3.648   3.408  17.026 -0.0876  0.8850 -0.6579
13597TIP3   OH262205   5.449   4.052   0.653 -0.7330  0.5046 -0.3028
13597TIP3    H162206   5.437   3.985   0.720 -0.4294 -0.1977 -0.9366
13597TIP3    H262207   5.388   4.028   0.583  1.1281 -0.6148 -1.6394
13598TIP3   OH262208   2.507   5.750   1.285 -0.3054 -0.9781  0.3574
13598TIP3    H162209   2.427   5.711   1.322 -0.1483 -1.0709  0.6059
13598TIP3    H262210   2.476   5.823   1.232 -0.6041 -1.4294 -0.1018
13599TIP3   OH262211   5.328   5.018  11.076 -0.5247  0.0426 -0.1899
13599TIP3    H162212   5.249   5.028  11.023 -0.0580 -1.1024 -1.1539
13599TIP3    H262213   5.374   4.943  11.037  1.4568  1.1900 -0.2045
13600TIP3   OH262214   4.292   3.494   2.321  0.2722  0.1120 -0.4027
13600TIP3    H162215   4.307   3.403   2.350 -1.3743 -0.4871 -1.3077
13600TIP3    H262216   4.291   3.489   2.226 -0.0365  1.0481 -0.4572
13601TIP3   OH262217   3.119   4.059   2.761 -0.3013 -0.1556 -0.2641
13601TIP3    H162218   3.210   4.027   2.759 -0.6393 -1.1350 -1.8246
13601TIP3    H262219   3.066   3.981   2.772 -0.9851  0.3477  0.0473
13602TIP3   OH262220   3.091   1.310   4.423  0.2509 -0.1952 -0.2244
13602TIP3    H162221   3.170   1.309   4.478  0.7207 -2.3859 -0.8372
13602TIP3    H262222   3.059   1.400   4.429  2.1080  0.4509  1.0177
13603TIP3   OH262223   5.850   5.959  12.462  0.0769  0.3110  0.0382
13603TIP3    H162224   5.870   5.962  12.369  1.4440 -1.3664  0.2289
13603TIP3    H262225   5.773   6.014  12.472 -2.2053 -2.1014 -2.6339
13604TIP3   OH262226   0.062   3.361  11.506 -0.0991  0.4372 -0.0426
13604TIP3    H162227   0.143   3.317  11.481 -0.7400 -1.5049  1.0113
13604TIP3    H262228   0.061   3.442  11.456  1.4538 -0.5030 -1.6875
13605TIP3   OH262229   5.298   0.511  16.369  0.0511  0.3835  0.2288
13605TIP3    H162230   5.334   0.484  16.284 -0.8391  0.3453 -0.1520
13605TIP3    H262231   5.267   0.430  16.409  2.7832 -0.0372  1.7994
13606TIP3   OH262232   3.481   3.967   4.388  0.1631  0.7006  0.2377
13606TIP3    H162233   3.534   4.021   4.328  0.1808 -0.7086 -1.0945
13606TIP3    H262234   3.403   4.019   4.405 -0.1921  0.8618 -1.6495
13607TIP3   OH262235   5.534   0.551   1.264 -0.0976  0.4789 -0.5315
13607TIP3    H162236   5.543   0.527   1.171  0.2613  2.3599 -1.0217
13607TIP3    H262237   5.474   0.626   1.263  0.4295  0.9321  0.6989
13608TIP3   OH262238   3.820   0.590   1.137 -0.4889  0.0041 -0.5126
13608TIP3    H162239   3.864   0.594   1.222  0.4242  1.2868 -1.0077
13608TIP3    H262240   3.881   0.543   1.081 -0.2077  0.8657 -0.9387
13609TIP3   OH262241   3.104   2.634   0.109 -0.6737 -0.2030 -0.0142
13609TIP3    H162242   3.198   2.618   0.105 -0.3177  1.6532 -0.0915
13609TIP3    H262243   3.084   2.679   0.026 -1.5838 -0.4011  0.0905
13610TIP3   OH262244   1.219   1.738  17.032 -0.4119  0.1505 -0.1093
13610TIP3    H162245   1.215   1.703  17.121 -0.1572 -0.6641 -0.4058
13610TIP3    H262246   1.133   1.718  16.994 -0.1183 -0.5786 -0.4208
13611TIP3   OH262247   2.536   5.754   3.601  0.0685  0.0054 -0.1475
13611TIP3    H162248   2.540   5.747   3.696  0.5355  0.2004 -0.1491
13611TIP3    H262249   2.449   5.721   3.578  0.9732 -2.7883  0.0907
13612TIP3   OH262250   5.671   3.398  14.075 -0.3712  0.3826 -0.6181
13612TIP3    H162251   5.733   3.372  14.006  0.0236  0.3498 -0.2525
13612TIP3    H262252   5.706   3.479  14.110  0.4753 -0.5548  0.8274
13613TIP3   OH262253   3.712   6.502   5.165 -0.4317 -0.2051  0.3675
13613TIP3    H162254   3.747   6.561   5.232  1.3121  0.8304 -1.3523
13613TIP3    H262255   3.655   6.442   5.214 -0.6356  1.5806  2.4868
13614TIP3   OH262256   2.112   5.371   1.568 -0.0606  0.6825  0.1929
13614TIP3    H162257   2.161   5.304   1.615 -1.6446  0.3583  1.4911
13614TIP3    H262258   2.131   5.355   1.475 -2.0598 -3.0723  0.2242
13615TIP3   OH262259   3.555   6.693  15.394 -0.0475  0.0641 -0.3501
13615TIP3    H162260   3.649   6.702  15.378  0.0802  0.4355  0.5578
13615TIP3    H262261   3.523   6.639  15.321  0.6548  0.9301 -1.3192
13616TIP3   OH262262   6.297   1.430  15.818  0.0744 -0.1978 -0.0898
13616TIP3    H162263   6.320   1.341  15.846 -1.1543 -1.8587 -3.6988
13616TIP3    H262264   6.378   1.465  15.781  0.1163 -0.6136 -0.4027
13617TIP3   OH262265   4.383   0.054  13.221 -0.0952  0.0732 -0.3622
13617TIP3    H162266   4.354   0.136  13.181 -3.2511  0.0980  1.6375
13617TIP3    H262267   4.404   0.077  13.311  1.5917 -0.8963 -0.4737
13618TIP3   OH262268   5.020   4.491   4.153 -0.2653  0.4993  0.0113
13618TIP3    H162269   4.991   4.410   4.195 -0.3810  1.0014  0.9364
13618TIP3    H262270   5.030   4.468   4.061 -1.1351 -0.3449  0.1093
13619TIP3   OH262271   5.934   1.811   2.445 -0.1244 -0.1339  0.4161
13619TIP3    H162272   5.887   1.797   2.527  1.0403 -0.1542  1.1092
13619TIP3    H262273   6.004   1.746   2.446  1.6669  1.6832  0.8047
13620TIP3   OH262274   0.039   1.175  14.118 -0.2504 -0.6397 -0.1752
13620TIP3    H162275   0.008   1.260  14.087 -1.7109 -0.5468  1.3775
13620TIP3    H262276   0.132   1.173  14.097 -0.5517  0.6164 -1.7746
13621TIP3   OH262277   1.483   1.326   4.840  0.3051 -0.6839  0.0971
13621TIP3    H162278   1.456   1.277   4.918  2.5288 -1.5121  0.4337
13621TIP3    H262279   1.578   1.311   4.835  0.7262  1.8808 -1.0116
13622TIP3   OH262280   4.550   5.531   5.098 -0.2025 -0.0832  0.2396
13622TIP3    H162281   4.545   5.480   5.018  1.4813  0.3296 -0.1637
13622TIP3    H262282   4.571   5.619   5.069 -0.5694  0.2956  1.0899
13623TIP3   OH262283   4.807   6.242  12.225  0.2586 -0.4222  0.0378
13623TIP3    H162284   4.726   6.191  12.213  0.0073  0.1742 -0.8789
13623TIP3    H262285   4.836   6.219  12.314 -0.7564 -0.8710  0.2753
13624TIP3   OH262286   0.584   4.950  13.034  0.3089  0.2924  0.1111
13624TIP3    H162287   0.535   4.876  13.070 -0.4675 -0.7450 -2.8248
13624TIP3    H262288   0.574   5.019  13.100 -0.4014 -1.6293  2.1480
13625TIP3   OH262289   3.962   2.628  11.622  0.2036  0.0036  0.1546
13625TIP3    H162290   4.012   2.632  11.703 -0.0600  0.3971  0.2970
13625TIP3    H262291   3.951   2.719  11.595  0.7189 -0.1446 -0.5916
13626TIP3   OH262292   5.965   3.598   2.322  0.0016  0.2385 -0.2104
13626TIP3    H162293   6.000   3.666   2.379 -2.4201  0.7198  0.8148
13626TIP3    H262294   5.986   3.628   2.234  1.9531  0.5383  0.2954
13627TIP3   OH262295   6.191   1.896   4.329  0.1457  0.1570  0.8661
13627TIP3    H162296   6.116   1.952   4.350 -0.2092 -0.5824  1.6309
13627TIP3    H262297   6.243   1.895   4.410  1.3638  1.2109  0.1427
13628TIP3   OH262298   6.124   4.599   0.931 -0.1717 -0.1483  0.7178
13628TIP3    H162299   6.074   4.529   0.973  0.1624  0.5448  2.3258
13628TIP3    H262300   6.150   4.657   1.003 -0.3521  1.5821 -0.5446
13629TIP3   OH262301   5.858   0.206   1.035  0.1032 -0.4316 -0.4044
13629TIP3    H162302   5.933   0.166   1.078  0.4109 -1.7963 -2.0881
13629TIP3    H262303   5.864   0.299   1.057 -0.9832 -1.2386  4.1847
13630TIP3   OH262304   2.237   6.696  12.567  0.5488  0.0986  0.2578
13630TIP3    H162305   2.165   6.744  12.608 -0.1012  0.7885 -1.5738
13630TIP3    H262306   2.316   6.745  12.591  0.0682  1.1018 -0.1587
13631TIP3   OH262307   0.703   5.118  10.804 -0.1337 -0.1467 -0.0763
13631TIP3    H162308   0.736   5.196  10.849 -2.4902  1.4746 -0.9553
13631TIP3    H262309   0.611   5.112  10.831 -0.5566 -1.4131 -1.6389
13632TIP3   OH262310   1.243   5.868  16.437 -0.3126  0.5991 -0.0634
13632TIP3    H162311   1.196   5.919  16.503 -0.0156  3.1345 -1.7049
13632TIP3    H262312   1.285   5.933  16.381  1.0553 -1.4979 -1.6227
13633TIP3   OH262313   6.615   5.998  16.308  0.3348  0.1218 -0.4956
13633TIP3    H162314   6.647   5.997  16.217 -0.5998 -2.3762 -0.8858
13633TIP3    H262315   6.627   5.908  16.338 -0.2416  0.6839  1.5784
13634TIP3   OH262316   1.546   5.129  12.257  0.1232  0.0971  0.2975
13634TIP3    H162317   1.525   5.084  12.339  0.3419  1.0891  0.9317
13634TIP3    H262318   1.462   5.137  12.212  0.3915 -2.8734 -0.9123
13635TIP3   OH262319   4.810   1.019  13.161 -1.1528  0.2309 -0.3334
13635TIP3    H162320   4.823   0.963  13.238 -0.8404  1.0544  0.2290
13635TIP3    H262321   4.897   1.050  13.139 -1.5295  1.9847  0.5216
13636TIP3   OH262322   5.614   6.423  13.044 -0.1425 -0.2854 -1.1042
13636TIP3    H162323   5.638   6.433  12.952 -0.5217  0.5614 -1.1190
13636TIP3    H262324   5.528   6.465  13.051 -0.2006 -0.5092 -0.4011
13637TIP3   OH262325   5.317   4.925  13.148  0.8022 -0.4817  0.2366
13637TIP3    H162326   5.231   4.966  13.154  0.0426 -2.1382  1.3147
13637TIP3    H262327   5.374   4.979  13.203  0.8465  1.3969 -1.5123
13638TIP3   OH262328   5.558   0.065  16.546  0.4203  0.1818  0.4250
13638TIP3    H162329   5.607   0.068  16.464  0.8771 -0.9796  0.6347
13638TIP3    H262330   5.501  -0.012  16.538  0.9301 -0.3216  1.4255
13639TIP3   OH262331   3.950   1.216  14.318 -0.3780  0.8043  0.3954
13639TIP3    H162332   3.892   1.176  14.382  1.3372 -2.3238  0.2060
13639TIP3    H262333   3.906   1.204  14.234 -0.3349  0.1182  0.4601
13640TIP3   OH262334   3.170   3.894   5.829 -0.2920  0.3427 -0.2670
13640TIP3    H162335   3.087   3.941   5.822 -0.0622  0.5585 -2.2580
13640TIP3    H262336   3.207   3.899   5.741  1.5109 -0.3542  0.4097
13641TIP3   OH262337   3.173   4.313  17.220 -0.1242 -0.6691  0.6637
13641TIP3    H162338   3.266   4.292  17.230 -0.0950 -0.3888  0.9794
13641TIP3    H262339   3.170   4.369  17.143 -0.2352 -2.0280 -0.3716
13642TIP3   OH262340   2.478   0.063  11.696  0.0195  0.1899  0.2898
13642TIP3    H162341   2.546  -0.001  11.716  0.0404  0.0951 -0.0787
13642TIP3    H262342   2.396   0.017  11.714 -0.1196 -0.9869 -2.6721
13643TIP3   OH262343   1.538   3.995   1.800  0.2551  0.1892 -0.2010
13643TIP3    H162344   1.577   3.995   1.712  1.6225  0.8048  0.3720
13643TIP3    H262345   1.600   4.044   1.853 -1.2499  1.0481  0.8285
13644TIP3   OH262346   0.802   6.122   1.512 -0.8945 -0.3369  0.2710
13644TIP3    H162347   0.778   6.030   1.526  0.0930 -0.7034 -0.3903
13644TIP3    H262348   0.773   6.141   1.422 -1.3550  0.0914  0.5031
13645TIP3   OH262349   4.120   1.401  14.271 -0.2044 -0.2886  0.5376
13645TIP3    H162350   4.168   1.333  14.317  0.2361 -1.2123 -1.2093
13645TIP3    H262351   4.028   1.378  14.284 -0.0904 -0.5710  0.8634
13646TIP3   OH262352   0.980   1.528   2.348  0.2862  0.3530 -0.4403
13646TIP3    H162353   0.907   1.484   2.392  0.2003  1.5801  0.7107
13646TIP3    H262354   1.030   1.456   2.309 -0.2052 -0.7228  0.8013
13647TIP3   OH262355   2.538   1.664  14.015 -0.0689  0.1374 -0.3610
13647TIP3    H162356   2.573   1.583  14.052  0.3360  0.4944  0.0517
13647TIP3    H262357   2.444   1.659  14.031  0.0542  0.1086  0.3676
13648TIP3   OH262358   6.520   3.316   0.328  0.8596  0.1535  0.8287
13648TIP3    H162359   6.432   3.286   0.306  0.1554  2.6594 -0.1548
13648TIP3    H262360   6.508   3.371   0.406  1.6346  0.2120  0.9202
13649TIP3   OH262361   1.114   4.786   1.008  0.2053 -0.1962 -0.1387
13649TIP3    H162362   1.184   4.769   0.945  1.6000 -3.9186  2.0518
13649TIP3    H262363   1.039   4.736   0.975  0.9142 -2.0867  0.9258
13650TIP3   OH262364   3.133   2.145   4.715 -0.3275 -0.7266  0.7208
13650TIP3    H162365   3.046   2.114   4.740 -0.3499 -0.1557  1.3884
13650TIP3    H262366   3.129   2.240   4.730 -0.2901 -0.3591 -1.3092
13651TIP3   OH262367   3.950   1.759  15.129  0.7495 -0.4897 -0.0345
13651TIP3    H162368   3.947   1.664  15.144 -0.7438 -0.9269 -2.5501
13651TIP3    H262369   4.041   1.776  15.103  0.9053 -1.3377 -0.0811
13652TIP3   OH262370   2.231   0.896  14.510  1.1055  0.3531 -0.8332
13652TIP3    H162371   2.320   0.862  14.521  0.7900 -1.1424 -2.4803
13652TIP3    H262372   2.215   0.892  14.415  0.2364  3.1875 -0.9211
13653TIP3   OH262373   3.888   4.945   3.521 -0.1669 -0.5166  0.3946
13653TIP3    H162374   3.857   4.955   3.431  1.8339  0.6347 -0.2252
13653TIP3    H262375   3.926   4.857   3.524  1.7518  0.2497 -0.5692
13654TIP3   OH262376   5.988   5.067  10.832 -0.2754  0.5778  0.5351
13654TIP3    H162377   6.037   5.138  10.873 -0.8667  1.2107  0.1677
13654TIP3    H262378   6.019   5.066  10.741 -1.9098  1.9356 -0.1028
13655TIP3   OH262379   1.210   2.633  14.043  0.4610 -0.1535  0.2745
13655TIP3    H162380   1.262   2.560  14.078  2.4254  0.2342 -1.6533
13655TIP3    H262381   1.263   2.669  13.973 -1.8576  1.1871 -0.9105
13656TIP3   OH262382   0.503   2.867   3.899 -0.5561 -0.2901  0.2719
13656TIP3    H162383   0.440   2.827   3.840  0.5382 -0.7881 -0.6012
13656TIP3    H262384   0.554   2.793   3.934  0.4637  0.1868 -0.1443
13657TIP3   OH262385   2.714   4.107   5.125  0.1433 -0.1779  0.0809
13657TIP3    H162386   2.775   4.037   5.101 -0.3271 -0.6761  0.3321
13657TIP3    H262387   2.668   4.074   5.202  0.5619  0.7859  0.7633
13658TIP3   OH262388   1.924   0.618   0.155 -0.4080 -0.0487  0.3111
13658TIP3    H162389   1.987   0.603   0.226  1.1657  2.8485 -0.3114
13658TIP3    H262390   1.859   0.678   0.193 -0.5719  0.0978 -0.1903
13659TIP3   OH262391   4.651   4.124   5.802 -0.5080  0.2948 -0.5126
13659TIP3    H162392   4.704   4.119   5.722 -0.5771 -0.1123 -0.5373
13659TIP3    H262393   4.568   4.083   5.778 -1.4220  2.2617 -0.9215
13660TIP3   OH262394   2.083   5.321  16.469  0.1641  0.0994  0.0586
13660TIP3    H162395   2.080   5.325  16.373 -0.3586 -0.1698  0.0596
13660TIP3    H262396   2.101   5.411  16.496 -1.5932  0.5740 -0.2314
13661TIP3   OH262397   0.975   4.201  12.201  0.4239  0.0721  0.3901
13661TIP3    H162398   0.920   4.131  12.235 -0.8347  0.7345 -0.1853
13661TIP3    H262399   0.934   4.225  12.117  0.9186  1.3513  0.4831
13662TIP3   OH262400   6.767   4.837   1.292  0.1830 -0.0968  0.2924
13662TIP3    H162401   6.702   4.907   1.292  1.1701  0.8495 -0.7061
13662TIP3    H262402   6.808   4.843   1.379 -0.8712 -0.5562  0.8451
13663TIP3   OH262403   0.627   1.623   5.438  0.4230  1.2018 -0.0387
13663TIP3    H162404   0.633   1.566   5.515 -1.6382 -0.6757 -1.1613
13663TIP3    H262405   0.707   1.604   5.389  0.0290 -0.3632 -0.1218
13664TIP3   OH262406   4.090   5.981  11.521 -0.1153  0.1274  0.3217
13664TIP3    H162407   4.089   6.020  11.433 -0.1177 -0.9773 -0.1896
13664TIP3    H262408   4.015   6.020  11.565 -0.5024  0.2169 -0.3903
13665TIP3   OH262409   6.633   3.164   5.631  0.3373 -1.0253 -0.1616
13665TIP3    H162410   6.704   3.176   5.694 -0.2326 -0.7367  0.4512
13665TIP3    H262411   6.583   3.090   5.667  0.0754 -0.9340 -0.3374
13666TIP3   OH262412   6.443   3.507  16.383 -0.3720  0.1136  0.4573
13666TIP3    H162413   6.455   3.553  16.466 -0.5271 -0.2180  0.6657
13666TIP3    H262414   6.352   3.476  16.386  0.0916 -1.2754  0.8650
13667TIP3   OH262415   5.399   1.061  15.078  0.4555  0.6350  0.4910
13667TIP3    H162416   5.418   0.974  15.111 -0.3811  0.5899  0.8809
13667TIP3    H262417   5.445   1.120  15.137  0.6829  0.4748  0.4746
13668TIP3   OH262418   6.565   1.192  13.120 -0.1308  0.4307 -0.0595
13668TIP3    H162419   6.530   1.274  13.154 -1.3509 -0.4615  0.8831
13668TIP3    H262420   6.601   1.147  13.196 -1.1348 -0.7248 -0.2427
13669TIP3   OH262421   2.740   0.787  13.675 -0.5223  0.0446 -0.4111
13669TIP3    H162422   2.759   0.814  13.765  0.7137 -1.5603 -0.1405
13669TIP3    H262423   2.824   0.794  13.630 -0.2871 -2.4540 -0.5019
13670TIP3   OH262424   2.818   6.073  13.566  0.3442 -0.4226  0.6906
13670TIP3    H162425   2.834   6.139  13.499 -1.4003  1.6221  2.1114
13670TIP3    H262426   2.750   6.016  13.529 -0.4789  0.5822  0.6061
13671TIP3   OH262427   6.544   2.682  11.121  0.1232 -0.4726 -0.2128
13671TIP3    H162428   6.629   2.722  11.103 -0.9311  1.8104 -0.3733
13671TIP3    H262429   6.480   2.741  11.082 -1.6935 -0.8818  1.9210
13672TIP3   OH262430   3.653   2.765  17.252  0.5160  0.0686 -0.5614
13672TIP3    H162431   3.676   2.849  17.213 -0.2076 -0.6810 -2.7606
13672TIP3    H262432   3.570   2.781  17.298  1.4096  0.9796  0.7964
13673TIP3   OH262433   2.869   1.463  16.265 -0.5169 -0.9253  0.1948
13673TIP3    H162434   2.890   1.389  16.208 -0.7449 -0.9040  0.0851
13673TIP3    H262435   2.817   1.522  16.211  2.0968  0.7444 -0.6566
13674TIP3   OH262436   2.365   2.875  14.328 -0.4891  1.0113  0.2659
13674TIP3    H162437   2.349   2.899  14.419  2.1587  0.1237  1.0363
13674TIP3    H262438   2.427   2.941  14.296  0.1819  0.1626 -0.2386
13675TIP3   OH262439   4.892   6.074  17.319  0.2596 -0.1927 -0.6128
13675TIP3    H162440   4.821   6.010  17.316  0.3542 -0.2746 -1.3969
13675TIP3    H262441   4.857   6.147  17.370  0.3318 -1.0675  0.7461
13676TIP3   OH262442   6.276   6.313   0.948  0.0694 -0.0853 -1.1216
13676TIP3    H162443   6.308   6.226   0.970  0.1028  0.4299  1.0526
13676TIP3    H262444   6.181   6.302   0.935 -0.4142 -0.0642  1.8167
13677TIP3   OH262445   6.233   4.936   1.623  0.1987  0.2440 -0.1666
13677TIP3    H162446   6.155   4.930   1.568  0.5660  0.0993 -0.6801
13677TIP3    H262447   6.263   4.845   1.633  0.1867  0.2774  0.1975
13678TIP3   OH262448   1.614   5.686  13.620  0.1325 -0.0453 -0.0597
13678TIP3    H162449   1.619   5.775  13.584 -0.2260 -0.3441 -0.8536
13678TIP3    H262450   1.575   5.698  13.707 -1.2197  0.4253 -0.7131
13679TIP3   OH262451   5.975   3.745  12.971 -0.0129 -0.0752 -0.2645
13679TIP3    H162452   5.993   3.771  12.880 -1.1604  1.2923 -0.1309
13679TIP3    H262453   5.882   3.723  12.971 -0.9497  3.2474  1.2375
13680TIP3   OH262454   6.014   2.899   5.820  0.7667  0.1448  0.6392
13680TIP3    H162455   5.970   2.930   5.741 -0.4540 -1.9811  0.3978
13680TIP3    H262456   6.100   2.870   5.790  0.5514 -0.0552  0.2132
13681TIP3   OH262457   0.589   4.182   1.122 -0.5628  0.6235  0.1623
13681TIP3    H162458   0.505   4.208   1.083 -0.5242  1.4854  0.6411
13681TIP3    H262459   0.613   4.255   1.179 -0.2448 -0.2819  1.2303
13682TIP3   OH262460   2.677   2.069   0.984 -0.3109 -0.4092 -0.0322
13682TIP3    H162461   2.767   2.096   1.000 -0.7386  0.7308  0.6151
13682TIP3    H262462   2.684   1.985   0.940  1.1041  0.6652 -1.9748
13683TIP3   OH262463   2.796   3.744   1.999  0.6490 -0.2322  0.0331
13683TIP3    H162464   2.804   3.720   2.091 -0.5971 -0.6268  0.0547
13683TIP3    H262465   2.883   3.777   1.975  1.1602 -0.6986  1.1769
13684TIP3   OH262466   4.747   5.833   6.821 -0.2277 -0.0344  0.4794
13684TIP3    H162467   4.754   5.738   6.823  1.0800 -0.0360 -1.4198
13684TIP3    H262468   4.754   5.856   6.729  2.3671  2.0535  1.0771
13685TIP3   OH262469   3.594   6.082  11.753  0.1079 -0.4365  0.1290
13685TIP3    H162470   3.595   6.178  11.756 -0.2047 -0.4279 -0.0423
13685TIP3    H262471   3.545   6.056  11.831 -0.4821 -0.4361 -0.2388
13686TIP3   OH262472   3.554   1.530  10.550 -0.4615  0.4155 -1.1343
13686TIP3    H162473   3.528   1.612  10.508  0.9038  0.9468 -0.9931
13686TIP3    H262474   3.643   1.513  10.518  2.1771  2.6031  3.7973
13687TIP3   OH262475   4.380   2.419   5.350 -0.1253  0.3199 -0.1357
13687TIP3    H162476   4.403   2.353   5.414  0.2209  0.1643 -0.4157
13687TIP3    H262477   4.424   2.499   5.380  0.1611  0.2093 -0.2627
13688TIP3   OH262478   1.102   1.539  16.318 -0.0921  0.4494 -0.2693
13688TIP3    H162479   1.027   1.483  16.339 -0.2408 -0.1098 -2.1056
13688TIP3    H262480   1.169   1.514  16.382 -1.1867  0.4019  0.9010
13689TIP3   OH262481   0.698   4.225  10.902 -0.1535 -0.2518 -0.5867
13689TIP3    H162482   0.781   4.197  10.862  2.1207  0.4128  3.2009
13689TIP3    H262483   0.690   4.317  10.878  0.1686 -0.3303 -1.0196
13690TIP3   OH262484   0.274   2.379  12.663 -0.6483 -0.0618 -1.1690
13690TIP3    H162485   0.206   2.432  12.705  0.7800  1.1334 -0.2796
13690TIP3    H262486   0.344   2.374  12.728  1.6214  1.7754 -3.2989
13691TIP3   OH262487   4.267   3.144  16.215  0.1911 -0.6717  0.1427
13691TIP3    H162488   4.206   3.204  16.258  2.3176  3.9371 -2.5921
13691TIP3    H262489   4.226   3.125  16.131  1.2674  0.2374 -0.6021
13692TIP3   OH262490   6.031   6.109   1.001  0.4046  0.4746  1.2175
13692TIP3    H162491   5.972   6.072   1.066 -0.6436 -1.5086 -0.6957
13692TIP3    H262492   6.101   6.044   0.994  1.3588  1.4584  1.5012
13693TIP3   OH262493   1.013   4.617  13.234 -0.6777  0.3318  0.1635
13693TIP3    H162494   1.015   4.585  13.324  0.8071 -0.3339 -0.0665
13693TIP3    H262495   1.065   4.698  13.236 -0.1113 -0.0123 -0.1823
13694TIP3   OH262496   4.590   5.127   4.003  0.5774  0.3764 -0.2761
13694TIP3    H162497   4.600   5.105   3.910  0.1076  1.4874 -0.6111
13694TIP3    H262498   4.666   5.183   4.022  0.8012 -0.0486  0.0740
13695TIP3   OH262499   1.402   0.247  12.563  0.1019 -0.4284 -0.4774
13695TIP3    H162500   1.413   0.169  12.508  0.7986  0.1971 -1.2620
13695TIP3    H262501   1.314   0.279  12.541  0.1299 -0.5394 -0.7659
13696TIP3   OH262502   4.926   6.112   5.003 -0.1921  0.3595 -0.7146
13696TIP3    H162503   4.934   6.196   5.048 -0.7867 -0.9131  1.9642
13696TIP3    H262504   5.015   6.077   5.001 -0.0169  0.8237 -1.4173
13697TIP3   OH262505   4.135   0.360  10.523  0.1556 -0.4739 -0.4209
13697TIP3    H162506   4.191   0.311  10.464  1.3701 -0.0410  0.3346
13697TIP3    H262507   4.136   0.309  10.605  0.3908  0.1320 -0.0384
13698TIP3   OH262508   6.432   6.017  14.494  0.9559 -0.2608  0.2142
13698TIP3    H162509   6.408   6.109  14.488  1.6859 -0.1794 -2.6836
13698TIP3    H262510   6.516   6.017  14.541  0.8280  0.4911  0.4590
13699TIP3   OH262511   5.327   5.788  12.203 -0.3062 -0.0895 -0.2180
13699TIP3    H162512   5.322   5.708  12.257 -0.8644 -0.4595 -0.8015
13699TIP3    H262513   5.402   5.836  12.238  0.5414 -1.2571 -0.3818
13700TIP3   OH262514   6.118   0.465   3.292  0.2546 -0.2726 -1.0603
13700TIP3    H162515   6.195   0.435   3.341  0.0594  1.8175  0.7023
13700TIP3    H262516   6.061   0.389   3.287  0.7608 -0.8670  1.1385
13701TIP3   OH262517   4.798   2.577   2.570  0.3603 -0.0575 -0.4143
13701TIP3    H162518   4.793   2.651   2.509  1.8823  0.0402 -0.4655
13701TIP3    H262519   4.888   2.580   2.604 -0.8824  0.9961  3.2409
13702TIP3   OH262520   2.520   0.295  10.645  0.1912  0.3478  0.2391
13702TIP3    H162521   2.547   0.356  10.576  0.8171  0.7283  0.8026
13702TIP3    H262522   2.526   0.209  10.605  0.1982  0.5919 -0.2911
13703TIP3   OH262523   2.816   3.381  13.762  0.5790  0.7995  0.1804
13703TIP3    H162524   2.749   3.425  13.813 -0.6202  0.1197 -0.7706
13703TIP3    H262525   2.773   3.355  13.681  1.1848 -2.1158  0.6676
13704TIP3   OH262526   2.319   0.850   0.617 -0.2777 -0.7069  0.0813
13704TIP3    H162527   2.331   0.881   0.706  3.3844 -0.3023 -0.3926
13704TIP3    H262528   2.242   0.793   0.621  0.2752 -1.4015  3.6794
13705TIP3   OH262529   5.569   3.585   3.034 -0.0442 -0.0034  0.0493
13705TIP3    H162530   5.591   3.508   3.086 -0.3887  0.9543  1.6955
13705TIP3    H262531   5.475   3.577   3.019 -0.6342  1.3497  2.5216
13706TIP3   OH262532   3.134   4.140  16.249  0.0242 -0.0343  0.7626
13706TIP3    H162533   3.107   4.231  16.265 -1.2992 -0.3022  0.1736
13706TIP3    H262534   3.067   4.105  16.191 -0.0173 -1.6945  1.7483
13707TIP3   OH262535   6.089   1.373  13.378  0.4546 -0.5633  0.3955
13707TIP3    H162536   6.160   1.387  13.440  0.3901  0.6550  0.2238
13707TIP3    H262537   6.092   1.450  13.321 -0.6297 -0.7796  0.0273
13708TIP3   OH262538   6.369   6.697   0.806 -0.0326  0.7830 -0.3475
13708TIP3    H162539   6.310   6.659   0.741 -0.0479  1.5697 -0.7958
13708TIP3    H262540   6.312   6.752   0.860 -0.2634 -0.7700  1.1204
13709TIP3   OH262541   6.298   3.541  13.933 -0.0100  0.1049 -0.3026
13709TIP3    H162542   6.208   3.513  13.915 -0.0232 -0.1155  0.1026
13709TIP3    H262543   6.351   3.466  13.909 -0.0943 -0.5293  1.4073
13710TIP3   OH262544   5.512   2.231  10.893 -0.1728  0.0939 -0.0695
13710TIP3    H162545   5.578   2.171  10.855 -0.8379  0.5064 -2.0087
13710TIP3    H262546   5.561   2.311  10.912  0.6264 -0.8275  2.1079
13711TIP3   OH262547   4.559   4.626   2.212  0.3789  0.5070 -0.0231
13711TIP3    H162548   4.620   4.593   2.146  0.8811 -1.2855  1.2557
13711TIP3    H262549   4.506   4.551   2.236  0.4151  1.0247  1.8150
13712TIP3   OH262550   0.326   1.258   5.567 -0.1528  0.0162 -0.2952
13712TIP3    H162551   0.317   1.187   5.631 -0.7348 -1.0805 -1.5523
13712TIP3    H262552   0.319   1.338   5.620  3.1359 -0.7324  1.5778
13713TIP3   OH262553   2.537   2.611  11.970 -0.7369 -0.2462  0.1063
13713TIP3    H162554   2.535   2.681  12.034 -1.1617 -0.2927  0.1463
13713TIP3    H262555   2.582   2.539  12.014 -0.6749 -0.1453  0.2093
13714TIP3   OH262556   3.867   6.640  16.487 -0.1085 -0.0410  0.1508
13714TIP3    H162557   3.852   6.729  16.456 -3.2753 -0.9760 -1.4716
13714TIP3    H262558   3.864   6.646  16.582  0.9414  1.7057  0.1076
13715TIP3   OH262559   6.333   2.335   2.838 -0.1919 -0.2156 -0.0464
13715TIP3    H162560   6.325   2.416   2.889 -0.6001 -0.9667  1.1137
13715TIP3    H262561   6.272   2.347   2.765 -0.1855  0.5630  0.0650
13716TIP3   OH262562   2.916   3.401   2.821  0.3468  0.2028 -0.4962
13716TIP3    H162563   2.920   3.317   2.777  0.3614  0.0751 -0.2524
13716TIP3    H262564   2.924   3.380   2.914  1.4693  0.5624 -0.4970
13717TIP3   OH262565   3.943   1.687  15.399  0.0467 -0.2024  0.0407
13717TIP3    H162566   4.032   1.718  15.413  0.6391 -2.0385  0.7352
13717TIP3    H262567   3.954   1.594  15.378 -1.7453 -0.7722  1.3630
13718TIP3   OH262568   0.940   0.828  12.114 -0.0872 -0.0570  0.1016
13718TIP3    H162569   0.985   0.800  12.194 -0.5726 -1.7888 -0.1985
13718TIP3    H262570   0.993   0.793  12.043  0.4481  1.6408 -0.3838
13719TIP3   OH262571   5.035   0.367  13.498  0.2259  0.1498  0.3125
13719TIP3    H162572   5.039   0.273  13.481 -1.2721 -0.1260  1.2794
13719TIP3    H262573   5.102   0.382  13.565  2.0956  0.2280 -1.4983
13720TIP3   OH262574   3.787   4.702  15.952 -0.2379 -0.5618 -0.3965
13720TIP3    H162575   3.787   4.772  15.887  0.2983  0.3503  0.5485
13720TIP3    H262576   3.754   4.625  15.905 -1.0955  0.3776 -1.3954
13721TIP3   OH262577   3.866   5.458  12.434  0.0895 -0.3799 -0.0895
13721TIP3    H162578   3.959   5.438  12.422 -0.3042 -1.7951 -0.9905
13721TIP3    H262579   3.837   5.492  12.350 -0.4225 -0.8416 -0.1041
13722TIP3   OH262580   6.346   0.609  13.739 -0.0337 -0.1930 -0.2492
13722TIP3    H162581   6.321   0.699  13.717 -0.0383 -0.3392 -0.8703
13722TIP3    H262582   6.400   0.617  13.818 -0.2300  0.3286 -0.1668
13723TIP3   OH262583   3.555   6.719  14.305  0.2373 -0.2294  0.4052
13723TIP3    H162584   3.619   6.651  14.286 -0.1252 -0.2522 -0.8541
13723TIP3    H262585   3.472   6.673  14.310 -0.0822  0.1438 -0.9532
13724TIP3   OH262586   4.465   0.567   5.923  0.0526 -0.5580  0.4744
13724TIP3    H162587   4.538   0.582   5.983 -0.7353 -0.2991  1.3901
13724TIP3    H262588   4.506   0.543   5.840  1.2792  1.9765  0.2624
13725TIP3   OH262589   5.336   3.835   5.344 -0.5419 -0.5184  0.2225
13725TIP3    H162590   5.332   3.745   5.313 -1.5920 -0.0851 -0.9721
13725TIP3    H262591   5.261   3.879   5.302 -0.6199  0.6817  1.5212
13726TIP3   OH262592   0.128   2.189   5.695 -0.4847  0.2011  0.2796
13726TIP3    H162593   0.093   2.148   5.774 -0.6092  0.0884  0.1647
13726TIP3    H262594   0.051   2.207   5.641 -0.1584 -3.0738 -1.4780
13727TIP3   OH262595   6.530   4.985  15.277 -0.0152 -0.3658  0.7857
13727TIP3    H162596   6.622   4.999  15.257  0.5093 -4.0307 -0.0035
13727TIP3    H262597   6.524   4.995  15.372  1.3997 -0.9578  0.9565
13728TIP3   OH262598   5.954   5.585  15.522  0.6231  0.3721 -0.3446
13728TIP3    H162599   5.897   5.580  15.446 -0.0951 -0.0532  0.2046
13728TIP3    H262600   5.952   5.497  15.559 -0.4853  0.9861  1.1758
13729TIP3   OH262601   4.297   1.400   0.818  0.0391  0.2840 -0.2656
13729TIP3    H162602   4.307   1.436   0.729 -1.3073  0.0642 -0.5325
13729TIP3    H262603   4.218   1.442   0.851 -1.2057 -1.8693 -0.3264
13730TIP3   OH262604   1.690   1.298  13.562 -0.0753 -0.0533  0.1105
13730TIP3    H162605   1.669   1.390  13.578 -1.2395 -0.7558  3.4549
13730TIP3    H262606   1.616   1.265  13.512 -0.2221  0.5571 -0.0925
13731TIP3   OH262607   5.932   1.362  12.562  0.6020 -0.4701 -0.5260
13731TIP3    H162608   5.892   1.401  12.484  0.5193 -0.7280 -0.6139
13731TIP3    H262609   5.915   1.425  12.632 -0.7725 -1.0092 -0.3558
13732TIP3   OH262610   0.753   2.367  11.505  0.0677 -0.3999  0.1067
13732TIP3    H162611   0.748   2.275  11.480  0.1706 -0.5198  0.5217
13732TIP3    H262612   0.671   2.383  11.552 -1.4243  0.5382 -2.5981
13733TIP3   OH262613   5.172   0.255   6.338  0.2435  0.0288 -0.8751
13733TIP3    H162614   5.123   0.185   6.296  0.4778  0.2668 -1.5633
13733TIP3    H262615   5.263   0.223   6.340  0.0557 -0.4786  0.5342
13734TIP3   OH262616   1.419   1.441  11.474 -0.4524  0.1731  0.3300
13734TIP3    H162617   1.412   1.505  11.544  0.3098  0.5317  0.0805
13734TIP3    H262618   1.330   1.434  11.439  0.0722  4.5149 -2.6506
13735TIP3   OH262619   2.742   1.909   3.627 -0.2335  0.0975  0.1897
13735TIP3    H162620   2.676   1.950   3.572  0.4673 -0.3414 -1.0166
13735TIP3    H262621   2.825   1.941   3.592  0.2137  0.6336  1.6679
13736TIP3   OH262622   3.406   2.123  17.281  0.5554 -0.9876 -0.1393
13736TIP3    H162623   3.494   2.159  17.282  1.6528 -3.0042 -3.9208
13736TIP3    H262624   3.350   2.198  17.261  1.6940 -0.0857 -0.0469
13737TIP3   OH262625   2.858   3.311   2.337 -0.4672  0.4193 -0.3830
13737TIP3    H162626   2.794   3.382   2.334 -0.5823  0.4121  1.0677
13737TIP3    H262627   2.919   3.337   2.406  0.1186 -0.3770 -0.5887
13738TIP3   OH262628   4.703   6.160  14.365 -0.2788 -0.3451  0.2964
13738TIP3    H162629   4.761   6.225  14.403  0.3566 -0.0926 -1.0473
13738TIP3    H262630   4.760   6.085  14.344 -0.4867 -0.2569 -0.6457
13739TIP3   OH262631   3.812   2.072   2.649  0.1061 -0.6591  0.0070
13739TIP3    H162632   3.784   2.005   2.587  3.1166 -2.8595  0.8167
13739TIP3    H262633   3.755   2.060   2.725 -0.7495 -0.8351 -0.6448
13740TIP3   OH262634   4.915   1.979   5.129 -0.9344  0.2367 -0.1955
13740TIP3    H162635   4.997   1.964   5.082 -0.6130  0.6784  0.2136
13740TIP3    H262636   4.847   1.953   5.067 -0.5235  0.9772 -0.9895
13741TIP3   OH262637   0.486   3.946   4.411 -1.0008 -0.2109 -0.4888
13741TIP3    H162638   0.533   3.872   4.372  0.4823  0.7189 -0.5589
13741TIP3    H262639   0.396   3.935   4.381 -1.2228 -2.8567  0.7907
13742TIP3   OH262640   5.069   4.604   1.887  0.0483  0.4351  0.4104
13742TIP3    H162641   5.095   4.695   1.875  2.3537 -0.4057 -1.7202
13742TIP3    H262642   5.002   4.588   1.821 -0.4581  0.5763  0.8754
13743TIP3   OH262643   5.190   5.419  16.361  0.3875  0.1506 -0.1649
13743TIP3    H162644   5.171   5.347  16.301 -0.6329  0.9155 -0.7858
13743TIP3    H262645   5.187   5.498  16.306 -1.0059  0.9214  0.9588
13744TIP3   OH262646   4.942   2.276  16.449 -0.0343 -0.2075  0.1404
13744TIP3    H162647   4.927   2.183  16.468 -1.4667 -0.1914 -0.7235
13744TIP3    H262648   4.933   2.320  16.534 -1.2884 -0.6640  0.2599
13745TIP3   OH262649   3.822   0.714  12.875  0.0787  0.5357  0.6103
13745TIP3    H162650   3.875   0.790  12.852  0.8768 -0.2869 -0.3879
13745TIP3    H262651   3.887   0.645  12.892 -0.6034 -1.0494 -2.5410
13746TIP3   OH262652   5.102   3.010  12.122  0.2460  0.4079 -0.4443
13746TIP3    H162653   5.107   2.918  12.098  0.9430  0.3804 -0.1976
13746TIP3    H262654   5.009   3.032  12.113 -0.1225 -0.6124  0.5851
13747TIP3   OH262655   2.970   0.827  13.454  0.0291 -0.0014  0.4315
13747TIP3    H162656   2.899   0.807  13.392  1.6057  2.5507 -2.5073
13747TIP3    H262657   3.034   0.757  13.440 -0.1451 -0.0903  0.0563
13748TIP3   OH262658   3.449   4.544  12.413 -0.7191 -0.2250 -0.1094
13748TIP3    H162659   3.372   4.600  12.419 -1.2185 -0.7386 -1.3666
13748TIP3    H262660   3.442   4.485  12.488 -0.6483  0.8054  0.7281
13749TIP3   OH262661   0.754   6.461   3.084 -0.5364  0.0848 -0.3124
13749TIP3    H162662   0.760   6.392   3.150 -0.3091 -0.5579 -0.9937
13749TIP3    H262663   0.689   6.522   3.118  0.5359  0.4796  1.1605
13750TIP3   OH262664   3.197   0.299  16.114  0.0182 -0.1223  0.3461
13750TIP3    H162665   3.108   0.266  16.104  0.2897 -0.8914  0.3981
13750TIP3    H262666   3.186   0.393  16.129 -0.8080 -0.2994  0.9207
13751TIP3   OH262667   5.027   4.394   1.523  0.3710  0.1761 -0.3669
13751TIP3    H162668   5.044   4.329   1.454  1.5629  0.1173 -0.0428
13751TIP3    H262669   5.083   4.367   1.596  0.4946  1.2730 -0.0333
13752TIP3   OH262670   4.754   5.922  12.739 -0.3902  0.6058 -0.3369
13752TIP3    H162671   4.780   6.013  12.726 -0.5662  0.6807 -0.1752
13752TIP3    H262672   4.669   5.927  12.783  0.1372  0.3758  0.7449
13753TIP3   OH262673   6.203   1.806  14.003  0.0684 -0.1075 -0.1883
13753TIP3    H162674   6.242   1.851  13.928  0.3889 -1.2211 -0.7171
13753TIP3    H262675   6.253   1.838  14.078 -0.2840  1.0540 -0.4250
13754TIP3   OH262676   5.471   5.840   4.111 -0.2813 -0.2140  0.1197
13754TIP3    H162677   5.457   5.802   4.025  2.1179  0.8699 -0.8252
13754TIP3    H262678   5.452   5.933   4.100 -1.2129 -0.2601  1.1280
13755TIP3   OH262679   5.155   5.355   3.993 -0.0694 -0.3373 -0.0872
13755TIP3    H162680   5.238   5.385   4.028 -0.4855  0.8610 -0.0726
13755TIP3    H262681   5.089   5.402   4.043 -0.7205 -0.3428 -0.9077
13756TIP3   OH262682   2.778   6.168  15.913 -0.7212  0.3059  0.6645
13756TIP3    H162683   2.767   6.129  16.000 -1.3006 -2.8507 -0.6819
13756TIP3    H262684   2.690   6.177  15.879 -0.4626  0.6786  0.0819
13757TIP3   OH262685   2.824   2.058  14.793 -0.0557 -0.1573  0.5652
13757TIP3    H162686   2.843   2.109  14.872 -1.1668 -2.1389  2.1962
13757TIP3    H262687   2.804   2.124  14.726  1.3079  1.5844  1.7912
13758TIP3   OH262688   6.391   2.717   4.382  0.4315 -0.3142  0.5211
13758TIP3    H162689   6.299   2.719   4.411 -0.1725  0.7599 -1.3275
13758TIP3    H262690   6.387   2.690   4.291  2.0453 -0.9267  0.6012
13759TIP3   OH262691   2.761   5.422   4.884  0.0096 -0.5449  0.2650
13759TIP3    H162692   2.828   5.406   4.950  0.4986 -1.2622 -0.3813
13759TIP3    H262693   2.686   5.369   4.912  0.0051 -0.3813  0.5599
13760TIP3   OH262694   4.675   5.474   3.587 -0.3900  0.1680 -0.5255
13760TIP3    H162695   4.669   5.555   3.536  1.8343  0.0573 -1.0438
13760TIP3    H262696   4.680   5.504   3.678 -0.0558  0.6013 -0.6801
13761TIP3   OH262697   1.715   2.949  16.921 -0.0610  0.0848 -0.1216
13761TIP3    H162698   1.731   2.944  17.015 -0.2514 -2.9095 -0.1615
13761TIP3    H262699   1.621   2.935  16.912 -0.1659  1.0936 -0.7607
13762TIP3   OH262700   5.346   1.910   2.638  0.0825  0.0525  0.1014
13762TIP3    H162701   5.342   1.919   2.543  1.0159 -1.2381 -0.0884
13762TIP3    H262702   5.318   1.821   2.655  2.1595 -0.5235  0.8028
13763TIP3   OH262703   6.244   1.795   6.524  0.0758  0.4919 -0.4713
13763TIP3    H162704   6.197   1.871   6.488 -1.8525  0.5544  1.9192
13763TIP3    H262705   6.322   1.832   6.565 -0.9656  1.2793  0.8766
13764TIP3   OH262706   5.769   5.317   0.473  0.7302  0.5487  0.1283
13764TIP3    H162707   5.789   5.292   0.563 -0.9366  2.0698  0.9954
13764TIP3    H262708   5.726   5.239   0.436  1.6473 -0.1767  0.5521
13765TIP3   OH262709   4.920   0.019   3.988 -0.5812  0.1226 -0.2039
13765TIP3    H162710   4.903  -0.018   3.902 -0.2739  0.0407 -0.2324
13765TIP3    H262711   4.836   0.056   4.016 -0.5546  0.6547 -0.7852
13766TIP3   OH262712   4.552   1.907  13.623 -0.3981  0.1504  0.4382
13766TIP3    H162713   4.606   1.919  13.545  0.3487 -0.4882  0.8389
13766TIP3    H262714   4.465   1.884  13.589 -0.3132  0.7803 -0.2095
13767TIP3   OH262715   1.225   2.004   1.220  0.1511 -0.4471 -0.6002
13767TIP3    H162716   1.304   2.056   1.234  0.1118 -0.0436 -1.8128
13767TIP3    H262717   1.254   1.930   1.166  0.0753 -1.3853  0.5791
13768TIP3   OH262718   1.749   0.664  11.623 -0.0044 -0.3093 -0.2173
13768TIP3    H162719   1.701   0.650  11.542 -0.7828  0.4091  0.0969
13768TIP3    H262720   1.688   0.639  11.692 -0.3444  1.5415  0.2318
13769TIP3   OH262721   3.040   4.108  13.274 -0.1986 -0.1698 -0.0460
13769TIP3    H162722   3.085   4.186  13.241 -0.1132  0.1064  0.7074
13769TIP3    H262723   3.110   4.044  13.286 -0.2360 -0.2866 -0.4359
13770TIP3   OH262724   6.386   4.254  12.169  0.0792  0.6400 -0.4318
13770TIP3    H162725   6.340   4.295  12.096 -0.1885 -0.7849 -1.0828
13770TIP3    H262726   6.316   4.216  12.223  0.2998  1.3413  0.3809
13771TIP3   OH262727   4.988   4.576  10.842  0.3648  0.3023  0.1144
13771TIP3    H162728   4.975   4.671  10.841 -0.7030  0.1796  0.6089
13771TIP3    H262729   4.935   4.545  10.916  1.3565 -0.5960  0.4741
13772TIP3   OH262730   2.869   5.678   2.542  0.3196  0.0561 -0.3534
13772TIP3    H162731   2.853   5.772   2.538 -2.4082 -0.3695 -0.9966
13772TIP3    H262732   2.914   5.666   2.627  1.3793  1.9512 -0.5726
13773TIP3   OH262733   2.082   1.281  13.745 -0.3408 -0.6245  0.1545
13773TIP3    H162734   2.051   1.234  13.668  1.2832  1.2440 -1.7830
13773TIP3    H262735   2.160   1.234  13.774  0.5114  0.0483 -0.9625
13774TIP3   OH262736   1.269   1.687  16.154 -1.0506  0.0176 -0.0958
13774TIP3    H162737   1.314   1.727  16.229 -0.1982 -1.2872  0.1179
13774TIP3    H262738   1.206   1.626  16.194 -1.4222  0.1762 -0.4308
13775TIP3   OH262739   4.740   6.535   1.057  0.0633  0.3146 -0.2870
13775TIP3    H162740   4.683   6.612   1.049 -0.0151  0.3461  0.4699
13775TIP3    H262741   4.828   6.568   1.040 -0.1810  0.1756 -1.9294
13776TIP3   OH262742   2.124   1.753   0.047  0.1880 -0.4532 -0.1522
13776TIP3    H162743   2.176   1.813   0.100  0.5921  0.7278 -1.8296
13776TIP3    H262744   2.082   1.695   0.111  0.6147  0.9445  1.4504
13777TIP3   OH262745   2.905   1.453   3.310  0.3383 -0.3647 -0.6947
13777TIP3    H162746   2.896   1.547   3.301 -1.8794 -0.2810  1.4050
13777TIP3    H262747   2.963   1.441   3.386  0.5325 -0.7105 -0.8901
13778TIP3   OH262748   3.022   5.448   1.446  0.4487 -1.0147  0.2119
13778TIP3    H162749   3.058   5.453   1.535  0.1526 -0.8885  0.3271
13778TIP3    H262750   2.934   5.412   1.458  0.1714 -0.4186  0.0346
13779TIP3   OH262751   3.751   3.334   0.892  0.0642  0.1170  0.1519
13779TIP3    H162752   3.788   3.419   0.916  1.9402 -0.7652  0.4885
13779TIP3    H262753   3.699   3.352   0.813  0.9613  1.4578 -0.1604
13780TIP3   OH262754   4.399   4.578   6.070  0.3452  0.1444  0.0050
13780TIP3    H162755   4.363   4.655   6.114  2.3971  1.2591 -0.0959
13780TIP3    H262756   4.447   4.615   5.995 -0.6348 -1.4616 -1.4670
13781TIP3   OH262757   1.380   0.535  12.965  0.5494  0.2806 -0.2794
13781TIP3    H162758   1.298   0.514  13.011  1.7659 -0.9477  1.4486
13781TIP3    H262759   1.438   0.568  13.034  1.4817  1.2528 -1.4925
13782TIP3   OH262760   1.582   3.907   5.365  0.2650 -0.1148 -0.3505
13782TIP3    H162761   1.610   3.861   5.285  1.1853 -0.1588 -0.0150
13782TIP3    H262762   1.514   3.850   5.402 -0.3047 -0.0041 -1.1868
13783TIP3   OH262763   6.268   2.385  13.414 -0.1809  0.4282  0.2224
13783TIP3    H162764   6.263   2.405  13.320 -0.4145 -0.3685  0.0515
13783TIP3    H262765   6.350   2.337  13.424 -0.5259 -0.1611  0.2840
13784TIP3   OH262766   2.032   2.837  11.094 -0.2171  0.1584 -0.6980
13784TIP3    H162767   2.053   2.778  11.021  1.2078  1.0656 -1.0563
13784TIP3    H262768   2.077   2.919  11.073 -1.2288  1.0118  0.3529
13785TIP3   OH262769   3.677   5.690  16.456 -0.3664  0.7570  0.1659
13785TIP3    H162770   3.723   5.678  16.373 -0.4512  0.5020  0.1561
13785TIP3    H262771   3.625   5.610  16.467  2.3624 -0.8896  2.2081
13786TIP3   OH262772   4.454   2.453  13.811 -1.0701 -0.2968  0.6203
13786TIP3    H162773   4.401   2.523  13.849  0.9660  0.4623  2.2945
13786TIP3    H262774   4.482   2.401  13.887 -0.0875 -1.1186 -0.2793
13787TIP3   OH262775   5.762   1.498  15.367 -0.3563  0.3928  0.3069
13787TIP3    H162776   5.791   1.455  15.287 -0.8475  0.5515  0.0429
13787TIP3    H262777   5.667   1.500  15.361 -0.5254 -1.1389  1.6965
13788TIP3   OH262778   2.552   4.681   6.389  0.1710  0.4332  0.3758
13788TIP3    H162779   2.489   4.662   6.458  0.7200  0.7508  0.9713
13788TIP3    H262780   2.502   4.728   6.323 -0.5280 -0.5011  0.2153
13789TIP3   OH262781   3.437   1.435   2.724 -0.0889  0.1370  0.3187
13789TIP3    H162782   3.370   1.492   2.686  0.3444  0.2511 -0.2947
13789TIP3    H262783   3.461   1.375   2.653 -1.0901 -1.3474  1.1681
13790TIP3   OH262784   6.763   3.330   3.030 -0.0598 -0.0707 -0.6038
13790TIP3    H162785   6.792   3.349   2.941 -2.3560 -1.1339 -1.6485
13790TIP3    H262786   6.826   3.265   3.062  0.7371  0.2605 -1.4537
13791TIP3   OH262787   0.813   4.657  17.147  0.0642 -0.1491  0.1990
13791TIP3    H162788   0.735   4.667  17.201  0.0474 -0.5009  0.2407
13791TIP3    H262789   0.879   4.623  17.206  0.3425  0.4583  0.2373
13792TIP3   OH262790   0.003   4.989   4.615 -0.1870 -0.3390  0.0210
13792TIP3    H162791  -0.090   4.974   4.634  0.1222 -0.9206  1.1871
13792TIP3    H262792   0.046   4.979   4.700  0.8402  0.8078 -0.3423
13793TIP3   OH262793   1.433   1.629   4.891 -1.0501 -0.3229  0.1480
13793TIP3    H162794   1.417   1.670   4.976 -0.4139 -0.1027  0.1634
13793TIP3    H262795   1.463   1.540   4.912 -0.5407 -0.1479  0.1640
13794TIP3   OH262796   5.853   0.948   3.927  0.0438  0.1419 -0.5080
13794TIP3    H162797   5.916   0.955   3.999  2.1511  1.9047 -2.3979
13794TIP3    H262798   5.831   1.038   3.905 -1.7373 -0.4068 -1.1140
13795TIP3   OH262799   0.879   2.385   0.255 -0.6609  0.5055 -0.3900
13795TIP3    H162800   0.860   2.299   0.217  0.0660  1.1086 -2.2059
13795TIP3    H262801   0.865   2.446   0.183  0.5007  1.7335  0.3956
13796TIP3   OH262802   5.946   5.262  13.929 -0.1403  0.0512  0.4373
13796TIP3    H162803   5.967   5.218  14.011  0.0999 -1.6452 -0.4714
13796TIP3    H262804   5.850   5.263  13.927 -0.1926 -1.6617 -0.0750
13797TIP3   OH262805   1.419   5.786  11.884  0.0156  0.3627 -0.3731
13797TIP3    H162806   1.483   5.747  11.824  0.2988  2.6157 -1.6276
13797TIP3    H262807   1.472   5.834  11.947 -0.3760  0.3114 -0.0048
13798TIP3   OH262808   0.181   2.433   5.078  0.5098  0.7239 -0.0777
13798TIP3    H162809   0.192   2.499   5.009 -0.1857  2.8271  1.7100
13798TIP3    H262810   0.232   2.467   5.152  0.9981 -1.3235  0.5869
13799TIP3   OH262811   2.383   5.004  12.936  1.4383 -0.0263 -0.2650
13799TIP3    H162812   2.308   4.982  12.992 -0.1120  1.9906 -1.4357
13799TIP3    H262813   2.444   5.048  12.995  1.7861 -1.7122  0.7127
13800TIP3   OH262814   3.139   2.712  11.378 -0.5488 -0.8783  0.1540
13800TIP3    H162815   3.082   2.674  11.311  1.4585  0.9064 -2.7525
13800TIP3    H262816   3.141   2.806  11.358  0.8399 -0.3916  2.2231
13801TIP3   OH262817   1.186   2.899   1.831  0.3142  0.0769 -0.4760
13801TIP3    H162818   1.170   2.976   1.885  0.1528  0.6506 -1.3158
13801TIP3    H262819   1.244   2.931   1.761  2.5429 -1.1910  0.6743
13802TIP3   OH262820   6.095   3.066   0.958  0.0419  0.4329 -0.4042
13802TIP3    H162821   6.087   3.156   0.989 -1.2213 -0.1895  1.2454
13802TIP3    H262822   6.023   3.057   0.895  1.1208  0.9973 -1.7525
13803TIP3   OH262823   2.873   3.793   0.512  0.4675 -0.2497  0.0330
13803TIP3    H162824   2.831   3.858   0.569  1.2011  0.8533 -0.6636
13803TIP3    H262825   2.929   3.844   0.454  0.7564 -1.4779 -0.8028
13804TIP3   OH262826   3.204   0.836  14.730 -0.4351  0.0193 -0.0348
13804TIP3    H162827   3.255   0.764  14.694 -2.3296  0.0545 -3.2125
13804TIP3    H262828   3.114   0.803  14.730 -1.2034  2.0037 -0.5436
13805TIP3   OH262829   4.183   4.678   4.901 -0.0605  0.6068  0.4587
13805TIP3    H162830   4.196   4.667   4.995  0.1939  0.3477  0.3958
13805TIP3    H262831   4.132   4.758   4.893 -0.4451  0.4042  0.8414
13806TIP3   OH262832   4.634   3.653  11.747  0.4501 -0.1640 -0.3536
13806TIP3    H162833   4.575   3.727  11.754  1.2329  0.4739 -0.3669
13806TIP3    H262834   4.699   3.679  11.681  1.9962  0.0564  1.1741
13807TIP3   OH262835   3.631   4.311  11.966 -0.0826 -0.1852 -0.0957
13807TIP3    H162836   3.539   4.332  11.978 -0.7198 -2.1232 -1.1012
13807TIP3    H262837   3.632   4.215  11.956  1.8804 -0.0775 -1.4090
13808TIP3   OH262838   6.399   5.823   2.565  0.7018  0.4588  0.0511
13808TIP3    H162839   6.305   5.836   2.552  0.4877  1.3156  2.0433
13808TIP3    H262840   6.440   5.872   2.494 -0.3570  1.0057 -0.2090
13809TIP3   OH262841   2.945   1.586  16.966 -0.0757 -0.5586  0.4979
13809TIP3    H162842   2.950   1.559  16.875 -1.0130  2.5969 -0.6200
13809TIP3    H262843   3.036   1.595  16.994  0.2537  0.4608 -0.8241
13810TIP3   OH262844   5.285   4.170   0.125  0.3574 -0.2300  0.4451
13810TIP3    H162845   5.340   4.201   0.053 -0.4899  0.0422 -0.0999
13810TIP3    H262846   5.209   4.228   0.123 -1.2346 -2.2334 -0.5259
13811TIP3   OH262847   3.848   5.165  12.253  0.1763  0.7987 -0.2145
13811TIP3    H162848   3.899   5.088  12.225 -0.0185  1.1953 -1.7797
13811TIP3    H262849   3.852   5.163  12.348  1.2309 -0.4479 -0.2501
13812TIP3   OH262850   2.961   5.208  15.997 -0.1204  0.5557 -0.3193
13812TIP3    H162851   3.038   5.193  16.053 -0.2873 -1.0736 -0.4700
13812TIP3    H262852   2.962   5.134  15.936 -1.0558  1.2510 -1.1910
13813TIP3   OH262853   2.043   3.445  11.898  0.4079  0.3665  0.0519
13813TIP3    H162854   2.108   3.415  11.835  2.5738  0.4305  2.1013
13813TIP3    H262855   1.982   3.498  11.847  1.8642  0.1572 -2.0018
13814TIP3   OH262856   1.048   2.731  10.870  0.8880 -0.0614  0.0865
13814TIP3    H162857   1.011   2.751  10.784  0.4734 -0.1555  0.2409
13814TIP3    H262858   1.139   2.758  10.863  0.7943  0.1737 -0.3010
13815TIP3   OH262859   5.479   3.397  14.967 -0.2268 -0.1206  0.2100
13815TIP3    H162860   5.390   3.378  14.993 -0.4529 -0.1094 -0.5212
13815TIP3    H262861   5.522   3.428  15.046 -0.9014 -0.0168  0.5362
13816TIP3   OH262862   0.837   0.156  11.652 -0.2568 -0.3158 -0.2229
13816TIP3    H162863   0.924   0.173  11.688 -0.4594 -0.6062  0.4208
13816TIP3    H262864   0.830   0.061  11.651 -0.6539 -0.2928 -0.0376
13817TIP3   OH262865   0.251   3.975   3.544  0.6921  0.9953  0.4603
13817TIP3    H162866   0.224   4.065   3.558 -0.4275  1.0394 -1.5647
13817TIP3    H262867   0.195   3.923   3.602 -0.5875  1.4303 -0.3539
13818TIP3   OH262868   2.461   5.412  12.934 -0.2612  0.4089  0.1396
13818TIP3    H162869   2.446   5.499  12.971 -2.5214  0.4762 -0.7233
13818TIP3    H262870   2.394   5.404  12.866  0.3934 -1.7151 -0.3214
13819TIP3   OH262871   3.886   5.914   1.291  0.4494 -0.0172 -0.4149
13819TIP3    H162872   3.844   5.891   1.374  0.4393 -0.7558 -0.6104
13819TIP3    H262873   3.936   5.993   1.311  1.0050 -0.5624  0.4983
13820TIP3   OH262874   5.198   5.167  11.440  0.0471 -0.2980  0.9238
13820TIP3    H162875   5.193   5.126  11.526  2.9529 -0.0300  1.3382
13820TIP3    H262876   5.139   5.243  11.445 -0.8345 -1.0426  2.1919
13821TIP3   OH262877   5.789   5.424  12.033 -0.0211 -0.0161  0.5227
13821TIP3    H162878   5.711   5.416  11.979  1.5942 -0.3814 -1.9304
13821TIP3    H262879   5.759   5.407  12.122 -2.7220 -0.0068 -0.2995
13822TIP3   OH262880   2.315   2.311  10.282  0.2171  0.1683 -0.2238
13822TIP3    H162881   2.263   2.387  10.307  1.0393  0.5131  0.4866
13822TIP3    H262882   2.379   2.301  10.353  0.0253 -1.2804 -0.2225
13823TIP3   OH262883   2.532   0.580  11.904  0.2014  0.0413 -0.3089
13823TIP3    H162884   2.456   0.523  11.903 -0.9973  1.3241  2.7318
13823TIP3    H262885   2.503   0.657  11.953  3.3017  0.7919  0.5900
13824TIP3   OH262886   5.422   3.490  16.252  0.1307  0.2401 -0.6712
13824TIP3    H162887   5.338   3.445  16.246  0.8765 -1.1040 -1.4947
13824TIP3    H262888   5.435   3.529  16.166  0.6514 -0.1504 -0.7768
13825TIP3   OH262889   3.585   1.100   4.652  0.4466  0.1166  0.5914
13825TIP3    H162890   3.531   1.075   4.578 -0.6018  2.3749  0.5193
13825TIP3    H262891   3.673   1.069   4.629 -0.1255 -0.4400 -0.9457
13826TIP3   OH262892   0.486   0.017  13.206  0.1505 -0.2281  0.8710
13826TIP3    H162893   0.471   0.064  13.288  0.5837  0.6432  0.4610
13826TIP3    H262894   0.403   0.026  13.158  0.9597  2.2588 -0.2398
13827TIP3   OH262895   0.982   3.274   3.007 -0.2230 -0.6516  0.2560
13827TIP3    H162896   1.024   3.336   3.067  2.1964 -0.6571 -1.2841
13827TIP3    H262897   0.889   3.293   3.015  0.3523  2.9513  0.1438
13828TIP3   OH262898   6.397   2.137   4.738 -0.2527  0.0150 -0.3315
13828TIP3    H162899   6.375   2.144   4.830  0.7544  0.2802 -0.0977
13828TIP3    H262900   6.342   2.202   4.695  0.5359  1.1381  0.3211
13829TIP3   OH262901   5.273   2.632   4.380  0.7711  0.7606 -0.2832
13829TIP3    H162902   5.205   2.685   4.339 -0.3447 -0.7920 -0.5271
13829TIP3    H262903   5.285   2.558   4.321  0.5584 -0.5015  1.1915
13830TIP3   OH262904   4.033   4.937  12.215 -0.3753  0.0370 -0.0838
13830TIP3    H162905   4.116   4.970  12.182 -0.6611  0.8038 -0.0632
13830TIP3    H262906   3.996   4.887  12.143  0.4475 -0.9458  0.1642
13831TIP3   OH262907   1.683   3.325  14.438  0.3166 -0.0487  0.0506
13831TIP3    H162908   1.649   3.361  14.520 -1.4069 -0.2882 -0.5126
13831TIP3    H262909   1.748   3.261  14.465 -1.3158 -1.2580  1.3219
13832TIP3   OH262910   4.950   4.236  12.865 -0.0225  0.1588  0.2328
13832TIP3    H162911   5.019   4.288  12.824 -0.1879  1.0654  1.0556
13832TIP3    H262912   4.969   4.146  12.840  1.1299  0.4545 -0.0138
13833TIP3   OH262913   0.183   0.569  15.186  0.3256  0.1088  0.7084
13833TIP3    H162914   0.103   0.622  15.183 -0.0179 -0.4092  0.6046
13833TIP3    H262915   0.234   0.607  15.258 -0.6422 -0.4253  1.7021
13834TIP3   OH262916   4.903   0.869   1.092  0.1046  0.7419  0.7241
13834TIP3    H162917   4.912   0.933   1.021  0.6689  0.1126  0.2241
13834TIP3    H262918   4.928   0.917   1.171  0.2202  1.2248  0.3952
13835TIP3   OH262919   5.886   4.841   3.931 -0.2018 -0.0323 -0.2713
13835TIP3    H162920   5.810   4.800   3.972  0.0226 -0.4534 -0.2639
13835TIP3    H262921   5.850   4.903   3.868 -0.5882 -1.5158 -1.5829
13836TIP3   OH262922   0.573   2.107   0.994  0.1054  0.1327  0.1374
13836TIP3    H162923   0.655   2.071   1.029  0.9120  1.1863 -0.5940
13836TIP3    H262924   0.561   2.189   1.041 -0.3067  0.1891 -0.0672
13837TIP3   OH262925   1.218   5.136   6.129  0.7522 -0.4429  0.0193
13837TIP3    H162926   1.289   5.072   6.129  0.5786 -0.6364 -0.3301
13837TIP3    H262927   1.158   5.105   6.061  1.1178  0.5945 -0.7939
13838TIP3   OH262928   5.987   4.799   6.023 -0.0741 -0.4376  0.2586
13838TIP3    H162929   6.041   4.729   5.986 -1.1892 -0.6533 -1.0463
13838TIP3    H262930   5.897   4.773   6.002 -0.4769  1.7294 -0.9004
13839TIP3   OH262931   0.659   3.349   1.196 -0.1750  0.4872 -0.2137
13839TIP3    H162932   0.575   3.365   1.238  0.5278 -0.7304  1.8256
13839TIP3    H262933   0.709   3.429   1.212  0.0126  0.1150  1.1549
13840TIP3   OH262934   6.226   3.605   4.669  0.7378  0.6304  0.0406
13840TIP3    H162935   6.190   3.688   4.639  0.4170  0.5355  0.1652
13840TIP3    H262936   6.320   3.611   4.649  0.5335  0.5761 -0.9802
13841TIP3   OH262937   3.618   1.588   5.732  0.1349  0.3172  0.0680
13841TIP3    H162938   3.701   1.631   5.756  0.3412  0.0609 -0.1851
13841TIP3    H262939   3.577   1.567   5.816 -0.2171  1.4817  0.2100
13842TIP3   OH262940   4.921   6.195   4.350 -0.1883 -0.3773  0.2184
13842TIP3    H162941   4.945   6.222   4.438  1.4804 -1.8455  0.2620
13842TIP3    H262942   4.909   6.277   4.302  0.0985  0.4291  1.4854
13843TIP3   OH262943   6.609   2.902   4.597 -0.0748  0.0425 -0.4534
13843TIP3    H162944   6.537   2.842   4.617 -0.1062  0.8821  2.4282
13843TIP3    H262945   6.688   2.852   4.618  0.2371 -0.6540 -2.9905
13844TIP3   OH262946   5.185   3.290   5.673 -0.2446  0.2782  0.0177
13844TIP3    H162947   5.097   3.268   5.701 -0.3679  0.2962 -0.3504
13844TIP3    H262948   5.207   3.224   5.607 -0.8662  1.5773 -1.5739
13845TIP3   OH262949   1.982   2.216   5.940 -0.3471  0.0375 -0.1133
13845TIP3    H162950   1.949   2.271   6.011  0.2935  0.7711 -0.3753
13845TIP3    H262951   1.992   2.129   5.979 -0.7634  0.2471  0.4696
13846TIP3   OH262952   5.613   1.406  11.952 -0.2241 -0.3374 -0.3378
13846TIP3    H162953   5.632   1.500  11.960  0.1002 -0.3915 -0.4487
13846TIP3    H262954   5.538   1.392  12.009 -0.8920  0.1808 -1.0657
13847TIP3   OH262955   3.863   0.198  16.703  0.0566 -0.2388  0.0174
13847TIP3    H162956   3.907   0.223  16.622 -1.1491 -0.3117 -0.6835
13847TIP3    H262957   3.865   0.102  16.703 -3.3490 -0.4507 -1.9660
13848TIP3   OH262958   4.782   4.849  14.745 -0.4484 -0.8766  0.0786
13848TIP3    H162959   4.743   4.919  14.691 -1.2391 -0.7626  0.7736
13848TIP3    H262960   4.836   4.896  14.808  1.0007 -1.0460 -0.9984
13849TIP3   OH262961   0.083   1.295   2.014  0.0024 -0.4795  0.2444
13849TIP3    H162962   0.119   1.210   1.987 -0.9781 -0.7094 -0.4071
13849TIP3    H262963   0.066   1.285   2.108  1.2727 -0.4833  0.4887
13850TIP3   OH262964   0.649   1.581  16.964  0.2743  0.0689 -0.2208
13850TIP3    H162965   0.689   1.600  16.880  1.6959 -0.9043  0.2114
13850TIP3    H262966   0.722   1.566  17.024 -0.7102 -0.0991  1.0007
13851TIP3   OH262967   6.482   2.660   4.634  0.3237 -0.6090  0.0878
13851TIP3    H162968   6.515   2.589   4.579 -0.1027 -0.2812 -0.5997
13851TIP3    H262969   6.388   2.661   4.618  0.2701 -0.1584  0.4164
13852TIP3   OH262970   4.508   1.824  16.869  0.1139  0.3553  0.0567
13852TIP3    H162971   4.571   1.845  16.799 -0.9615  0.3619 -0.9414
13852TIP3    H262972   4.563   1.802  16.944  1.3192  1.8129 -0.3365
13853TIP3   OH262973   1.584   3.956  17.283  0.3911 -0.2599  0.0228
13853TIP3    H162974   1.504   3.999  17.311  0.0213 -1.5558  1.0431
13853TIP3    H262975   1.652   3.990  17.341  0.3623 -0.0697 -0.0518
13854TIP3   OH262976   5.123   4.818  15.101 -0.2821  0.2096  0.2579
13854TIP3    H162977   5.182   4.748  15.074  1.8686  1.7390  0.7428
13854TIP3    H262978   5.082   4.785  15.181 -0.1128 -0.8906 -0.0924
13855TIP3   OH262979   4.846   4.567   0.469 -0.1527  0.5045  0.4832
13855TIP3    H162980   4.757   4.562   0.503 -0.9867 -1.4497 -1.7109
13855TIP3    H262981   4.901   4.535   0.540 -1.5746 -1.5065  0.7460
13856TIP3   OH262982   4.502   4.928  13.631  0.0052 -0.0023  0.2187
13856TIP3    H162983   4.498   4.917  13.536  0.1088 -0.3378  0.2517
13856TIP3    H262984   4.439   4.866  13.665 -1.8709  1.8207  0.2732
13857TIP3   OH262985   3.530   5.113   4.781  0.0990  0.1402 -0.0841
13857TIP3    H162986   3.616   5.155   4.768 -1.2424  4.0152  2.0577
13857TIP3    H262987   3.494   5.105   4.692  0.8448  2.8810 -0.7224
13858TIP3   OH262988   2.054   5.959  14.544  0.0381 -0.5761 -0.1498
13858TIP3    H162989   2.130   6.014  14.564 -1.4795  0.7235  2.5997
13858TIP3    H262990   1.997   6.016  14.491  0.0465 -0.8094 -0.4113
13859TIP3   OH262991   3.611   1.008   3.579  0.1129 -0.5050 -0.6245
13859TIP3    H162992   3.699   1.044   3.591  0.6906 -1.9547 -0.2265
13859TIP3    H262993   3.576   1.054   3.503  0.4342  1.4879  0.3760
13860TIP3   OH262994   0.087   6.621  12.774 -0.0183 -0.0098 -0.6150
13860TIP3    H162995   0.065   6.706  12.812  0.0262 -0.9000  1.5407
13860TIP3    H262996   0.112   6.567  12.849  1.3707 -1.5184 -2.0857
13861TIP3   OH262997   1.687   2.287  11.595 -0.0528  0.3161 -0.6130
13861TIP3    H162998   1.629   2.248  11.530  0.5908  0.1992 -1.1132
13861TIP3    H262999   1.653   2.376  11.607 -2.6539 -0.8089  1.8276
13862TIP3   OH263000   0.915   0.934  16.997 -0.2526 -0.2358  0.3542
13862TIP3    H163001   1.007   0.959  17.002 -0.7704  1.8050  0.8038
13862TIP3    H263002   0.876   0.972  17.076 -1.4395 -1.2904  0.3069
13863TIP3   OH263003   5.957   1.258   5.344  0.7120  0.2757  0.4911
13863TIP3    H163004   5.980   1.279   5.254 -0.5305  2.2612  0.5806
13863TIP3    H263005   5.931   1.166   5.341  0.2072  0.4407 -1.3046
13864TIP3   OH263006   5.835   5.995  15.393 -0.2035 -0.5498  0.1108
13864TIP3    H163007   5.879   5.977  15.311 -2.1407  1.2326 -1.4298
13864TIP3    H263008   5.760   5.935  15.394 -0.6570  0.0060  0.1377
13865TIP3   OH263009   0.905   4.224  13.907 -0.2837 -0.2133 -0.4314
13865TIP3    H163010   0.954   4.182  13.836 -1.3525 -2.2774 -0.0274
13865TIP3    H263011   0.963   4.220  13.983 -0.0690 -0.2398 -0.5984
13866TIP3   OH263012   0.585   4.089   3.813 -0.3808 -0.1234  0.2627
13866TIP3    H163013   0.611   4.070   3.723 -1.8039  0.4542 -0.2942
13866TIP3    H263014   0.593   4.005   3.858 -1.7774 -0.9582 -0.9582
13867TIP3   OH263015   1.577   6.437   5.693  0.3540 -0.1556 -0.4288
13867TIP3    H163016   1.532   6.474   5.617 -0.8096  0.4710  0.5357
13867TIP3    H263017   1.513   6.377   5.732  0.3666  0.6672  0.8996
13868TIP3   OH263018   6.214   2.461   3.162 -0.5639 -0.6956  0.0788
13868TIP3    H163019   6.295   2.447   3.210 -0.8572 -4.1161 -0.1217
13868TIP3    H263020   6.227   2.543   3.115  2.0794 -0.2839  1.3512
13869TIP3   OH263021   6.005   1.457   1.020  0.2983  0.0834  0.7933
13869TIP3    H163022   5.988   1.402   1.097  1.1984  2.1648  2.6036
13869TIP3    H263023   6.025   1.544   1.057  1.0412  1.1046 -1.7986
13870TIP3   OH263024   1.759   2.080   0.851 -0.7007 -0.2790 -0.6851
13870TIP3    H163025   1.732   1.990   0.871 -1.4527  0.1628  0.4376
13870TIP3    H263026   1.750   2.126   0.935 -1.0064  0.9985 -1.4029
13871TIP3   OH263027   4.497   0.103   6.377 -0.1245 -0.0572 -0.1106
13871TIP3    H163028   4.432   0.076   6.313  0.8574 -0.8638 -0.7997
13871TIP3    H263029   4.456   0.176   6.423 -1.3811 -0.3404 -0.7301
13872TIP3   OH263030   0.615   3.786   6.253  0.1887  0.1223 -0.3514
13872TIP3    H163031   0.706   3.816   6.246  0.2917 -0.2306 -0.5516
13872TIP3    H263032   0.621   3.702   6.300  0.2832 -1.4260 -2.9589
13873TIP3   OH263033   4.278   5.468   5.946 -0.0327 -0.0290  0.2156
13873TIP3    H163034   4.232   5.385   5.945 -2.7118  1.3518  0.1002
13873TIP3    H263035   4.232   5.522   5.882  2.1445  1.3228 -0.3105
13874TIP3   OH263036   0.970   2.764  17.128 -0.1285 -0.0287  0.2458
13874TIP3    H163037   1.058   2.735  17.105  0.7589  3.4539 -1.2805
13874TIP3    H263038   0.974   2.777  17.223  1.6800  1.9164 -0.0376
13875TIP3   OH263039   6.221   0.375  11.318  0.1488  0.8018 -0.4108
13875TIP3    H163040   6.300   0.350  11.367 -0.1144 -0.3417 -0.5499
13875TIP3    H263041   6.244   0.361  11.226  0.4066  2.2949 -0.6129
13876TIP3   OH263042   5.448   2.553  14.641 -0.0104 -0.6051 -0.0420
13876TIP3    H163043   5.472   2.536  14.732 -1.7319 -0.7237  0.4279
13876TIP3    H263044   5.432   2.647  14.638  1.2333 -0.3859 -0.5539
13877TIP3   OH263045   5.847   2.249   1.896  0.1074 -0.2876  0.1823
13877TIP3    H163046   5.875   2.281   1.982  0.4717 -2.1551  0.8013
13877TIP3    H263047   5.751   2.247   1.901  0.1319 -0.5326  0.6005
13878TIP3   OH263048   5.167   5.848  14.678 -0.5367 -0.2166  0.4443
13878TIP3    H163049   5.194   5.805  14.597 -0.4332  1.7948 -0.6407
13878TIP3    H263050   5.144   5.775  14.736 -1.1640 -1.7245 -1.5484
13879TIP3   OH263051   4.064   5.745  17.188  0.2624  0.1649  0.3440
13879TIP3    H163052   4.058   5.707  17.100  1.6740 -1.2467  0.8102
13879TIP3    H263053   4.041   5.673  17.247 -1.7756  1.3874  1.1582
13880TIP3   OH263054   3.201   1.297  15.402 -0.0305  0.3554 -0.4103
13880TIP3    H163055   3.275   1.322  15.346  0.2146 -1.5838 -1.0246
13880TIP3    H263056   3.164   1.220  15.359 -2.0531  0.9132  0.2219
13881TIP3   OH263057   5.805   3.509  14.753  0.0961 -0.2769  0.4204
13881TIP3    H163058   5.712   3.487  14.755  0.1571 -0.5332  0.4711
13881TIP3    H263059   5.846   3.442  14.808  0.2803 -0.0205  0.5988
13882TIP3   OH263060   1.301   1.290  15.057  0.4525 -1.1565 -0.5776
13882TIP3    H163061   1.302   1.204  15.014 -1.9820 -2.0842  1.0283
13882TIP3    H263062   1.311   1.270  15.150  1.0219  0.4391 -0.2669
13883TIP3   OH263063   0.638   5.123  13.269  0.0359 -0.0266 -0.2934
13883TIP3    H163064   0.646   5.098  13.361 -0.9866 -1.5920 -0.5963
13883TIP3    H263065   0.561   5.180  13.266 -0.5921 -0.8644 -0.3299
13884TIP3   OH263066   3.933   0.048   1.510 -0.0021 -0.7336 -0.2799
13884TIP3    H163067   4.004   0.085   1.562  0.0983 -0.1631 -0.8122
13884TIP3    H263068   3.853   0.066   1.560 -0.0602  0.9784 -0.9050
13885TIP3   OH263069   5.154   2.645   4.636  0.3459 -0.4875 -0.1265
13885TIP3    H163070   5.074   2.674   4.591 -0.3091 -2.3204 -0.2067
13885TIP3    H263071   5.225   2.674   4.579 -0.1329  2.0621  0.4139
13886TIP3   OH263072   2.695   0.891   6.469 -0.2081  0.1772 -0.1824
13886TIP3    H163073   2.695   0.967   6.528  2.2058 -0.0145  0.1669
13886TIP3    H263074   2.674   0.817   6.526  0.0837  0.2526  0.0262
13887TIP3   OH263075   3.507   4.437  16.287  0.2346 -0.0553  0.2213
13887TIP3    H163076   3.477   4.499  16.221 -0.2240  1.0755  1.4606
13887TIP3    H263077   3.516   4.488  16.367  2.0639 -1.1049  0.7551
13888TIP3   OH263078   3.765   4.198   0.033 -0.8215  0.1589 -0.0570
13888TIP3    H163079   3.736   4.236   0.115  0.7111  0.5388  0.3445
13888TIP3    H263080   3.813   4.268  -0.011 -0.9517 -0.2710 -0.9156
13889TIP3   OH263081   0.931   6.226   2.173  0.4726 -0.1857  0.4548
13889TIP3    H163082   0.875   6.293   2.133 -0.6541 -1.9116 -1.0519
13889TIP3    H263083   0.870   6.160   2.206  1.5553 -1.1658  0.5704
13890TIP3   OH263084   1.371   1.556  14.127  0.0161 -0.6715 -0.3647
13890TIP3    H163085   1.359   1.600  14.210 -3.8178  0.7664 -1.4680
13890TIP3    H263086   1.464   1.564  14.108  1.0445 -1.1355  3.7102
13891TIP3   OH263087   0.114   0.560  16.789  0.4511 -0.0142  0.0275
13891TIP3    H163088   0.069   0.476  16.792 -0.4170  0.4617  1.0703
13891TIP3    H263089   0.110   0.587  16.697 -1.2487 -0.0739  0.0557
13892TIP3   OH263090   0.122   5.158  17.236 -0.5063  0.0877  0.6133
13892TIP3    H163091   0.173   5.216  17.292 -0.6154  0.2405  0.5573
13892TIP3    H263092   0.126   5.199  17.149  1.0679 -1.0357  0.1193
13893TIP3   OH263093   2.512   6.190   2.582  0.1605  0.1148  0.3579
13893TIP3    H163094   2.569   6.128   2.627  0.7452  0.3572 -0.0228
13893TIP3    H263095   2.499   6.151   2.495  1.1220  0.8566 -0.1341
13894TIP3   OH263096   1.858   3.556  11.725  0.2431 -0.3726 -0.6983
13894TIP3    H163097   1.879   3.525  11.637 -0.3720  1.8180 -1.6884
13894TIP3    H263098   1.812   3.638  11.711 -2.2771 -1.2529  1.6258
13895TIP3   OH263099   3.431   3.841   5.214 -0.4625  0.2474  0.2048
13895TIP3    H163100   3.501   3.867   5.273 -0.7769  1.2141  0.1690
13895TIP3    H263101   3.466   3.858   5.126  0.2022 -1.6812  0.0575
13896TIP3   OH263102   4.024   2.214   3.950  0.2962  0.0551 -0.1489
13896TIP3    H163103   3.978   2.288   3.989  0.0774  0.1746 -0.6201
13896TIP3    H263104   4.045   2.243   3.861 -0.5244 -0.7293 -0.6227
13897TIP3   OH263105   6.384   6.728   5.596 -1.0236 -0.3363 -0.3839
13897TIP3    H163106   6.382   6.669   5.521 -1.1220  0.4528 -1.0264
13897TIP3    H263107   6.459   6.785   5.579  0.0313 -1.2554  1.0130
13898TIP3   OH263108   5.396   6.301   2.925 -0.5250 -0.6906 -0.7392
13898TIP3    H163109   5.445   6.377   2.958 -0.1064 -0.1639 -2.4460
13898TIP3    H263110   5.443   6.225   2.960 -0.1083 -0.1774 -0.1480
13899TIP3   OH263111   3.909   2.271  11.482  0.3334 -0.0621  0.1268
13899TIP3    H163112   4.000   2.297  11.467 -0.6815  3.0219 -1.4053
13899TIP3    H263113   3.888   2.308  11.568  0.4925 -0.7907  0.4889
13900TIP3   OH263114   4.232   4.098   5.191  0.9241 -0.6381  0.1728
13900TIP3    H163115   4.251   4.099   5.098 -2.4921 -0.9696 -0.6710
13900TIP3    H263116   4.155   4.155   5.200  0.8371 -1.0359  2.6994
13901TIP3   OH263117   5.845   0.573   0.904 -0.1334  0.1426 -0.1992
13901TIP3    H163118   5.804   0.520   0.837  2.9827 -0.4115 -1.8413
13901TIP3    H263119   5.840   0.520   0.984 -2.0980 -0.0661 -0.4315
13902TIP3   OH263120   0.845   1.053   0.217  0.3509  0.2326  0.1558
13902TIP3    H163121   0.862   1.142   0.188  2.2634  0.6767  2.3024
13902TIP3    H263122   0.907   0.999   0.168  0.5659  0.3749  0.2682
13903TIP3   OH263123   4.076   5.197  16.437 -0.1158 -0.5204  0.4622
13903TIP3    H163124   4.152   5.253  16.458  1.0197 -0.8884 -2.2443
13903TIP3    H263125   4.114   5.118  16.401 -1.7972 -2.0955  1.9435
13904TIP3   OH263126   5.083   5.540   4.609 -0.1862 -0.2797 -0.1899
13904TIP3    H163127   5.155   5.506   4.663  0.4232  0.7651 -0.3146
13904TIP3    H263128   5.117   5.536   4.519  0.0299  0.9179 -0.1792
13905TIP3   OH263129   2.495   6.099  11.304 -0.6688 -0.5141 -0.5121
13905TIP3    H163130   2.479   6.089  11.211 -1.0423  1.5278 -0.7132
13905TIP3    H263131   2.422   6.054  11.346  0.0968 -2.4485 -1.1211
13906TIP3   OH263132   5.105   1.580  15.722 -0.3516  0.0884 -0.3800
13906TIP3    H163133   5.145   1.661  15.693 -1.6084  0.5111 -0.9849
13906TIP3    H263134   5.034   1.564  15.660  0.4963 -2.0286 -0.9025
13907TIP3   OH263135   0.044   0.009  14.014  0.4642  0.0133 -0.0813
13907TIP3    H163136   0.001  -0.077  14.013  1.3068 -0.4124 -0.0555
13907TIP3    H263137  -0.004   0.059  13.948 -0.3648 -0.3036  0.2600
13908TIP3   OH263138   3.901   5.343   2.166  0.1655  0.3061  0.0594
13908TIP3    H163139   3.927   5.262   2.123 -0.7028  0.5439 -0.9684
13908TIP3    H263140   3.903   5.409   2.097  0.4512  1.0869  0.7878
13909TIP3   OH263141   2.224   0.567  15.444  0.0003 -0.4394  0.3484
13909TIP3    H163142   2.218   0.659  15.417 -3.3779 -0.5266  0.2996
13909TIP3    H263143   2.255   0.570  15.535  2.2510  0.5206 -0.4016
13910TIP3   OH263144   3.690   1.276  15.312  1.0535 -0.1066 -0.4357
13910TIP3    H163145   3.646   1.360  15.297 -0.0375 -0.8194 -1.3825
13910TIP3    H263146   3.653   1.217  15.246  1.3852 -1.4855  0.5662
13911TIP3   OH263147   5.078   5.263  13.901  0.3945  0.2307 -0.3248
13911TIP3    H163148   5.063   5.170  13.882  0.7605  0.2025 -0.4781
13911TIP3    H263149   5.125   5.296  13.824  1.4665  0.2302  0.3087
13912TIP3   OH263150   4.558   3.375  12.615  0.1522  0.5882  0.4582
13912TIP3    H163151   4.499   3.302  12.632  0.2300  0.6702  1.1225
13912TIP3    H263152   4.504   3.453  12.631  0.1956  0.6755  0.1925
13913TIP3   OH263153   6.052   5.325   6.169  0.8486 -0.3855  0.2457
13913TIP3    H163154   6.007   5.407   6.191  1.7691  0.2426 -0.1603
13913TIP3    H263155   5.982   5.266   6.142  0.2381  0.5014 -0.1605
13914TIP3   OH263156   6.333   5.550  14.782  0.1913  0.1164 -0.5430
13914TIP3    H163157   6.355   5.462  14.753 -0.1299 -0.2614  0.3412
13914TIP3    H263158   6.309   5.541  14.874  0.6662  1.2106 -0.2860
13915TIP3   OH263159   1.539   1.973   1.745  0.0059  0.3875  0.1390
13915TIP3    H163160   1.628   1.970   1.780  0.1505 -1.6930 -0.2795
13915TIP3    H263161   1.547   2.021   1.662  1.3667 -2.1872 -1.3540
13916TIP3   OH263162   4.148   3.123   0.289 -0.4713  0.2527 -1.2362
13916TIP3    H163163   4.177   3.058   0.226 -1.3718 -0.2143 -1.1907
13916TIP3    H263164   4.178   3.207   0.254  2.3307 -0.2859 -0.3786
13917TIP3   OH263165   5.281   2.703   3.812  0.2890 -0.2700  0.2456
13917TIP3    H163166   5.312   2.792   3.798 -0.5942 -0.2522 -2.0162
13917TIP3    H263167   5.188   2.706   3.788 -0.4262 -1.2762  2.5959
13918TIP3   OH263168   6.688   5.930  15.078  0.1436 -0.4622  0.0201
13918TIP3    H163169   6.619   5.908  15.017 -0.1594  1.5080 -0.4079
13918TIP3    H263170   6.650   5.998  15.134  1.1632 -0.5959  0.9095
13919TIP3   OH263171   2.482   1.696  11.744  0.4064 -0.5027  0.8686
13919TIP3    H163172   2.451   1.669  11.830  2.3676  1.8023  2.4623
13919TIP3    H263173   2.490   1.792  11.751  1.2533 -0.3224 -1.6503
13920TIP3   OH263174   5.601   3.570   4.338 -0.0444 -0.2637 -0.5134
13920TIP3    H163175   5.678   3.626   4.345 -0.3460  0.1019 -0.0161
13920TIP3    H263176   5.529   3.623   4.373 -0.1813 -1.2693  0.8294
13921TIP3   OH263177   1.966   5.787   2.084 -0.5169 -0.6416 -0.1268
13921TIP3    H163178   2.005   5.709   2.044  1.0008 -0.2901  0.5920
13921TIP3    H263179   1.983   5.777   2.178 -0.9777  0.1810  0.0554
13922TIP3   OH263180   4.613   5.707   3.445 -0.0494  0.5819  0.0436
13922TIP3    H163181   4.675   5.777   3.425  1.6588 -0.9394 -0.2476
13922TIP3    H263182   4.568   5.690   3.363  0.7796  0.1916 -0.3405
13923TIP3   OH263183   5.473   0.663  17.061 -0.2894  0.4812 -0.1913
13923TIP3    H163184   5.381   0.639  17.066 -0.5220  0.8401 -1.9588
13923TIP3    H263185   5.517   0.584  17.029 -0.0411  0.4249  0.2828
13924TIP3   OH263186   1.714   4.894  14.451 -0.5154  0.4054 -0.5841
13924TIP3    H163187   1.673   4.970  14.493 -1.2022  0.6048 -1.5720
13924TIP3    H263188   1.807   4.918  14.444 -0.3757  0.3503  0.8037
13925TIP3   OH263189   6.244   6.489  11.461 -0.2260  0.1516  0.2422
13925TIP3    H163190   6.243   6.574  11.503  1.5044 -0.2488  1.2011
13925TIP3    H263191   6.215   6.506  11.371  0.0531  1.7389  0.4266
13926TIP3   OH263192   2.668   1.948   4.123 -0.0369 -0.2796  0.4871
13926TIP3    H163193   2.741   1.980   4.071 -0.4533  3.3495  1.7994
13926TIP3    H263194   2.621   1.888   4.065  1.5348  0.7016 -1.9462
13927TIP3   OH263195   2.876   0.012   4.653  0.4865  0.2813 -0.2093
13927TIP3    H163196   2.826  -0.038   4.717  2.4559 -0.1949  1.0540
13927TIP3    H263197   2.909   0.087   4.702  0.6488  0.8235 -1.1221
13928TIP3   OH263198   4.032   6.136   5.517 -0.2273 -0.1216  0.1799
13928TIP3    H163199   3.958   6.107   5.570  0.0659 -0.9028  0.1850
13928TIP3    H263200   4.093   6.062   5.519  0.9262  0.7965  0.8517
13929TIP3   OH263201   6.736   2.956  16.164  0.0393 -0.4658  0.1236
13929TIP3    H163202   6.713   2.956  16.257 -3.9161 -2.8763 -0.6004
13929TIP3    H263203   6.689   3.031  16.128  1.1541  0.1602 -0.0688
13930TIP3   OH263204   6.577   5.994   0.419  0.0057 -0.3499 -0.2578
13930TIP3    H163205   6.615   5.995   0.507 -0.5458 -1.7089  0.0177
13930TIP3    H263206   6.519   6.070   0.417 -2.4002 -2.0266  1.6972
13931TIP3   OH263207   2.245   0.265  11.353 -0.0305  0.6773 -0.1964
13931TIP3    H163208   2.201   0.190  11.393  0.7711  0.6588  0.6931
13931TIP3    H263209   2.239   0.250  11.259 -0.4477 -0.1678 -0.0405
13932TIP3   OH263210   1.227   4.292  17.187 -0.7791  0.3159  0.4555
13932TIP3    H163211   1.287   4.260  17.120 -3.4041  0.4568 -2.2063
13932TIP3    H263212   1.200   4.213  17.234  2.0541  0.3663  2.3453
13933TIP3   OH263213   5.364   6.440  15.673  0.1203 -0.0833 -1.0177
13933TIP3    H163214   5.366   6.480  15.586  0.7318 -0.5440 -1.2214
13933TIP3    H263215   5.325   6.354  15.659 -0.0235 -0.0567 -0.7890
13934TIP3   OH263216   2.430   4.724  12.963 -0.7530  0.0950 -0.2896
13934TIP3    H163217   2.446   4.718  13.057  0.2700 -2.4550 -0.5363
13934TIP3    H263218   2.402   4.815  12.948 -2.7147  0.1104  2.6981
13935TIP3   OH263219   4.585   3.542  15.690  0.0881 -0.0915  0.0636
13935TIP3    H163220   4.664   3.540  15.744  0.2145 -0.6952 -0.1368
13935TIP3    H263221   4.570   3.635  15.672  1.2124 -0.0263 -0.5758
13936TIP3   OH263222   6.719   2.026  15.191 -0.7076  0.5195 -0.2500
13936TIP3    H163223   6.721   1.987  15.104 -3.7570  1.5803 -0.9349
13936TIP3    H263224   6.735   2.119  15.176 -1.4334  0.7386  0.2654
13937TIP3   OH263225   3.714   4.788  12.527 -0.2299 -0.0986 -0.4198
13937TIP3    H163226   3.634   4.753  12.566  1.0495 -1.8070  0.8095
13937TIP3    H263227   3.684   4.829  12.446 -2.3807 -0.4081  0.1325
13938TIP3   OH263228   4.672   2.164  15.479  0.4690 -0.5454 -0.0419
13938TIP3    H163229   4.759   2.187  15.446 -0.9199  2.3924 -2.1334
13938TIP3    H263230   4.668   2.202  15.567  0.7730  0.9156 -0.6265
13939TIP3   OH263231   3.394   1.721   3.072 -0.3520 -0.4869  0.0584
13939TIP3    H163232   3.321   1.729   3.133 -1.6322 -1.0638 -1.3122
13939TIP3    H263233   3.366   1.769   2.994  0.5899 -0.9808 -0.6160
13940TIP3   OH263234   3.661   1.798  14.829 -0.0018 -0.0004 -0.1375
13940TIP3    H163235   3.666   1.727  14.893  2.0573  1.8476  1.9592
13940TIP3    H263236   3.751   1.805  14.795 -0.6706  0.2262 -1.9603
13941TIP3   OH263237   6.564   3.021  15.692 -0.5213  0.0486 -0.2808
13941TIP3    H163238   6.628   2.960  15.728 -2.1267 -1.0085  0.8924
13941TIP3    H263239   6.569   3.008  15.597 -0.9094 -2.0340 -0.0633
13942TIP3   OH263240   2.314   2.162   2.014  0.5050 -0.2476  0.1114
13942TIP3    H163241   2.337   2.253   1.998 -0.2280  0.1857  1.4734
13942TIP3    H263242   2.232   2.149   1.967 -0.3090  0.3084  1.3361
13943TIP3   OH263243   1.542   3.200   1.967  0.1158 -0.5636 -0.5214
13943TIP3    H163244   1.542   3.296   1.960 -2.1663 -0.4888 -0.2250
13943TIP3    H263245   1.599   3.182   2.042  0.0109  0.6189 -0.1341
13944TIP3   OH263246   2.307   4.166  14.450  0.0177 -0.5435  0.5851
13944TIP3    H163247   2.273   4.107  14.382 -0.6583  0.3980  0.0774
13944TIP3    H263248   2.343   4.108  14.517 -0.0559 -1.5131 -0.1916
13945TIP3   OH263249   0.382   5.150  11.618  0.3017  0.0001 -0.3666
13945TIP3    H163250   0.413   5.236  11.646  0.0734  0.6889 -2.0824
13945TIP3    H263251   0.431   5.132  11.538 -1.6755 -0.1486 -1.5987
13946TIP3   OH263252   5.732   5.724  13.256  0.3491  0.6051  0.3689
13946TIP3    H163253   5.716   5.743  13.164  0.1434 -1.0485  0.0335
13946TIP3    H263254   5.666   5.659  13.280  1.8671 -0.7986  0.9895
13947TIP3   OH263255   4.931   5.464  14.025 -0.1192 -0.2000 -0.5478
13947TIP3    H163256   4.882   5.411  14.087 -1.7876 -0.5965 -2.1217
13947TIP3    H263257   4.987   5.401  13.979  1.2015  0.1097  0.5528
13948TIP3   OH263258   4.540   3.637   2.356 -0.0314 -0.5002  0.2603
13948TIP3    H163259   4.623   3.607   2.318 -0.1029 -0.1692 -0.1541
13948TIP3    H263260   4.482   3.561   2.348  0.1685 -0.6669  0.3664
13949TIP3   OH263261   0.375   2.367  15.698 -0.1701  0.0987 -0.2544
13949TIP3    H163262   0.393   2.459  15.676 -0.4995  0.1708 -0.2161
13949TIP3    H263263   0.407   2.318  15.623 -2.4375  0.4155 -1.5066
13950TIP3   OH263264   6.430   5.350   3.648  0.3076 -0.0521 -0.4057
13950TIP3    H163265   6.385   5.270   3.621  2.3694 -1.6034  0.4917
13950TIP3    H263266   6.372   5.421   3.620 -1.6201 -1.8402 -1.1893
13951TIP3   OH263267   4.104   5.109  12.674 -0.6548  0.2153  0.7102
13951TIP3    H163268   4.164   5.139  12.742  1.9554  2.5814 -2.3273
13951TIP3    H263269   4.151   5.038  12.630 -0.0151  1.8923 -1.5172
13952TIP3   OH263270   3.913   1.597   1.534 -0.4291  0.0062  0.2021
13952TIP3    H163271   3.916   1.679   1.485 -2.1535  0.5464  0.9092
13952TIP3    H263272   3.868   1.535   1.476 -1.1157  0.2136  0.5022
13953TIP3   OH263273   0.426   6.567  12.021 -0.4078 -0.3540  0.5112
13953TIP3    H163274   0.505   6.620  12.027 -1.1600  0.8444  0.1597
13953TIP3    H263275   0.364   6.622  11.974 -0.7062 -2.1575 -1.3779
13954TIP3   OH263276   1.683   2.597  13.249 -0.2864 -0.1177 -0.1771
13954TIP3    H163277   1.609   2.537  13.236 -0.7829  0.1864  1.0855
13954TIP3    H263278   1.646   2.669  13.301  0.9329 -0.0600  0.6542
13955TIP3   OH263279   5.751   0.217  16.923  0.1836 -0.1177 -0.3527
13955TIP3    H163280   5.792   0.208  16.837  1.3162  0.0734  0.1383
13955TIP3    H263281   5.804   0.162  16.981 -0.1814  0.2371  0.3353
13956TIP3   OH263282   1.554   6.753   3.822  0.2844  0.4891  0.4481
13956TIP3    H163283   1.512   6.769   3.907  0.8200 -1.1682  1.0694
13956TIP3    H263284   1.620   6.686   3.840  1.9232  1.6597 -0.8704
13957TIP3   OH263285   1.581   2.446  15.437 -0.6242  0.2233 -0.3917
13957TIP3    H163286   1.570   2.503  15.513 -2.2675 -0.2967 -0.2033
13957TIP3    H263287   1.661   2.397  15.456 -0.3888  0.8957  0.4577
13958TIP3   OH263288   0.867   5.136  13.891 -0.2940 -0.0540  0.8631
13958TIP3    H163289   0.875   5.046  13.858 -0.9056 -0.2155  1.1453
13958TIP3    H263290   0.815   5.128  13.971 -1.5599  0.7062  0.1593
13959TIP3   OH263291   1.632   3.710  10.586 -0.2041 -0.0706 -0.1693
13959TIP3    H163292   1.589   3.631  10.554  0.4085  0.6387 -3.0203
13959TIP3    H263293   1.723   3.700  10.558  0.5602  0.4676  1.8832
13960TIP3   OH263294   2.031   4.707  11.379 -0.3367 -0.0821 -0.5618
13960TIP3    H163295   1.969   4.760  11.428  1.3366  0.6554  0.8452
13960TIP3    H263296   2.043   4.629  11.433  0.4506  0.0811 -0.4970
13961TIP3   OH263297   6.035   2.889   5.321  0.1319  0.1216 -0.1772
13961TIP3    H163298   6.129   2.901   5.309  0.1472  0.3938  0.1909
13961TIP3    H263299   5.996   2.920   5.239  0.3737 -0.2437 -0.4372
13962TIP3   OH263300   2.034   3.816  14.160  0.0923  0.8421 -0.0150
13962TIP3    H163301   2.006   3.788  14.073  0.6437 -0.5937  0.2353
13962TIP3    H263302   1.962   3.789  14.217  0.0293  1.1797  0.0678
13963TIP3   OH263303   0.198   3.490  14.297 -0.3846  0.0137 -0.1978
13963TIP3    H163304   0.209   3.584  14.280 -0.9260  0.4121  1.5121
13963TIP3    H263305   0.106   3.473  14.275 -1.0644  0.5135  1.9821
13964TIP3   OH263306   1.549   2.177   0.273  0.5639 -0.4674 -0.4325
13964TIP3    H163307   1.462   2.196   0.237  0.0028 -0.8358  0.6925
13964TIP3    H263308   1.583   2.262   0.301 -0.7125 -0.6548  1.8825
13965TIP3   OH263309   5.299   4.085   2.966 -0.2665  0.2466  0.1690
13965TIP3    H163310   5.342   4.146   3.026 -2.8496  0.8741  1.5172
13965TIP3    H263311   5.216   4.065   3.008 -0.4699 -2.5081 -1.3095
13966TIP3   OH263312   2.656   3.501   2.292 -0.7239 -0.2940 -0.1312
13966TIP3    H163313   2.711   3.489   2.214 -1.5387 -0.2004 -0.7329
13966TIP3    H263314   2.585   3.557   2.262 -0.2594  0.9858  1.0684
13967TIP3   OH263315   4.720   0.875   0.058 -0.0405 -0.5426  0.4349
13967TIP3    H163316   4.631   0.911   0.067 -0.5497 -1.1342 -1.6164
13967TIP3    H263317   4.744   0.848   0.146 -2.2920 -1.2487  0.8926
13968TIP3   OH263318   2.340   1.558   4.268  0.0981  0.3085 -0.0897
13968TIP3    H163319   2.318   1.470   4.298 -0.3212  0.5954  0.4477
13968TIP3    H263320   2.311   1.559   4.177  1.0126 -0.4276 -0.4171
13969TIP3   OH263321   5.228   0.423  14.078 -0.1262 -0.5827 -0.6371
13969TIP3    H163322   5.314   0.420  14.121 -0.2411  2.4815  0.0273
13969TIP3    H263323   5.214   0.333  14.046  2.5879 -1.5571  0.5991
13970TIP3   OH263324   1.998   0.140  16.424  0.1770  0.2907 -0.5594
13970TIP3    H163325   1.925   0.090  16.460  1.1151 -1.0226 -0.4009
13970TIP3    H263326   2.049   0.076  16.374  0.5318  1.4427 -1.7493
13971TIP3   OH263327   3.253   3.538   1.799  0.8543 -0.4119 -0.6422
13971TIP3    H163328   3.323   3.588   1.757  0.6584 -0.1799 -0.6933
13971TIP3    H263329   3.281   3.447   1.791  0.8331 -0.3692 -1.2555
13972TIP3   OH263330   1.474   6.175   1.393 -0.2494  0.0046 -0.1185
13972TIP3    H163331   1.552   6.158   1.445  0.6015  0.7370 -1.1154
13972TIP3    H263332   1.495   6.253   1.342 -2.0138  0.8518  0.3484
13973TIP3   OH263333   2.421   5.987  11.055 -0.2818 -0.0362 -0.0952
13973TIP3    H163334   2.357   5.931  11.099  0.3863 -0.8292 -0.1180
13973TIP3    H263335   2.492   5.928  11.031 -0.0283  0.6330 -1.0460
13974TIP3   OH263336   2.382   5.362  16.992  0.3066  0.1534 -0.0344
13974TIP3    H163337   2.423   5.428  17.048  1.0054  0.8179 -1.2956
13974TIP3    H263338   2.455   5.309  16.960 -0.0544 -0.0609 -0.5085
13975TIP3   OH263339   5.219   2.970  13.025  0.2324 -0.3152  0.0413
13975TIP3    H163340   5.132   2.996  12.994  1.1602  1.1278 -1.5292
13975TIP3    H263341   5.264   3.053  13.042  1.1516 -1.0499  1.3100
13976TIP3   OH263342   2.800   3.462   4.079 -0.6394 -0.1588 -0.6227
13976TIP3    H163343   2.813   3.550   4.045  0.0874 -0.3731 -0.9318
13976TIP3    H263344   2.811   3.470   4.174  2.7243 -0.4032 -0.8520
13977TIP3   OH263345   5.183   1.533   2.971 -0.0002 -0.4027 -0.6774
13977TIP3    H163346   5.124   1.607   2.960  0.2127 -0.2149 -0.5597
13977TIP3    H263347   5.213   1.513   2.882  0.6178  0.2129 -0.6184
13978TIP3   OH263348   4.992   5.433  11.164  0.4366 -0.3190 -0.3586
13978TIP3    H163349   4.943   5.462  11.087  0.1411  2.5898  0.8199
13978TIP3    H263350   5.064   5.382  11.128 -0.4601 -0.1964 -2.4666
13979TIP3   OH263351   0.539   6.232  11.789  0.2418 -0.0811 -0.6106
13979TIP3    H163352   0.450   6.259  11.811 -0.6356 -2.5112 -0.8921
13979TIP3    H263353   0.562   6.168  11.856  1.6297  0.1948 -0.7938
13980TIP3   OH263354   4.318   3.532  16.799  0.0637 -0.0010 -0.0281
13980TIP3    H163355   4.297   3.571  16.714  1.2826 -1.1071 -0.8795
13980TIP3    H263356   4.412   3.544  16.808  0.4662 -2.4500 -0.2300
13981TIP3   OH263357   1.178   4.603   6.376 -0.3696 -0.4964  0.0644
13981TIP3    H163358   1.264   4.565   6.395 -1.0635 -1.5204  1.2885
13981TIP3    H263359   1.194   4.662   6.302  1.9247  1.4786  1.9788
13982TIP3   OH263360   2.918   1.067  15.794  0.0253 -0.0066 -0.0298
13982TIP3    H163361   2.974   1.033  15.864 -0.7101 -0.0639  0.5346
13982TIP3    H263362   2.980   1.103  15.730  0.6783  2.1900  1.7239
13983TIP3   OH263363   1.756   1.143   1.312  0.1383  0.0199 -0.1043
13983TIP3    H163364   1.827   1.203   1.338 -0.0916  1.1874 -2.0061
13983TIP3    H263365   1.729   1.102   1.395  2.1132  0.5255  0.8647
13984TIP3   OH263366   1.634   5.221   0.421 -0.0780  0.5905 -0.0473
13984TIP3    H163367   1.620   5.144   0.366 -1.9435  0.9111 -0.0871
13984TIP3    H263368   1.547   5.262   0.428  0.2411  1.0057  2.4712
13985TIP3   OH263369   3.231   5.593   2.561  0.1417  0.6501  0.1258
13985TIP3    H163370   3.312   5.599   2.511  0.6159 -0.4603  0.7385
13985TIP3    H263371   3.258   5.605   2.652 -0.4739  0.9275  0.2781
13986TIP3   OH263372   4.840   0.481   2.957 -0.1579 -0.1235 -0.3109
13986TIP3    H163373   4.878   0.555   3.005 -2.2723  0.4691  0.5843
13986TIP3    H263374   4.816   0.419   3.025 -0.3477 -0.6762 -0.8757
13987TIP3   OH263375   4.355   6.192   2.999  0.2723 -0.0237  0.2527
13987TIP3    H163376   4.386   6.276   2.965  2.1449 -0.7688 -0.0010
13987TIP3    H263377   4.349   6.205   3.093  0.6570  0.3600  0.2253
13988TIP3   OH263378   5.763   5.252  14.375  0.2391  0.5053  0.1694
13988TIP3    H163379   5.801   5.222  14.457 -1.5051 -0.7937  0.5571
13988TIP3    H263380   5.692   5.310  14.401 -1.4529 -1.2723 -0.3047
13989TIP3   OH263381   0.359   0.979  16.363 -0.3093  0.3938 -0.3917
13989TIP3    H163382   0.366   1.059  16.310 -0.0762 -0.6845 -2.0662
13989TIP3    H263383   0.446   0.968  16.401 -0.4193  1.0759  0.0641
13990TIP3   OH263384   3.135   0.132   3.425  0.0998 -0.3808  0.7595
13990TIP3    H163385   3.127   0.226   3.407 -2.8418 -0.8977 -1.2244
13990TIP3    H263386   3.197   0.100   3.360  0.4814  0.0204  0.9172
13991TIP3   OH263387   2.870   5.985   4.863  0.4591  0.1627 -0.3873
13991TIP3    H163388   2.943   5.925   4.874  0.5826  0.5005  0.7922
13991TIP3    H263389   2.793   5.929   4.855  0.6357 -0.1690  0.2028
13992TIP3   OH263390   0.822   6.533  17.051  0.2479  0.4850 -0.6417
13992TIP3    H163391   0.746   6.531  16.992 -0.0842  0.4936 -0.2216
13992TIP3    H263392   0.823   6.623  17.085 -0.9902 -0.1125  1.1668
13993TIP3   OH263393   4.417   3.452  12.914 -0.2136 -0.1382 -0.1832
13993TIP3    H163394   4.368   3.528  12.945  1.1373  0.2085  1.2568
13993TIP3    H263395   4.391   3.442  12.822 -0.5888  1.9275 -0.3512
13994TIP3   OH263396   3.969   5.296   1.166 -0.3224  0.2679  0.2557
13994TIP3    H163397   3.953   5.267   1.076 -0.5379 -0.0446  0.3908
13994TIP3    H263398   3.883   5.318   1.200 -0.8319 -3.1605  1.5827
13995TIP3   OH263399   4.563   2.194  13.474 -0.1799  0.6668  0.0837
13995TIP3    H163400   4.510   2.157  13.545 -0.2294 -1.9763 -1.2384
13995TIP3    H263401   4.538   2.287  13.473  0.2949  1.0242  3.8895
13996TIP3   OH263402   5.589   4.471   3.879  0.0547  0.1138 -0.0361
13996TIP3    H163403   5.500   4.436   3.877 -0.3374  0.9475  1.4648
13996TIP3    H263404   5.633   4.429   3.805 -1.1905 -1.3582  0.0100
13997TIP3   OH263405   4.205   5.807  11.685 -0.2341  0.4272 -0.7802
13997TIP3    H163406   4.175   5.867  11.617 -0.3346 -1.0192 -2.0640
13997TIP3    H263407   4.212   5.722  11.641  1.1201 -0.2618  0.6606
13998TIP3   OH263408   5.748   0.216   3.149 -0.2219  0.6092  0.1988
13998TIP3    H163409   5.801   0.282   3.105 -1.0118  0.1647 -1.4838
13998TIP3    H263410   5.658   0.246   3.138 -0.5267 -0.2729  0.2400
13999TIP3   OH263411   0.061   6.304   5.094  0.7191  0.5270  0.2598
13999TIP3    H163412   0.041   6.303   5.188  1.8595 -1.7471  0.5383
13999TIP3    H263413   0.110   6.223   5.079  1.0942  1.1393 -2.2000
14000TIP3   OH263414   3.475   0.237  16.994  0.1915  0.2653 -0.0492
14000TIP3    H163415   3.526   0.203  16.921 -0.3463 -0.6368 -0.0094
14000TIP3    H263416   3.461   0.162  17.051  1.2141  1.1075  1.3641
14001TIP3   OH263417   3.274   5.645  13.328 -0.3342 -0.5789  0.1938
14001TIP3    H163418   3.225   5.680  13.254 -0.2000  1.8870  1.1669
14001TIP3    H263419   3.218   5.576  13.363 -1.1646 -0.6451 -1.1716
14002TIP3   OH263420   3.089   4.519  12.777  0.4565 -0.3944 -0.0131
14002TIP3    H163421   3.111   4.612  12.790 -1.8180  0.3859 -1.1683
14002TIP3    H263422   3.085   4.483  12.865 -1.1975  1.3096  0.6758
14003TIP3   OH263423   5.703   3.660   3.517 -0.0309  0.0708 -0.0523
14003TIP3    H163424   5.607   3.656   3.508 -0.2554  0.6245  1.5501
14003TIP3    H263425   5.730   3.569   3.529 -0.4255 -0.0499 -0.0539
14004TIP3   OH263426   3.359   6.282  10.748 -0.7517  0.1249  0.0386
14004TIP3    H163427   3.340   6.200  10.703  1.8066 -1.9976  2.4933
14004TIP3    H263428   3.358   6.348  10.679  1.2477 -2.6147 -2.9086
14005TIP3   OH263429   5.917   5.235  15.223 -0.0430  0.1288 -0.4484
14005TIP3    H163430   5.821   5.234  15.226 -0.1768  3.1092  2.2733
14005TIP3    H263431   5.944   5.181  15.297  0.1670  1.8946  0.8354
14006TIP3   OH263432   1.539   1.022  16.324  0.7800  0.2678 -0.1753
14006TIP3    H163433   1.554   0.988  16.412 -3.6444 -0.3600  0.5937
14006TIP3    H263434   1.525   1.116  16.337 -0.3487  0.1000 -0.0560
14007TIP3   OH263435   2.507   2.185   1.720  0.8083 -0.9171  0.6772
14007TIP3    H163436   2.541   2.274   1.727  0.2494 -0.5772 -0.5987
14007TIP3    H263437   2.413   2.196   1.704  1.0536 -1.6041 -1.7354
14008TIP3   OH263438   1.871   5.696  12.649  0.1029  0.0340  0.2794
14008TIP3    H163439   1.888   5.646  12.569  1.7769  1.0047 -0.0191
14008TIP3    H263440   1.827   5.634  12.707 -0.2539 -0.9821 -1.0268
14009TIP3   OH263441   0.939   3.624   0.696 -0.0588  0.4723  0.1158
14009TIP3    H163442   0.968   3.671   0.618  0.4453  1.0697  0.6545
14009TIP3    H263443   0.907   3.540   0.663  2.0520 -0.1317 -0.5288
14010TIP3   OH263444   3.933   5.308  12.919 -0.4641 -0.0059  0.4552
14010TIP3    H163445   3.973   5.224  12.937  0.7409  0.4268 -0.0991
14010TIP3    H263446   3.839   5.291  12.921 -0.2425 -1.5716 -0.6376
14011TIP3   OH263447   2.291   3.458  12.308  0.1460  0.1739 -0.2652
14011TIP3    H163448   2.372   3.456  12.360 -0.9231 -0.1248  1.4552
14011TIP3    H263449   2.282   3.549  12.281  0.4982  0.4242  0.4452
14012TIP3   OH263450   1.759   0.938   0.220  0.6098 -0.4280  0.3803
14012TIP3    H163451   1.762   0.986   0.137 -1.5030 -0.9474 -0.0374
14012TIP3    H263452   1.670   0.904   0.225  1.0681 -1.4603  2.2891
14013TIP3   OH263453   3.437   2.486   3.585  0.3142  0.3514 -0.6783
14013TIP3    H163454   3.497   2.499   3.512  0.0452 -1.1431 -1.2020
14013TIP3    H263455   3.467   2.405   3.627 -0.2961  0.5173  0.1031
14014TIP3   OH263456   1.466   5.430   6.172 -0.5722  0.7216  0.0198
14014TIP3    H163457   1.554   5.426   6.207 -1.0473 -0.1227  1.1547
14014TIP3    H263458   1.410   5.392   6.240 -1.5300 -0.9845 -1.6089
14015TIP3   OH263459   6.198   0.154  14.755  0.1404 -0.2595  0.2007
14015TIP3    H163460   6.223   0.122  14.668  1.3756  1.1188  0.0012
14015TIP3    H263461   6.152   0.236  14.738  2.1331  1.0818  0.8607
14016TIP3   OH263462   5.951   2.937  15.231 -1.1226  0.6316  0.2225
14016TIP3    H163463   5.964   2.913  15.323 -0.9319 -0.0401  0.0273
14016TIP3    H263464   5.880   2.881  15.201  0.1143 -0.6096 -0.5646
14017TIP3   OH263465   3.622   4.160   2.007  0.4330  0.0305  0.0446
14017TIP3    H163466   3.590   4.124   2.090 -1.5707  1.6382  0.0398
14017TIP3    H263467   3.543   4.186   1.960  1.5835  4.1783 -0.0086
14018TIP3   OH263468   4.392   0.125  14.034  0.1058 -0.3051  0.0136
14018TIP3    H163469   4.467   0.128  14.093 -0.3551 -1.2988  0.7023
14018TIP3    H263470   4.396   0.037  13.995 -0.8443 -0.4842  0.2879
14019TIP3   OH263471   1.455   2.663   2.504  0.1780 -0.2474 -0.4259
14019TIP3    H163472   1.467   2.628   2.416 -0.3884  0.5687 -0.8366
14019TIP3    H263473   1.370   2.629   2.532 -0.1788  0.4408 -0.6600
14020TIP3   OH263474   2.678   5.133  13.094 -0.6072 -0.2480  0.0530
14020TIP3    H163475   2.605   5.137  13.155  0.1163 -3.3110  1.3438
14020TIP3    H263476   2.756   5.133  13.149  0.2326 -0.1085 -1.0843
14021TIP3   OH263477   2.940   5.246  12.276 -0.3070 -0.0747 -0.3302
14021TIP3    H163478   2.847   5.245  12.296 -0.6292 -0.5854 -1.7147
14021TIP3    H263479   2.966   5.154  12.274 -0.0420  0.0093 -1.0603
14022TIP3   OH263480   6.088   0.117   1.322  0.2825  0.2104  0.1148
14022TIP3    H163481   6.001   0.085   1.297 -1.0253  2.6367  1.1845
14022TIP3    H263482   6.125   0.046   1.376 -1.8708 -0.1496  1.2411
14023TIP3   OH263483   2.651   2.915   4.481  0.1254  0.4684 -0.0268
14023TIP3    H163484   2.601   2.938   4.559  0.4282  0.5160  0.1587
14023TIP3    H263485   2.630   2.983   4.417  0.3777  0.8036  0.2393
14024TIP3   OH263486   5.349   6.721  11.667 -0.4008  0.1458 -0.2572
14024TIP3    H163487   5.283   6.744  11.732  0.2564  1.0905  0.0884
14024TIP3    H263488   5.398   6.802  11.652  2.4355 -1.0524  1.5201
14025TIP3   OH263489   4.613   6.262   1.237  0.0353  0.1414 -0.3532
14025TIP3    H163490   4.635   6.319   1.310  0.5162 -2.9420  2.1154
14025TIP3    H263491   4.693   6.255   1.186  0.3373  0.6676  0.0429
14026TIP3   OH263492   1.794   5.731   2.942 -0.1551  0.3616  0.0332
14026TIP3    H163493   1.824   5.720   2.852  0.3567  2.0076 -0.0196
14026TIP3    H263494   1.847   5.669   2.993  0.0680 -0.0432 -0.6823
14027TIP3   OH263495   3.023   3.522   2.057  0.1353  0.2883 -0.2725
14027TIP3    H163496   3.042   3.562   1.973  0.9404  0.3053 -0.0864
14027TIP3    H263497   3.061   3.435   2.052 -1.8296 -0.5890 -0.7675
14028TIP3   OH263498   6.517   1.569   1.452  0.3295  0.2039 -0.2060
14028TIP3    H163499   6.437   1.622   1.458  1.0412  1.3872 -0.8514
14028TIP3    H263500   6.583   1.620   1.499  0.7511 -0.7063  0.2160
14029TIP3   OH263501   1.521   1.981  13.894  0.6870 -0.3468  0.5953
14029TIP3    H163502   1.531   1.974  13.799  3.4328 -0.4926  0.8265
14029TIP3    H263503   1.456   1.914  13.916 -1.7297  1.1728 -1.3385
14030TIP3   OH263504   5.414   2.472  13.791 -0.6353  0.5703  0.1706
14030TIP3    H163505   5.423   2.434  13.703 -0.1942 -0.4916  0.6585
14030TIP3    H263506   5.451   2.560  13.782 -0.2915  0.3600 -0.6267
14031TIP3   OH263507   3.281   1.424  14.460  0.5523 -0.1291 -0.4994
14031TIP3    H163508   3.297   1.462  14.374 -3.3830 -0.7555 -1.7027
14031TIP3    H263509   3.346   1.354  14.467  1.3965  0.3522 -2.6500
14032TIP3   OH263510   1.299   3.968   5.606 -0.1945 -0.1960 -0.0854
14032TIP3    H163511   1.313   4.049   5.557 -2.9164 -0.5992 -1.7686
14032TIP3    H263512   1.205   3.967   5.622 -0.1038 -2.6415  0.5989
14033TIP3   OH263513   2.259   0.888  11.169  0.1615 -0.4243  0.1333
14033TIP3    H163514   2.248   0.800  11.132  1.8273 -0.8215  0.5363
14033TIP3    H263515   2.274   0.944  11.093 -0.1029 -0.6196 -0.0647
14034TIP3   OH263516   3.987   3.255   5.731  0.2038 -0.0342  0.7346
14034TIP3    H163517   4.005   3.173   5.778 -1.0682 -1.5895 -1.2915
14034TIP3    H263518   3.945   3.227   5.649 -0.4328  2.6768  0.0234
14035TIP3   OH263519   4.398   1.549  16.408 -0.1682 -0.9029 -0.6669
14035TIP3    H163520   4.405   1.598  16.327  2.1335  0.4777  0.2905
14035TIP3    H263521   4.444   1.467  16.391 -0.2363 -0.8844 -0.9385
14036TIP3   OH263522   6.327   0.248   1.257 -0.1501 -0.8320 -0.7007
14036TIP3    H163523   6.252   0.203   1.298  0.3385 -0.8057  0.2550
14036TIP3    H263524   6.292   0.333   1.231 -0.5997 -1.0311 -0.7637
14037TIP3   OH263525   2.992   2.699   4.245  0.2656 -0.4855 -0.2877
14037TIP3    H163526   2.954   2.779   4.211 -0.2147 -0.1232  1.0484
14037TIP3    H263527   3.087   2.716   4.246  0.3311 -0.6339 -1.6909
14038TIP3   OH263528   4.826   0.402   1.263  0.1816 -0.3981 -0.1406
14038TIP3    H163529   4.844   0.327   1.207 -2.6573  0.4983 -2.5048
14038TIP3    H263530   4.775   0.366   1.336  1.1952 -1.0962  0.2563
14039TIP3   OH263531   2.738   4.931   3.487  0.0977  0.7269  0.1157
14039TIP3    H163532   2.712   5.002   3.546  1.1916  0.5884  0.7985
14039TIP3    H263533   2.755   4.856   3.545 -0.3596  0.1161 -0.5275
14040TIP3   OH263534   3.315   2.664   2.907 -0.3843 -0.4486 -0.4228
14040TIP3    H163535   3.355   2.617   2.980 -0.7629  0.6080  0.4918
14040TIP3    H263536   3.386   2.675   2.844  0.0389 -1.0662 -0.0602
14041TIP3   OH263537   4.421   5.243   4.197 -0.4785  0.4593 -0.3114
14041TIP3    H163538   4.410   5.328   4.155  3.2771  2.2050  1.7488
14041TIP3    H263539   4.483   5.196   4.140 -1.7446 -0.5604 -0.9009
14042TIP3   OH263540   2.601   3.899   3.216  0.1789  0.0185  0.3632
14042TIP3    H163541   2.585   3.993   3.222  0.4009  0.0427  0.5645
14042TIP3    H263542   2.695   3.891   3.201  0.0961 -0.1565 -0.0783
14043TIP3   OH263543   2.482   3.739  13.352 -0.0169 -0.4502 -0.1564
14043TIP3    H163544   2.448   3.670  13.295  1.6177 -0.9087 -0.6584
14043TIP3    H263545   2.510   3.808  13.291  1.6019 -0.8776  0.0393
14044TIP3   OH263546   2.582   4.385   2.726 -0.0230 -0.7914 -0.2966
14044TIP3    H163547   2.673   4.405   2.748 -0.0375 -0.2768 -0.6698
14044TIP3    H263548   2.563   4.304   2.774 -0.3610  0.7349  2.3286
14045TIP3   OH263549   6.360   4.625   0.778 -0.1954  0.1487 -0.1372
14045TIP3    H163550   6.386   4.533   0.773  0.1677  0.2994 -1.3644
14045TIP3    H263551   6.302   4.630   0.854 -3.6336 -1.9634 -2.3482
14046TIP3   OH263552   0.704   2.373  14.312  0.0255 -0.1884 -0.0969
14046TIP3    H163553   0.754   2.420  14.378  1.4626  1.1227 -1.9872
14046TIP3    H263554   0.651   2.310  14.361  0.7991  0.9059  2.2655
14047TIP3   OH263555   0.675   5.729  13.918 -0.2046 -0.1792 -1.0297
14047TIP3    H163556   0.721   5.664  13.864  0.4668  0.2961 -1.0324
14047TIP3    H263557   0.659   5.802  13.858  3.3071  1.7183  0.0669
14048TIP3   OH263558   0.775   0.592   3.202 -0.4475 -0.1065  0.0489
14048TIP3    H163559   0.823   0.577   3.284  1.1396 -0.6687 -0.9257
14048TIP3    H263560   0.762   0.687   3.198 -0.2817 -0.0459  0.8029
14049TIP3   OH263561   6.158   3.184   5.590  0.3309 -0.7630  0.1186
14049TIP3    H163562   6.080   3.129   5.591 -0.2811 -0.0500 -2.0030
14049TIP3    H263563   6.202   3.161   5.508  0.9641  0.6746  0.0243
14050TIP3   OH263564   0.967   0.470  11.461  0.6323  0.2502 -0.0396
14050TIP3    H163565   0.995   0.469  11.369  0.2264 -0.2281 -0.1634
14050TIP3    H263566   0.873   0.486  11.456  0.1066 -2.3378  0.1439
14051TIP3   OH263567   3.203   5.457   6.296 -0.3956 -0.8696  0.4486
14051TIP3    H163568   3.247   5.398   6.356 -1.3091  0.8277  2.9484
14051TIP3    H263569   3.133   5.403   6.257  0.0711 -1.9545  1.0592
14052TIP3   OH263570   3.331   5.900  15.951  0.1537 -0.3097 -0.3838
14052TIP3    H163571   3.396   5.836  15.922  0.9882  1.7532 -3.6687
14052TIP3    H263572   3.307   5.947  15.871 -2.1785  1.9069  1.4505
14053TIP3   OH263573   1.726   6.552   5.882 -0.1324 -0.1649  0.1095
14053TIP3    H163574   1.698   6.640   5.856  1.1319 -0.0125 -0.8082
14053TIP3    H263575   1.685   6.494   5.818  0.4866 -0.0745 -0.3707
14054TIP3   OH263576   0.579   5.543   3.143  0.2785 -0.1666 -0.2769
14054TIP3    H163577   0.643   5.544   3.214  0.8150 -1.5885 -0.7077
14054TIP3    H263578   0.623   5.497   3.072 -0.5917  0.4177 -1.2176
14055TIP3   OH263579   5.211   6.038   2.490  0.2271 -0.2904 -0.2757
14055TIP3    H163580   5.223   6.126   2.526  2.1585 -0.5515 -0.1844
14055TIP3    H263581   5.191   5.984   2.567 -0.7287  0.0189 -0.3003
14056TIP3   OH263582   4.073   0.929  13.183  0.1485 -0.6834  0.4428
14056TIP3    H163583   3.988   0.971  13.197 -0.0200 -0.7383 -0.3608
14056TIP3    H263584   4.060   0.838  13.208  0.4591 -0.3299  1.9987
14057TIP3   OH263585   2.180   6.380  11.695 -0.1237 -0.1021  0.4363
14057TIP3    H163586   2.264   6.339  11.674 -0.4403 -0.0304 -1.1153
14057TIP3    H263587   2.128   6.309  11.732  0.6794 -0.0956  1.6136
14058TIP3   OH263588   2.354   1.973   3.796  0.2190 -0.3908 -0.3484
14058TIP3    H163589   2.307   2.055   3.782  0.3857 -0.3693 -0.8142
14058TIP3    H263590   2.411   1.965   3.720  0.0105 -1.0677 -0.4470
14059TIP3   OH263591   4.002   0.937  14.616  0.0943  0.1441  0.2878
14059TIP3    H163592   4.071   0.962  14.554  0.3089  1.1680  0.9103
14059TIP3    H263593   4.045   0.877  14.677  0.3363  0.4968  0.4632
14060TIP3   OH263594   0.305   1.300  12.748 -0.2012 -0.0493 -0.1731
14060TIP3    H163595   0.365   1.326  12.678 -0.0333  1.3494  0.4594
14060TIP3    H263596   0.303   1.204  12.743  0.8891 -0.0472 -1.1870
14061TIP3   OH263597   3.729   0.515   1.831 -0.0017 -0.0698  0.6722
14061TIP3    H163598   3.773   0.438   1.867  0.3128 -0.4934 -0.5448
14061TIP3    H263599   3.653   0.528   1.887 -0.4127 -1.6662  0.5459
14062TIP3   OH263600   0.650   3.794  10.972 -0.5446 -0.2586 -0.1550
14062TIP3    H163601   0.650   3.754  10.885 -0.1354  2.6458 -1.6156
14062TIP3    H263602   0.734   3.769  11.010  0.0376 -0.1571 -1.3245
14063TIP3   OH263603   2.737   1.017   1.933 -0.0700 -0.0431  0.3866
14063TIP3    H163604   2.771   1.094   1.978 -0.0214 -0.2069  0.6284
14063TIP3    H263605   2.805   0.951   1.943 -0.3272 -0.2758  0.6126
14064TIP3   OH263606   5.036   0.450   4.943  0.2436 -0.0613  0.9460
14064TIP3    H163607   4.948   0.423   4.918  0.7890 -0.4972 -0.6286
14064TIP3    H263608   5.093   0.406   4.880  1.5569  0.4994  1.7171
14065TIP3   OH263609   4.512   4.119  15.927 -0.3515  0.2969  0.5666
14065TIP3    H163610   4.498   4.176  15.852 -0.0791 -1.3439 -0.8088
14065TIP3    H263611   4.435   4.062  15.929  0.7730 -1.3278 -0.0803
14066TIP3   OH263612   5.911   6.706  15.318  0.0299  0.2394 -0.5593
14066TIP3    H163613   5.933   6.797  15.301  2.2763  0.1363  1.3056
14066TIP3    H263614   5.906   6.665  15.231  2.8714  1.3498 -1.3465
14067TIP3   OH263615   1.466   4.298   1.665  0.3059 -0.0974  0.0223
14067TIP3    H163616   1.456   4.274   1.573 -0.6259  0.3092  0.0003
14067TIP3    H263617   1.543   4.355   1.667  0.2203  0.0426 -0.5305
14068TIP3   OH263618   3.774   2.049   3.868  0.4110  0.3501 -0.2174
14068TIP3    H163619   3.782   2.095   3.951  0.9498  0.7950 -0.5021
14068TIP3    H263620   3.811   2.110   3.804  2.0881 -0.8638 -0.4697
14069TIP3   OH263621   4.187   1.409   4.280  0.1019 -0.2162 -0.1231
14069TIP3    H163622   4.208   1.500   4.259  0.3174 -0.0561  0.7572
14069TIP3    H263623   4.270   1.362   4.269  0.0138 -0.2978 -0.4741
14070TIP3   OH263624   0.887   5.920   0.419  0.4912  0.1710 -0.2714
14070TIP3    H163625   0.890   5.901   0.513  1.4027 -0.4214 -0.4055
14070TIP3    H263626   0.813   5.869   0.387  0.7282 -0.3482 -0.0165
14071TIP3   OH263627   3.416   2.018   2.500  0.3745 -0.4028 -0.1266
14071TIP3    H163628   3.491   1.973   2.539 -0.8072 -2.4551 -0.1305
14071TIP3    H263629   3.340   1.988   2.550 -0.4844  1.6696 -0.0855
14072TIP3   OH263630   2.474   3.246   1.006 -0.6677 -0.2573  0.5816
14072TIP3    H163631   2.531   3.265   1.081 -2.0191  3.6864  0.8270
14072TIP3    H263632   2.531   3.204   0.943  1.8684  1.0383  1.8591
14073TIP3   OH263633   5.006   0.083  16.222  0.7660 -0.5775 -0.0567
14073TIP3    H163634   4.913   0.106  16.217  0.3127 -2.3127 -0.5895
14073TIP3    H263635   5.044   0.119  16.143  0.6138  0.3700  0.2890
14074TIP3   OH263636   0.647   2.555  10.923 -0.0355  0.3478 -0.4479
14074TIP3    H163637   0.563   2.554  10.969  0.0009 -1.1321 -0.3557
14074TIP3    H263638   0.644   2.478  10.867  0.9372  0.7441 -1.0647
14075TIP3   OH263639   3.944   5.111   1.636  0.3097 -0.1550 -0.3161
14075TIP3    H163640   3.954   5.202   1.608 -1.1591 -0.0046 -0.4459
14075TIP3    H263641   3.935   5.061   1.555 -2.1946  0.0586 -0.2674
14076TIP3   OH263642   2.727   2.726  15.826 -0.2058  0.2566 -0.1133
14076TIP3    H163643   2.776   2.763  15.899 -1.9443  0.7049  0.8844
14076TIP3    H263644   2.733   2.631  15.838  0.1722  0.3151  0.1553
14077TIP3   OH263645   5.320   6.161   1.955 -0.1597 -0.7192  0.4138
14077TIP3    H163646   5.376   6.234   1.982  0.3955 -0.3947 -1.5029
14077TIP3    H263647   5.356   6.085   2.001  1.3592 -0.3647 -0.1402
14078TIP3   OH263648   1.555   3.286   4.994 -0.3576  0.3415  0.2115
14078TIP3    H163649   1.470   3.329   4.998 -0.3563  0.3466  0.1872
14078TIP3    H263650   1.618   3.357   4.979 -0.1366  0.5647  2.0142
14079TIP3   OH263651   2.715   1.335   2.904  0.3686 -0.2339 -0.2487
14079TIP3    H163652   2.695   1.314   2.995  0.9542 -1.2563 -0.3450
14079TIP3    H263653   2.631   1.359   2.865  0.1649  0.5070  0.6332
14080TIP3   OH263654   3.423   5.985  13.091  0.8158  0.1186 -0.0200
14080TIP3    H163655   3.353   5.924  13.066  0.2846  2.0147 -3.8919
14080TIP3    H263656   3.377   6.062  13.124  1.2089  0.3526 -0.0124
14081TIP3   OH263657   1.152   0.383   6.436  0.4956  0.5122 -0.0211
14081TIP3    H163658   1.222   0.447   6.427  0.1437  1.1647  1.5268
14081TIP3    H263659   1.164   0.323   6.362  1.6173  1.6028 -0.7620
14082TIP3   OH263660   0.598   6.420   2.731  0.2281  0.4970 -0.0887
14082TIP3    H163661   0.685   6.418   2.772  0.4006 -0.2295 -0.4747
14082TIP3    H263662   0.582   6.513   2.714  0.0430  0.8682  1.8218
14083TIP3   OH263663   0.149   1.346   2.747  0.0359 -0.0313 -0.0718
14083TIP3    H163664   0.145   1.369   2.840 -2.0334  2.6314 -0.6996
14083TIP3    H263665   0.066   1.302   2.730 -0.0933  0.5070 -0.8662
14084TIP3   OH263666   2.552   5.555   2.859  0.2171  0.5035 -0.0987
14084TIP3    H163667   2.531   5.511   2.776  2.6156  3.2815 -2.3822
14084TIP3    H263668   2.503   5.637   2.856 -1.2655 -0.1810  2.3297
14085TIP3   OH263669   4.166   4.535   0.099  0.1195  0.2531 -0.5846
14085TIP3    H163670   4.202   4.558   0.184 -0.2326 -0.4747 -0.2330
14085TIP3    H263671   4.222   4.464   0.067  0.6270  0.9329 -1.2428
14086TIP3   OH263672   3.247   3.193   4.499  0.5654 -0.5563  0.4308
14086TIP3    H163673   3.302   3.151   4.566  0.6985 -0.7043  0.2284
14086TIP3    H263674   3.162   3.205   4.543  0.7345 -0.3947  0.7182
14087TIP3   OH263675   6.053   1.796  11.481 -0.5911 -0.0533  0.1502
14087TIP3    H163676   6.049   1.708  11.445  1.7237 -0.0810 -0.1847
14087TIP3    H263677   5.979   1.842  11.441 -1.7805 -1.7750  0.2552
14088TIP3   OH263678   5.914   5.497  13.026 -0.1415  0.2017  0.3151
14088TIP3    H163679   5.929   5.413  13.070  0.8740  0.7720  1.0953
14088TIP3    H263680   5.819   5.499  13.010 -0.4232 -0.3735  1.7691
14089TIP3   OH263681   0.381   2.852  14.934 -0.2371  0.1038  0.4764
14089TIP3    H163682   0.433   2.930  14.917  0.2124 -0.0942  0.8863
14089TIP3    H263683   0.300   2.865  14.886  0.4626  0.1202 -0.7247
14090TIP3   OH263684   3.985   1.892   3.418 -0.2818 -0.6402 -0.4365
14090TIP3    H163685   3.971   1.837   3.496  1.8937  1.3028  1.4564
14090TIP3    H263686   4.039   1.838   3.360 -1.1512 -1.7738 -0.2373
14091TIP3   OH263687   2.619   1.794   0.291  0.5654  1.2343  0.1110
14091TIP3    H163688   2.574   1.879   0.287  1.7274  1.9033  0.5802
14091TIP3    H263689   2.556   1.736   0.333 -0.0975  1.9789  0.1784
14092TIP3   OH263690   2.581   3.690   1.432  0.6534  0.6803  0.4195
14092TIP3    H163691   2.546   3.608   1.398  0.6220  0.2967  1.3449
14092TIP3    H263692   2.665   3.666   1.472  0.3467  0.9613  1.2727
14093TIP3   OH263693   3.334   3.493  13.190 -0.1871  0.3248 -0.1260
14093TIP3    H163694   3.339   3.525  13.280  1.2665  1.7609 -0.6645
14093TIP3    H263695   3.306   3.402  13.199 -3.0548  1.2589  1.5679
14094TIP3   OH263696   3.182   5.625  12.593 -0.6098  0.2089 -0.2039
14094TIP3    H163697   3.209   5.563  12.661  0.7334  1.2506  0.2535
14094TIP3    H263698   3.251   5.619  12.527 -1.6334 -0.4017 -1.2668
14095TIP3   OH263699   2.472   5.961  11.868 -0.0010  0.1624  0.0240
14095TIP3    H163700   2.443   5.907  11.794 -0.0250 -1.3532  1.0918
14095TIP3    H263701   2.391   5.985  11.913  0.0835  0.0702  0.2276
14096TIP3   OH263702   2.188   4.311  17.217 -0.0888 -0.1793  0.0021
14096TIP3    H163703   2.277   4.284  17.193 -0.8727 -1.4979 -1.5638
14096TIP3    H263704   2.200   4.357  17.301  1.7718 -2.6268  1.2461
14097TIP3   OH263705   6.369   2.803  14.316  0.3611  0.1560  0.2371
14097TIP3    H163706   6.445   2.785  14.371  0.0730  0.9589  0.9263
14097TIP3    H263707   6.306   2.844  14.376 -0.2665  0.3197 -0.5242
14098TIP3   OH263708   0.431   2.596  15.210  0.8411  0.6341  0.2331
14098TIP3    H163709   0.436   2.501  15.222 -1.2202  0.2288 -1.6889
14098TIP3    H263710   0.346   2.621  15.247  1.0837  1.6539  0.1422
14099TIP3   OH263711   1.304   4.226   1.157  0.0397  0.2745 -0.1668
14099TIP3    H163712   1.224   4.197   1.200 -1.3839  2.9463 -0.8086
14099TIP3    H263713   1.315   4.164   1.084 -1.9800  0.3804 -0.6167
14100TIP3   OH263714   3.776   6.119   6.405 -0.2191  0.3643  0.5199
14100TIP3    H163715   3.833   6.194   6.417 -0.0259  0.1940  0.6654
14100TIP3    H263716   3.687   6.154   6.417 -0.2025  0.7813 -0.4396
14101TIP3   OH263717   5.620   6.458  14.905 -0.2591 -0.4623 -0.0266
14101TIP3    H163718   5.613   6.468  15.000  0.3625  1.7063 -0.1667
14101TIP3    H263719   5.530   6.464  14.873 -0.2966  0.8760  0.2825
14102TIP3   OH263720   6.622   2.280  13.117  1.0094  0.5385  0.5338
14102TIP3    H163721   6.601   2.373  13.109  1.9230  1.1288  3.6505
14102TIP3    H263722   6.715   2.278  13.141  0.8715 -1.1412  1.0504
14103TIP3   OH263723   6.769   0.646  15.832 -0.3635  0.0844  0.2220
14103TIP3    H163724   6.800   0.731  15.801 -0.3878  0.2057  0.5255
14103TIP3    H263725   6.680   0.638  15.798 -0.6712  0.5560  0.8927
14104TIP3   OH263726   4.225   1.464   3.350  0.4823 -0.2239  0.1951
14104TIP3    H163727   4.186   1.378   3.362 -0.5070  0.0613 -0.7674
14104TIP3    H263728   4.222   1.479   3.256 -0.0781  1.1650  0.4034
14105TIP3   OH263729   1.857   5.168   0.169  0.4038 -0.5044 -0.1426
14105TIP3    H163730   1.877   5.095   0.110 -0.2311 -1.4733  0.7872
14105TIP3    H263731   1.762   5.182   0.158  0.5019  0.1110 -0.2321
14106TIP3   OH263732   3.393   2.530  15.703 -0.1991 -0.1593  0.6486
14106TIP3    H163733   3.377   2.604  15.762  3.0549 -0.3693  1.9984
14106TIP3    H263734   3.320   2.532  15.641 -1.7588  2.3829  2.3970
14107TIP3   OH263735   4.192   4.919  13.962  0.6369 -0.6181  0.2082
14107TIP3    H163736   4.123   4.963  13.914  0.2305 -1.2778  0.1718
14107TIP3    H263737   4.147   4.855  14.017  1.0032  0.7402  2.2041
14108TIP3   OH263738   1.736   1.402  10.835 -0.4907 -0.0733  0.0408
14108TIP3    H163739   1.685   1.342  10.781 -0.5863 -0.2531  0.3317
14108TIP3    H263740   1.817   1.416  10.785 -1.3167  1.1729 -1.0178
14109TIP3   OH263741   0.857   5.008  11.463  0.3744  0.1802 -0.5178
14109TIP3    H163742   0.805   4.934  11.496 -1.0241  0.8663 -1.0782
14109TIP3    H263743   0.940   5.002  11.509 -0.1099 -1.1243  0.2344
14110TIP3   OH263744   4.494   2.543  14.734  0.5123  0.1090 -0.3843
14110TIP3    H163745   4.548   2.609  14.689  0.1577  0.7008  0.0352
14110TIP3    H263746   4.542   2.461  14.722  1.0579  0.4695 -0.7672
14111TIP3   OH263747   1.151   1.758  11.110  0.3949  0.0919 -0.1766
14111TIP3    H163748   1.147   1.838  11.162  0.6123  0.2057 -0.3308
14111TIP3    H263749   1.111   1.781  11.026 -1.8495 -0.6586  0.6258
14112TIP3   OH263750   6.088   2.787   3.794 -0.7466 -0.1088 -0.0636
14112TIP3    H163751   6.062   2.777   3.885 -2.4176  1.2149 -0.3518
14112TIP3    H263752   6.045   2.715   3.748 -0.9563 -0.0311  0.0109
14113TIP3   OH263753   2.933   0.383   1.783  0.3843 -0.2481 -0.3294
14113TIP3    H163754   2.891   0.419   1.705  0.6279  0.1668 -0.2688
14113TIP3    H263755   2.978   0.305   1.752  0.7417  0.0887 -0.6641
14114TIP3   OH263756   6.746   1.449  14.015  0.3813 -0.1984 -0.0011
14114TIP3    H163757   6.657   1.448  13.981  0.5538 -2.3128 -0.5373
14114TIP3    H263758   6.797   1.493  13.947  0.3313 -2.3646 -1.5699
14115TIP3   OH263759   0.829   4.976   3.511  0.2827 -0.0682 -0.1859
14115TIP3    H163760   0.840   4.905   3.447  0.8290 -0.2671  0.1208
14115TIP3    H263761   0.835   5.056   3.460  1.4534 -0.2071 -0.2974
14116TIP3   OH263762   6.335   4.207  12.891 -0.3030 -0.2169  0.1754
14116TIP3    H163763   6.379   4.235  12.970 -0.7497  1.8081 -0.2534
14116TIP3    H263764   6.243   4.228  12.906 -0.2608  1.1800 -1.2496
14117TIP3   OH263765   6.588   6.000  12.907 -0.3617  0.2765 -0.1935
14117TIP3    H163766   6.589   6.044  12.822 -0.4662 -0.3637 -0.5278
14117TIP3    H263767   6.540   6.060  12.965  1.2429  1.5643 -0.1193
14118TIP3   OH263768   1.131   6.710  16.470  0.0830 -0.0388  0.0124
14118TIP3    H163769   1.144   6.650  16.544 -0.0685 -1.0415 -0.7539
14118TIP3    H263770   1.041   6.696  16.443  0.0525  0.5331 -0.1994
14119TIP3   OH263771   6.190   4.707  16.764  0.0318 -0.0321 -0.4571
14119TIP3    H163772   6.221   4.794  16.791  0.9394 -0.4156 -0.2024
14119TIP3    H263773   6.113   4.725  16.710 -0.1614  0.8961  0.0928
14120TIP3   OH263774   4.247   0.859   5.020  0.3186 -0.7092 -0.2319
14120TIP3    H163775   4.309   0.856   4.947 -0.5408 -1.4235 -0.9607
14120TIP3    H263776   4.162   0.840   4.980 -0.2386 -0.6650  0.8894
14121TIP3   OH263777   2.443   2.774   4.772 -0.1333 -0.4049  0.5359
14121TIP3    H163778   2.485   2.860   4.774 -1.0234  0.0295  1.0744
14121TIP3    H263779   2.428   2.757   4.679  1.3431 -0.6396  0.3155
14122TIP3   OH263780   2.653   3.692   5.590  0.1787  0.1971 -0.8902
14122TIP3    H163781   2.578   3.711   5.646 -0.1837  0.9307 -1.6033
14122TIP3    H263782   2.704   3.627   5.639 -0.2320  0.6584  0.1882
14123TIP3   OH263783   2.192   5.790  14.886  0.4587 -0.4490  0.2046
14123TIP3    H163784   2.253   5.816  14.816 -3.2278 -0.6226 -3.4613
14123TIP3    H263785   2.205   5.855  14.955  3.0499  0.8832 -1.3866
14124TIP3   OH263786   1.850   2.860   1.283 -0.3701 -0.8766  0.2105
14124TIP3    H163787   1.943   2.839   1.272 -0.0397  1.4314 -2.6128
14124TIP3    H263788   1.829   2.914   1.207 -3.7476 -0.3119  1.3994
14125TIP3   OH263789   4.289   5.048  16.290  1.0906 -0.8605 -0.8821
14125TIP3    H163790   4.320   5.060  16.201  2.4525 -0.8500 -0.4301
14125TIP3    H263791   4.340   5.109  16.342 -1.1835  0.7026 -0.3423
14126TIP3   OH263792   1.558   1.095  12.117  0.2794 -1.0038 -0.3349
14126TIP3    H163793   1.532   1.061  12.202 -0.0007 -0.5827 -0.2497
14126TIP3    H263794   1.567   1.189  12.130 -1.5172 -0.6631 -1.1811
14127TIP3   OH263795   2.819   6.091  12.186 -0.5920  0.4726 -0.3019
14127TIP3    H163796   2.899   6.082  12.238 -1.1371  1.0474  0.6692
14127TIP3    H263797   2.844   6.063  12.098  0.7155  0.8022 -0.0559
14128TIP3   OH263798   1.910   6.241  12.923  0.9217  0.3083  0.9539
14128TIP3    H163799   2.002   6.232  12.899  0.3194 -0.9055 -1.1986
14128TIP3    H263800   1.887   6.330  12.898  0.6603 -0.5039 -2.2102
14129TIP3   OH263801   4.228   6.356  15.083  0.0966 -0.0597 -0.0501
14129TIP3    H163802   4.263   6.344  14.995 -0.8747 -1.1394 -0.3212
14129TIP3    H263803   4.135   6.374  15.070 -0.5989 -2.5710  0.7703
14130TIP3   OH263804   0.797   6.234   3.264 -0.1849  0.1776  0.2889
14130TIP3    H163805   0.758   6.165   3.211 -0.7661  0.3545  0.4723
14130TIP3    H263806   0.877   6.196   3.299  0.9648  0.5052 -1.8219
14131TIP3   OH263807   0.336   6.345   0.744  0.3822 -0.3059 -0.3430
14131TIP3    H163808   0.335   6.437   0.769  1.4832  0.0434 -1.4874
14131TIP3    H263809   0.407   6.338   0.680  0.0490 -1.8679 -0.5875
14132TIP3   OH263810   5.221   0.118   0.314 -0.2637  0.1308 -0.2455
14132TIP3    H163811   5.246   0.111   0.406  0.0419  0.1425 -0.3267
14132TIP3    H263812   5.172   0.200   0.308 -2.9141 -1.2809  0.5073
14133TIP3   OH263813   2.737   0.824  11.089 -0.3361 -0.1528 -0.0881
14133TIP3    H163814   2.732   0.769  11.167  1.3096  0.3288  0.4025
14133TIP3    H263815   2.655   0.874  11.090 -0.7661 -0.8407  0.8002
14134TIP3   OH263816   4.173   2.872   6.003 -0.3963 -0.2472 -0.0384
14134TIP3    H163817   4.215   2.786   5.993  1.4114  0.5231  0.4505
14134TIP3    H263818   4.149   2.876   6.096 -0.1823 -0.1199  0.0141
14135TIP3   OH263819   0.857   0.048  16.856 -0.2481 -0.0875  0.1825
14135TIP3    H163820   0.847   0.124  16.799  0.3190 -0.0062  0.1917
14135TIP3    H263821   0.854  -0.027  16.797 -2.6623 -0.2075  0.3309
14136TIP3   OH263822   1.978   1.599  11.193  0.6001 -0.4010 -0.0817
14136TIP3    H163823   2.068   1.604  11.161  0.2501 -0.2609 -1.0719
14136TIP3    H263824   1.952   1.509  11.177  0.3410 -0.2669 -0.4337
14137TIP3   OH263825   5.444   0.215   2.963 -0.2924 -0.2683 -0.0308
14137TIP3    H163826   5.356   0.252   2.969 -0.0442  0.6506 -1.5682
14137TIP3    H263827   5.475   0.240   2.876  1.9048  0.3541  0.8591
14138TIP3   OH263828   5.297   6.625  16.476 -0.7720  0.3615 -0.1213
14138TIP3    H163829   5.215   6.670  16.458 -1.2741 -1.5599 -3.4267
14138TIP3    H263830   5.348   6.635  16.395  2.3684  1.4726  1.7827
14139TIP3   OH263831   6.080   6.625  11.864  1.0230  0.2141 -0.6241
14139TIP3    H163832   6.010   6.685  11.888  1.8684  1.3201 -0.8274
14139TIP3    H263833   6.098   6.575  11.944  1.0160  0.9812 -0.1281
14140TIP3   OH263834   2.885   3.824  12.532  0.3793  0.0360 -0.0862
14140TIP3    H163835   2.841   3.877  12.599 -0.8647  2.0593 -2.3470
14140TIP3    H263836   2.978   3.837  12.549  0.1577 -0.8171  2.1692
14141TIP3   OH263837   2.096   6.413  11.981 -0.6215 -0.2379 -0.1756
14141TIP3    H163838   2.017   6.359  11.978 -1.0556  0.3999 -0.4357
14141TIP3    H263839   2.124   6.421  11.890 -1.9160  1.9002 -0.4533
14142TIP3   OH263840   3.989   4.770  13.389  0.1385  0.2317 -0.3211
14142TIP3    H163841   4.067   4.759  13.335  1.0869  0.6503  0.9012
14142TIP3    H263842   3.915   4.757  13.329  1.1212  1.2568 -1.8138
14143TIP3   OH263843   5.628   2.804  15.717 -0.8497  0.2379 -0.8362
14143TIP3    H163844   5.582   2.806  15.801  0.6653  0.8867  0.0175
14143TIP3    H263845   5.697   2.869  15.726  1.6005 -2.1377 -1.2597
14144TIP3   OH263846   6.713   3.012   4.182  0.2361  0.6372 -0.0829
14144TIP3    H163847   6.633   3.033   4.228 -0.8484 -0.2413 -1.4789
14144TIP3    H263848   6.779   3.000   4.250 -0.9431  0.8369  1.1108
14145TIP3   OH263849   2.563   6.071   6.165  0.5077  0.2863 -0.1993
14145TIP3    H163850   2.637   6.131   6.176  0.5615  0.1817  0.0069
14145TIP3    H263851   2.572   6.039   6.075  1.0567 -0.1806  0.0154
14146TIP3   OH263852   3.656   4.530   3.482  0.0661  0.2072  0.0204
14146TIP3    H163853   3.706   4.468   3.430  2.5364  2.0241  0.0650
14146TIP3    H263854   3.595   4.571   3.420  1.2762  0.6130 -0.9369
14147TIP3   OH263855   3.001   0.101  16.250 -0.4283 -0.1157 -0.4369
14147TIP3    H163856   2.910   0.131  16.245 -0.7821 -1.2469 -1.0839
14147TIP3    H263857   3.001   0.039  16.324 -0.4572 -0.9743 -1.1390
14148TIP3   OH263858   5.566   1.846   1.194  0.2991 -0.5438 -0.2504
14148TIP3    H163859   5.636   1.818   1.136  1.1440 -0.1434  0.5491
14148TIP3    H263860   5.556   1.940   1.175 -1.1102 -0.8933 -1.4591
14149TIP3   OH263861   3.082   5.240   2.019  0.4873 -0.3255 -0.6042
14149TIP3    H163862   3.071   5.164   2.076  0.5791 -0.4563 -0.7605
14149TIP3    H263863   3.170   5.273   2.040  0.5390 -0.4008 -0.7021
14150TIP3   OH263864   2.001   2.049  14.020 -0.2704  0.2535 -0.5024
14150TIP3    H163865   1.906   2.056  14.015 -0.5622 -0.7263  2.2316
14150TIP3    H263866   2.023   2.071  14.110  1.7383 -2.6046 -0.1465
14151TIP3   OH263867   2.971   5.493  16.662 -0.8323  0.5608 -0.5516
14151TIP3    H163868   2.887   5.507  16.618 -1.5738 -2.0112 -0.0950
14151TIP3    H263869   2.948   5.453  16.746  0.6807  3.2867  1.3519
14152TIP3   OH263870   2.937   6.361   2.318  0.5795 -0.1344 -0.2631
14152TIP3    H163871   2.851   6.398   2.336  0.3588 -0.1838 -1.1997
14152TIP3    H263872   2.927   6.315   2.235  2.2094  2.2051 -1.8805
14153TIP3   OH263873   1.695   0.004  14.933 -0.1296 -0.5922  0.0815
14153TIP3    H163874   1.790  -0.005  14.946 -0.2179  0.6835  1.8152
14153TIP3    H263875   1.661  -0.084  14.949  0.7984 -1.2377 -1.2614
14154TIP3   OH263876   0.488   3.568   2.564  0.1910 -0.2161 -0.3743
14154TIP3    H163877   0.473   3.475   2.547  0.3027  0.0278 -2.0600
14154TIP3    H263878   0.406   3.599   2.603 -0.6121 -0.6412 -1.6542
14155TIP3   OH263879   5.620   0.409  15.932 -0.1579 -0.3350  0.6059
14155TIP3    H163880   5.615   0.450  15.845 -0.3078  0.1572  0.8392
14155TIP3    H263881   5.682   0.464  15.980  0.1001 -0.7440  0.7354
14156TIP3   OH263882   6.449   6.735  14.294  0.2754 -0.3406 -0.0807
14156TIP3    H163883   6.515   6.704  14.356  1.0748 -1.7785 -1.6019
14156TIP3    H263884   6.438   6.664  14.232 -0.8582  0.8724 -1.3452
14157TIP3   OH263885   0.825   3.101   0.419  0.0667  0.1228  0.5467
14157TIP3    H163886   0.811   3.163   0.348 -0.1414 -0.4219  0.0957
14157TIP3    H263887   0.894   3.139   0.473 -0.1639  0.8054  0.3630
14158TIP3   OH263888   3.916   5.222  10.735 -0.1548  0.4069  0.3616
14158TIP3    H163889   3.972   5.263  10.670 -0.5229  2.8581  1.4757
14158TIP3    H263890   3.975   5.170  10.789  0.2917 -0.8477 -1.2535
14159TIP3   OH263891   3.805   2.032   0.487 -0.1938 -0.4307 -0.5396
14159TIP3    H163892   3.841   2.019   0.399 -0.6970 -0.1909 -0.7808
14159TIP3    H263893   3.841   2.116   0.515  0.1534 -0.6155 -0.4172
14160TIP3   OH263894   4.290   0.111  15.477  0.1580  1.0120  0.2985
14160TIP3    H163895   4.348   0.037  15.458  0.1452  1.1799 -0.4309
14160TIP3    H263896   4.296   0.123  15.572 -1.1715 -1.0197  0.6983
14161TIP3   OH263897   0.419   5.109  13.523  0.4421  0.2754 -0.4366
14161TIP3    H163898   0.383   5.021  13.508 -3.3844  0.7585  3.7207
14161TIP3    H263899   0.496   5.095  13.578  1.4344 -0.4975 -1.9731
14162TIP3   OH263900   3.160   5.669  13.926 -0.3705  0.0493  0.4269
14162TIP3    H163901   3.115   5.680  13.842  0.2801 -2.1439 -0.2770
14162TIP3    H263902   3.179   5.575  13.931  2.1981  0.5508  1.6831
14163TIP3   OH263903   4.085   6.155   6.227  0.5667 -0.3051  0.3705
14163TIP3    H163904   4.113   6.230   6.174  0.9447  0.2723  1.3647
14163TIP3    H263905   4.118   6.174   6.315  1.1883 -1.9250  0.5241
14164TIP3   OH263906   2.409   4.414   4.751  0.1245  0.5240  0.2957
14164TIP3    H163907   2.401   4.409   4.655  1.0964  0.2379  0.2178
14164TIP3    H263908   2.503   4.426   4.766  0.0652 -0.1330  1.2457
14165TIP3   OH263909   1.065   2.246   1.189 -0.5552  0.2699 -0.4750
14165TIP3    H163910   1.096   2.157   1.208  1.0669  0.9383  0.1409
14165TIP3    H263911   1.113   2.302   1.249 -0.2726  1.7600 -2.0181
14166TIP3   OH263912   2.193   1.331  12.422  0.4434  0.4655 -0.2904
14166TIP3    H163913   2.258   1.366  12.361  1.9160 -1.5878 -0.0211
14166TIP3    H263914   2.136   1.276  12.367  0.9821 -0.3512 -0.0552
14167TIP3   OH263915   5.097   2.932   1.905 -0.0060  0.3472 -0.5024
14167TIP3    H163916   5.127   2.863   1.846  0.1175 -1.5171  1.6005
14167TIP3    H263917   5.004   2.915   1.917  0.2100 -0.1266  0.7633
14168TIP3   OH263918   5.382   3.343   0.828  0.2125  0.6247 -0.7495
14168TIP3    H163919   5.329   3.338   0.748 -2.3818 -2.5136  0.9289
14168TIP3    H263920   5.471   3.323   0.799 -0.6080 -0.2708 -2.9044
14169TIP3   OH263921   3.612   3.097   1.379  0.0191 -0.4326 -0.3951
14169TIP3    H163922   3.583   3.019   1.332  0.2337 -1.9887  1.8862
14169TIP3    H263923   3.707   3.096   1.371  0.0250 -0.4267 -0.3245
14170TIP3   OH263924   1.515   4.904   1.066  0.1509  0.8596 -0.4890
14170TIP3    H163925   1.584   4.898   1.131 -0.8522 -2.2383  0.4875
14170TIP3    H263926   1.497   4.813   1.042 -1.3128  1.7477 -3.1992
14171TIP3   OH263927   6.607   4.939   2.188  0.4975  0.1898  0.0880
14171TIP3    H163928   6.627   5.008   2.251  0.0339  2.5102 -2.1730
14171TIP3    H263929   6.689   4.927   2.139  0.6119 -1.0292  0.5257
14172TIP3   OH263930   4.211   0.535   0.677  0.7572  0.1547 -0.1438
14172TIP3    H163931   4.293   0.495   0.651  1.5634 -0.0511  2.4303
14172TIP3    H263932   4.236   0.602   0.741 -1.1323 -1.0519  2.0112
14173TIP3   OH263933   0.423   2.962  13.834  0.2221 -0.0339 -0.0069
14173TIP3    H163934   0.448   3.046  13.874  1.3253 -0.2252 -0.2608
14173TIP3    H263935   0.466   2.963  13.749 -0.9742 -0.2318 -0.6286
14174TIP3   OH263936   6.094   4.310  12.867 -0.0929 -0.1934 -0.5558
14174TIP3    H163937   6.038   4.370  12.917  1.1169  2.3032 -1.9839
14174TIP3    H263938   6.038   4.278  12.797  0.0466  2.0356 -1.7873
14175TIP3   OH263939   3.797   2.240  13.000  0.1210  0.2512  0.0907
14175TIP3    H163940   3.742   2.266  13.074 -0.6663  1.2327 -0.8123
14175TIP3    H263941   3.738   2.242  12.925  0.7198 -1.4616 -0.4753
14176TIP3   OH263942   6.108   3.349   3.603  0.5761  0.2000 -0.9623
14176TIP3    H163943   6.052   3.327   3.678  1.1376  1.1049 -0.2740
14176TIP3    H263944   6.136   3.439   3.619  2.2976 -0.2523 -1.2536
14177TIP3   OH263945   2.633   6.695  16.669 -0.4726  0.0826 -0.7322
14177TIP3    H163946   2.593   6.645  16.740 -1.6098 -1.1788 -2.2199
14177TIP3    H263947   2.592   6.781  16.674  0.7110  0.6135  1.1642
14178TIP3   OH263948   2.201   0.805  11.767  0.2688 -0.3098  0.2835
14178TIP3    H163949   2.147   0.860  11.824  0.1056  0.0273 -0.1845
14178TIP3    H263950   2.139   0.766  11.706  0.2682 -1.7108  1.1366
14179TIP3   OH263951   6.522   0.061   4.650 -0.1126  0.6858 -0.8610
14179TIP3    H163952   6.548  -0.030   4.659  1.2264  0.9531 -1.8091
14179TIP3    H263953   6.462   0.076   4.723  0.1879 -0.7547 -0.2944
14180TIP3   OH263954   4.379   0.205  16.005 -0.4328 -0.1170 -0.5070
14180TIP3    H163955   4.402   0.243  16.090 -1.4955  0.5047 -0.4771
14180TIP3    H263956   4.462   0.171  15.971  0.4506  1.6132 -0.2172
14181TIP3   OH263957   2.020   0.021   4.189 -0.3569 -0.1705  0.3973
14181TIP3    H163958   2.001   0.045   4.099  0.4218  2.1293  0.7741
14181TIP3    H263959   1.963  -0.054   4.207 -1.0494 -0.2165 -1.7549
14182TIP3   OH263960   0.633   5.330   3.712  0.1984  0.0401 -0.1112
14182TIP3    H163961   0.621   5.316   3.806 -0.1317 -1.1588 -0.3086
14182TIP3    H263962   0.552   5.372   3.683 -1.1633 -2.5364 -0.3793
14183TIP3   OH263963   2.485   4.797   3.856 -0.0196  0.0184  0.5192
14183TIP3    H163964   2.429   4.725   3.885  0.3168 -0.5114 -0.1222
14183TIP3    H263965   2.514   4.771   3.768  0.6931  0.6009  0.5726
14184TIP3   OH263966   2.315   2.786   4.103  0.1058  0.3361  0.2034
14184TIP3    H163967   2.355   2.706   4.069 -3.2994 -1.6002  0.2176
14184TIP3    H263968   2.222   2.764   4.112 -1.1470  4.4978 -0.3064
14185TIP3   OH263969   5.105   0.736  15.504  0.3307  0.0969 -0.0709
14185TIP3    H163970   5.040   0.673  15.535 -0.5792  0.7481 -0.5763
14185TIP3    H263971   5.137   0.779  15.583 -0.3384  0.2175  0.1381
14186TIP3   OH263972   6.459   6.022  12.592 -0.6004  0.2134  0.3736
14186TIP3    H163973   6.493   6.109  12.614  0.0495 -0.5812  2.8883
14186TIP3    H263974   6.374   6.018  12.636 -0.0343 -0.8487  1.4423
14187TIP3   OH263975   0.268   4.379  13.760  0.1204  0.2946 -0.0669
14187TIP3    H163976   0.282   4.329  13.840  0.6998 -0.3277 -0.5466
14187TIP3    H263977   0.229   4.316  13.699  1.0182  0.3601 -0.7326
14188TIP3   OH263978   5.199   1.673  13.048  0.3782  0.7869  0.1323
14188TIP3    H163979   5.291   1.655  13.027  0.7470  3.4021 -0.9975
14188TIP3    H263980   5.156   1.676  12.962 -1.0935 -1.6151  0.7120
14189TIP3   OH263981   6.705   3.909  15.799  0.5095 -0.6285  0.2700
14189TIP3    H163982   6.689   3.999  15.826  1.6583  0.1911 -1.6139
14189TIP3    H263983   6.782   3.914  15.742 -0.3214 -2.5819 -1.1248
14190TIP3   OH263984   5.188   3.066   5.500 -0.2904 -0.1428  0.2289
14190TIP3    H163985   5.257   3.045   5.437  0.9949 -0.8514  1.7903
14190TIP3    H263986   5.120   3.000   5.484  0.0223 -0.3147 -0.4025
14191TIP3   OH263987   4.668   3.872  17.310  0.0736  0.0069  0.6436
14191TIP3    H163988   4.611   3.796  17.317 -1.6994  1.1877 -0.1917
14191TIP3    H263989   4.609   3.947  17.317  1.0847  1.3156 -2.6865
14192TIP3   OH263990   0.717   3.331  15.228  0.1422 -0.1031  0.2992
14192TIP3    H163991   0.726   3.254  15.284 -0.8762  0.2762  1.0139
14192TIP3    H263992   0.631   3.366  15.249  0.0509  0.4960 -0.9624
14193TIP3   OH263993   0.030   3.117  11.303  0.5905  0.2835 -0.6147
14193TIP3    H163994   0.028   3.213  11.298 -0.3408  0.2262 -1.4948
14193TIP3    H263995   0.052   3.089  11.214 -1.6484 -0.3642 -1.0212
14194TIP3   OH263996   6.751   5.648  15.473  0.1019  0.2732  0.1345
14194TIP3    H163997   6.785   5.560  15.490 -0.2024 -0.7818 -3.7562
14194TIP3    H263998   6.825   5.695  15.436 -1.1250 -0.5294 -3.8321
14195TIP3   OH263999   6.720   4.637   4.726 -0.0709 -0.0956  0.0207
14195TIP3    H164000   6.679   4.688   4.657  2.5604  1.6749 -0.3785
14195TIP3    H264001   6.799   4.601   4.685  0.5002 -0.6674  1.5561
14196TIP3   OH264002   4.164   1.899  13.843 -0.0676 -0.3266 -0.2897
14196TIP3    H164003   4.189   1.812  13.815 -1.0077 -1.6350  2.5142
14196TIP3    H264004   4.068   1.896  13.850 -0.2405  1.3343 -1.2567
14197TIP3   OH264005   1.128   3.398   0.490 -0.4159  0.1434 -0.2273
14197TIP3    H164006   1.053   3.452   0.464 -0.9687 -0.9739 -1.0305
14197TIP3    H264007   1.203   3.440   0.448 -0.6556  0.9542  0.1333
14198TIP3   OH264008   0.552   0.209   4.526  0.5284 -0.2361  0.4377
14198TIP3    H164009   0.511   0.295   4.520 -0.1944 -0.5985  0.0783
14198TIP3    H264010   0.616   0.217   4.597  0.4575  0.5907  0.4105
14199TIP3   OH264011   5.423   0.860  16.167 -0.1802 -0.0180 -0.0993
14199TIP3    H164012   5.463   0.775  16.148  1.1877  0.3834  0.8006
14199TIP3    H264013   5.451   0.879  16.257  0.9645  2.1408 -0.8461
14200TIP3   OH264014   2.654   3.926   5.883 -0.0022 -0.0052  0.2799
14200TIP3    H164015   2.670   3.834   5.904  0.1091  0.4833  2.5956
14200TIP3    H264016   2.725   3.974   5.926  0.6791  1.1303 -1.9345
14201TIP3   OH264017   4.097   5.578  10.804  0.6140  0.4164 -0.7021
14201TIP3    H164018   4.026   5.627  10.761 -0.4703  1.2084  1.8053
14201TIP3    H264019   4.096   5.493  10.762 -2.1561  0.2550 -0.4962
14202TIP3   OH264020   4.952   4.324  11.590 -0.2786 -0.3831 -0.2436
14202TIP3    H164021   4.978   4.348  11.501 -1.7456 -2.1685 -1.2528
14202TIP3    H264022   5.033   4.327  11.641  0.8206 -0.3815 -1.9046
14203TIP3   OH264023   4.047   6.617  13.850  0.7601 -0.3076  0.7672
14203TIP3    H164024   4.095   6.610  13.932  1.0901 -0.4835  0.5583
14203TIP3    H264025   4.003   6.702  13.855  0.4905 -0.4766  1.2791
14204TIP3   OH264026   0.777   2.482   4.673  0.1667  0.2560  0.0171
14204TIP3    H164027   0.862   2.438   4.661  1.6935  2.3017  2.2880
14204TIP3    H264028   0.792   2.571   4.641 -0.8279  0.8909  1.2563
14205TIP3   OH264029   2.334   6.749   3.034 -0.0757 -0.4256  0.1144
14205TIP3    H164030   2.348   6.775   2.943 -1.8975  2.1190  0.4462
14205TIP3    H264031   2.269   6.812   3.067  1.7201 -0.1847  3.6615
14206TIP3   OH264032   1.357   1.271   0.146  0.6300 -0.1547  0.1238
14206TIP3    H164033   1.319   1.309   0.225  1.2327  0.4700  0.1318
14206TIP3    H264034   1.400   1.346   0.103 -0.7201 -0.2134 -1.4241
14207TIP3   OH264035   3.739   1.602  17.259 -0.2836 -0.7064  0.2187
14207TIP3    H164036   3.723   1.672  17.322 -0.1977  0.1225 -0.6607
14207TIP3    H264037   3.705   1.523  17.302 -0.7915 -0.0612  1.0387
14208TIP3   OH264038   0.897   1.562   2.999 -0.0174  0.3262  0.0386
14208TIP3    H164039   0.894   1.487   3.060  0.0659 -0.0009 -0.3561
14208TIP3    H264040   0.986   1.597   3.009 -0.3435  0.9577  0.9103
14209TIP3   OH264041   5.595   2.211   4.285  1.0444  0.4637 -0.7935
14209TIP3    H164042   5.656   2.248   4.350  0.0708 -0.9392  0.9915
14209TIP3    H264043   5.614   2.118   4.285 -0.7274  0.0715 -0.5730
14210TIP3   OH264044   0.381   0.953  14.483  1.0826  0.4784 -0.5099
14210TIP3    H164045   0.293   0.990  14.483 -0.1222 -1.7688  3.4734
14210TIP3    H264046   0.432   1.011  14.539  1.4854  0.5035 -0.8966
14211TIP3   OH264047   6.576   3.673  15.865  0.0101  0.2054 -0.4135
14211TIP3    H164048   6.557   3.666  15.959  2.1826 -0.8304  0.0062
14211TIP3    H264049   6.625   3.755  15.857 -0.0855  0.2405 -0.6331
14212TIP3   OH264050   3.407   5.815  13.523 -0.4711 -0.2949 -0.0201
14212TIP3    H164051   3.380   5.754  13.454 -1.1069  0.4376 -0.4347
14212TIP3    H264052   3.456   5.761  13.585  0.2881 -0.9335 -1.1424
14213TIP3   OH264053   3.438   2.452   2.176 -0.0268 -0.6656 -0.4703
14213TIP3    H164054   3.360   2.415   2.218 -0.6619 -0.5865 -1.5156
14213TIP3    H264055   3.421   2.546   2.171  1.2441 -0.2751  1.4789
14214TIP3   OH264056   5.758   2.987  13.245 -0.3439  0.2427 -0.0582
14214TIP3    H164057   5.763   3.083  13.251 -0.1202  0.3006 -0.9522
14214TIP3    H264058   5.725   2.970  13.156 -1.8793 -0.4884  0.6218
14215TIP3   OH264059   1.042   3.965  15.985 -0.0032 -0.4026 -0.1074
14215TIP3    H164060   1.120   3.936  16.032  0.6685  0.1099 -0.8899
14215TIP3    H264061   0.978   3.983  16.054  0.8681  0.0468  0.6042
14216TIP3   OH264062   3.029   3.265  17.084 -0.0725  0.2634  0.1284
14216TIP3    H164063   3.052   3.211  17.008 -0.9254 -1.4888  1.0446
14216TIP3    H264064   3.111   3.307  17.109  0.3165  0.5581 -1.4872
14217TIP3   OH264065   0.258   5.722   1.803  0.5995 -0.1974 -0.0924
14217TIP3    H164066   0.272   5.797   1.860  1.4906  1.4335 -2.2970
14217TIP3    H264067   0.344   5.680   1.796  0.1929 -1.2393  0.8106
14218TIP3   OH264068   1.540   5.220  15.409 -0.0253  0.0495  0.2819
14218TIP3    H164069   1.497   5.144  15.369  0.5220 -2.4886  3.9439
14218TIP3    H264070   1.474   5.289  15.407 -2.1231 -1.8151  0.3489
14219TIP3   OH264071   1.043   6.077  11.871  0.0527 -0.6986  0.2377
14219TIP3    H164072   1.009   6.110  11.954  2.1903  0.7341  0.6321
14219TIP3    H264073   0.968   6.076  11.812 -2.1516 -4.0212  2.6824
14220TIP3   OH264074   2.572   4.971  16.069  0.0209 -0.3161 -0.3975
14220TIP3    H164075   2.660   4.935  16.058  1.4336  2.5978  0.3071
14220TIP3    H264076   2.584   5.066  16.064 -3.1289  0.1984 -0.4143
14221TIP3   OH264077   3.017   3.156   0.207  0.3627  0.7369 -0.0759
14221TIP3    H164078   2.985   3.212   0.136 -1.0502  0.3485  0.2187
14221TIP3    H264079   2.949   3.163   0.274  0.7334 -0.4116  0.4325
14222TIP3   OH264080   0.058   4.926  15.284  0.3224 -0.0031 -0.1130
14222TIP3    H164081   0.150   4.902  15.270  0.8877 -0.1904  3.1537
14222TIP3    H264082   0.026   4.862  15.347 -1.2395  1.6685  0.8696
14223TIP3   OH264083   0.578   1.047   6.009  0.0084  0.1803  0.1850
14223TIP3    H164084   0.539   0.985   5.947 -0.4069 -0.1852  0.8109
14223TIP3    H264085   0.600   0.995   6.086 -1.4552  0.9949  1.2039
14224TIP3   OH264086   0.177   6.498   5.530  0.2586 -0.3723  0.1835
14224TIP3    H164087   0.231   6.558   5.480 -0.2041 -0.0530  0.0575
14224TIP3    H264088   0.135   6.552   5.596 -0.8483 -0.3724 -0.4837
14225TIP3   OH264089   6.697   6.710  16.375  0.6997 -0.2069  0.0760
14225TIP3    H164090   6.688   6.792  16.328  1.4460  1.5261  2.7130
14225TIP3    H264091   6.786   6.680  16.355  1.9822  1.8484  2.1261
14226TIP3   OH264092   4.297   0.050  10.932  0.5732 -0.1122 -0.3545
14226TIP3    H164093   4.389   0.041  10.958  0.4444  1.1328  0.6392
14226TIP3    H264094   4.250  -0.003  10.997  0.3252  2.2931  1.5805
14227TIP3   OH264095   4.649   0.963  14.536 -0.3504  0.1662  0.0544
14227TIP3    H164096   4.649   0.869  14.553  0.3899  0.1147 -0.1685
14227TIP3    H264097   4.710   0.999  14.600 -0.2998  0.4366 -0.1407
14228TIP3   OH264098   0.516   1.593   5.834 -0.2039  0.5510  0.7769
14228TIP3    H164099   0.504   1.682   5.799  0.7603  0.2288 -0.4442
14228TIP3    H264100   0.610   1.575   5.822 -0.0521 -0.0273  2.5232
14229TIP3   OH264101   3.949   6.271   1.744 -0.3183  0.0095  0.5433
14229TIP3    H164102   3.924   6.356   1.708  1.8198  0.9773  1.1387
14229TIP3    H264103   3.867   6.225   1.758 -1.4841  1.6133 -0.6647
14230TIP3   OH264104   5.948   3.572   0.908  0.1232  0.5503  0.3013
14230TIP3    H164105   5.960   3.661   0.876  1.2380  0.3713  0.1766
14230TIP3    H264106   6.037   3.539   0.922 -0.1961 -0.9675 -0.8596
14231TIP3   OH264107   0.614   4.021   3.548  0.4053  0.8560  0.6200
14231TIP3    H164108   0.559   3.960   3.500  0.5538  1.8701 -0.9145
14231TIP3    H264109   0.579   4.108   3.526  1.2037  1.4061  1.4414
14232TIP3   OH264110   1.149   6.753   3.492 -0.6186  0.1613 -0.0721
14232TIP3    H164111   1.126   6.670   3.534 -0.6357  0.3748  0.3492
14232TIP3    H264112   1.238   6.770   3.522 -0.8091  0.5620  0.2845
14233TIP3   OH264113   5.533   6.302   2.451  0.9027 -0.2863 -0.3928
14233TIP3    H164114   5.566   6.352   2.526 -1.3709  0.2448  0.3169
14233TIP3    H264115   5.521   6.213   2.485 -1.9660  0.3590  0.5663
14234TIP3   OH264116   6.347   5.271   2.377 -0.2606 -0.4099  0.1480
14234TIP3    H164117   6.317   5.336   2.440 -2.5180 -0.8765 -0.3498
14234TIP3    H264118   6.427   5.236   2.414 -0.9674  0.0594  2.2300
14235TIP3   OH264119   3.383   5.698   1.748  0.2760 -0.3839  0.1065
14235TIP3    H164120   3.320   5.691   1.820 -1.3525 -2.4886 -1.3943
14235TIP3    H264121   3.330   5.718   1.671  1.3989 -2.0605 -1.1817
14236TIP3   OH264122   3.188   5.718  16.101  0.2668  0.3451 -0.6561
14236TIP3    H164123   3.252   5.789  16.094  0.5267  0.1843  0.0260
14236TIP3    H264124   3.231   5.653  16.157  0.1015 -0.4284 -1.3974
14237TIP3   OH264125   5.707   4.174   5.176 -0.4635 -0.4559 -0.3775
14237TIP3    H164126   5.784   4.121   5.192  0.0467  0.2866 -0.3106
14237TIP3    H264127   5.639   4.112   5.149 -0.4396 -1.3781  1.5316
14238TIP3   OH264128   5.177   2.803   1.299 -0.3417 -0.4039  0.2886
14238TIP3    H164129   5.220   2.758   1.372  0.0213  2.4114  1.9725
14238TIP3    H264130   5.234   2.878   1.281 -1.9180  0.5534 -0.9682
14239TIP3   OH264131   0.297   6.391   0.076  0.4491 -0.1265 -0.0972
14239TIP3    H164132   0.213   6.427   0.104 -0.7496  0.2336 -3.5921
14239TIP3    H264133   0.281   6.296   0.069  0.0560  0.0107 -1.3695
14240TIP3   OH264134   3.059   0.856   2.941 -0.1307 -0.5061  0.6279
14240TIP3    H164135   3.075   0.809   3.023 -0.6704 -0.6095  0.6829
14240TIP3    H264136   2.985   0.913   2.961 -1.5706 -1.9533 -0.3088
14241TIP3   OH264137   5.053   5.794   2.595  0.0207 -0.4967  0.3617
14241TIP3    H164138   4.976   5.740   2.580 -0.6123  0.7363 -0.9994
14241TIP3    H264139   5.119   5.759   2.535 -0.5002  0.4177 -0.7771
14242TIP3   OH264140   1.555   5.024  11.469 -0.1361 -0.0067 -0.0250
14242TIP3    H164141   1.578   5.081  11.395 -0.1011  2.9456  2.0663
14242TIP3    H264142   1.618   5.049  11.538 -2.0161 -0.4268  1.9391
14243TIP3   OH264143   2.417   0.104  12.884 -0.2411 -0.4153 -0.7874
14243TIP3    H164144   2.428   0.129  12.792  0.1610  0.4498 -0.5155
14243TIP3    H264145   2.468   0.023  12.893 -0.0761 -0.3702 -1.2713
14244TIP3   OH264146   4.723   5.161   3.084  0.0095  0.7536  0.2993
14244TIP3    H164147   4.777   5.081   3.084  0.4419  1.0370  1.5105
14244TIP3    H264148   4.768   5.220   3.143 -1.6972  0.9640  1.4338
14245TIP3   OH264149   6.590   6.339   1.203  0.2205 -0.2083 -0.4723
14245TIP3    H164150   6.498   6.364   1.192 -0.0923 -1.6845 -1.6148
14245TIP3    H264151   6.588   6.243   1.211  1.8769 -0.8049 -4.6679
14246TIP3   OH264152   1.423   3.270  14.303 -0.0564 -0.3936  0.2530
14246TIP3    H164153   1.509   3.286  14.343 -0.9099  1.7839  1.4009
14246TIP3    H264154   1.433   3.298  14.213 -0.0005  1.7608  0.8680
14247TIP3   OH264155   6.041   6.270  14.687  0.4846  0.1288 -0.2720
14247TIP3    H164156   5.983   6.211  14.638  1.2812  1.5076 -3.0588
14247TIP3    H264157   5.986   6.345  14.709 -0.2114 -1.0236  2.2255
14248TIP3   OH264158   2.665   1.036  11.556 -0.2981  0.1064  0.7175
14248TIP3    H164159   2.646   0.999  11.643 -0.9884  0.5618  0.7774
14248TIP3    H264160   2.579   1.044  11.515  0.2036 -2.4352 -1.0224
14249TIP3   OH264161   2.916   3.307   5.594 -0.0405  0.4433  0.0207
14249TIP3    H164162   2.851   3.361   5.639 -1.2354  0.3683 -1.5252
14249TIP3    H264163   2.919   3.226   5.645 -1.2545  0.4121  0.0770
14250TIP3   OH264164   3.544   0.212  15.940 -0.3721  0.2682  0.1137
14250TIP3    H164165   3.574   0.297  15.974 -1.8768 -0.0041  2.3320
14250TIP3    H264166   3.611   0.187  15.876  2.0223  1.4388  2.0009
14251TIP3   OH264167   5.543   1.487  17.286 -0.0654  0.3636  0.4695
14251TIP3    H164168   5.484   1.526  17.350 -1.0559 -1.5643  0.8108
14251TIP3    H264169   5.554   1.396  17.315  2.0278  0.3171 -0.3327
14252TIP3   OH264170   3.878   1.589  13.677 -0.0574 -0.3455 -0.1326
14252TIP3    H164171   3.875   1.517  13.741  2.2644 -1.3357 -1.0567
14252TIP3    H264172   3.787   1.597  13.647 -0.5996 -2.0703  0.8847
14253TIP3   OH264173   0.942   3.374   4.566 -0.1377 -0.4688 -0.5089
14253TIP3    H164174   0.991   3.431   4.626  2.4523 -1.6742 -1.3673
14253TIP3    H264175   0.862   3.424   4.548 -0.5498  0.4457  2.9853
14254TIP3   OH264176   0.656   6.227   2.088 -0.1038  0.0909  0.4932
14254TIP3    H164177   0.657   6.321   2.071 -1.0706 -0.0316 -0.2903
14254TIP3    H264178   0.624   6.188   2.007 -0.4769 -0.8564  1.0815
14255TIP3   OH264179   6.274   5.600   2.338 -0.3963 -0.0049 -0.6306
14255TIP3    H164180   6.366   5.612   2.317 -0.7088  1.1301 -1.4620
14255TIP3    H264181   6.242   5.540   2.269 -0.0711 -1.2465  0.2658
14256TIP3   OH264182   1.239   2.567   2.637  0.1183  0.3205 -0.1023
14256TIP3    H164183   1.149   2.597   2.629  0.2797  0.5311 -1.1725
14256TIP3    H264184   1.259   2.579   2.730 -1.6796 -1.8691  0.6462
14257TIP3   OH264185   4.944   3.114   4.120 -0.7540 -0.2700 -0.1950
14257TIP3    H164186   4.849   3.128   4.122 -0.4390  2.5039  0.3800
14257TIP3    H264187   4.962   3.062   4.198 -1.7613 -0.4112 -0.0396
14258TIP3   OH264188   3.039   2.483  11.550 -0.0005 -0.0314  0.0107
14258TIP3    H164189   3.088   2.532  11.616 -1.8787  0.1040  1.3923
14258TIP3    H264190   3.071   2.517  11.466  0.5546  1.7549  0.8964
14259TIP3   OH264191   0.415   4.468  12.639 -0.2900 -0.2992  0.4513
14259TIP3    H164192   0.499   4.458  12.594 -0.0114 -0.3276  0.9682
14259TIP3    H264193   0.398   4.381  12.677 -0.0527 -0.0254  1.2005
14260TIP3   OH264194   2.496   1.036  15.912  0.3204 -0.3449  0.2886
14260TIP3    H164195   2.451   1.020  15.830  1.8302  0.2895 -0.7066
14260TIP3    H264196   2.463   0.969  15.972 -0.9192 -0.7087 -0.7759
14261TIP3   OH264197   1.155   6.559  14.323 -0.1388  0.0543  0.5860
14261TIP3    H164198   1.152   6.564  14.418 -0.4946 -0.5167  0.6137
14261TIP3    H264199   1.181   6.647  14.294 -0.1161  0.2517  1.2024
14262TIP3   OH264200   5.061   6.156  12.105 -0.1122 -0.8884  0.0060
14262TIP3    H164201   5.042   6.111  12.023  0.6378 -1.2122  0.0050
14262TIP3    H264202   4.976   6.163  12.149 -0.6888  0.1181 -1.2014
14263TIP3   OH264203   4.324   6.582  14.362  0.2993 -0.0753  0.0092
14263TIP3    H164204   4.418   6.575  14.344  0.5266  1.0192  0.6630
14263TIP3    H264205   4.296   6.492  14.377  0.8430 -0.6431 -2.0436
14264TIP3   OH264206   5.003   0.977  17.046 -0.2113 -0.4892  0.3180
14264TIP3    H164207   5.075   0.930  17.005  0.3015 -1.2578  2.0245
14264TIP3    H264208   4.986   0.930  17.128  1.4653  3.1296  3.0163
14265TIP3   OH264209   3.151   3.974  12.430  0.0732  0.4456  0.1976
14265TIP3    H164210   3.179   3.884  12.446  0.8865  0.5484 -0.5912
14265TIP3    H264211   3.086   3.967  12.361 -3.5799 -0.0188  3.3127
14266TIP3   OH264212   4.656   1.205   5.299 -0.8031 -0.3049  0.2644
14266TIP3    H164213   4.696   1.186   5.384 -0.4632  1.8670  0.6306
14266TIP3    H264214   4.717   1.266   5.257 -1.8166 -0.0031 -0.8158
14267TIP3   OH264215   4.776   1.456   2.447  0.0422  0.5027 -0.5439
14267TIP3    H164216   4.785   1.497   2.361 -0.1894 -0.0588 -0.8382
14267TIP3    H264217   4.698   1.402   2.440 -0.9266  1.6975  0.5330
14268TIP3   OH264218   5.724   5.555   3.766  0.0351 -0.0857 -0.4104
14268TIP3    H164219   5.640   5.554   3.719  0.6428  0.3980 -1.5645
14268TIP3    H264220   5.722   5.635   3.818  0.3706  0.7617 -1.6360
14269TIP3   OH264221   4.345   6.210  13.805 -0.3068  1.0068  0.2168
14269TIP3    H164222   4.304   6.264  13.737  1.0923  0.3812 -1.1723
14269TIP3    H264223   4.414   6.161  13.760 -1.0388 -1.4490  1.5383
14270TIP3   OH264224   4.849   6.490  17.252 -0.4325  0.3810 -0.1237
14270TIP3    H164225   4.768   6.485  17.302 -1.2120  0.9454 -1.2719
14270TIP3    H264226   4.823   6.463  17.163  0.9574 -0.9110 -0.1768
14271TIP3   OH264227   4.375   2.401  10.997 -0.6433 -0.0212  0.5583
14271TIP3    H164228   4.461   2.442  11.009 -0.3491 -0.4063 -0.1727
14271TIP3    H264229   4.371   2.381  10.904 -1.0953 -0.9840  0.7746
14272TIP3   OH264230   3.143   2.244   2.760  0.3599  0.5779  0.4157
14272TIP3    H164231   3.233   2.278   2.756  0.4298  0.6166  1.8978
14272TIP3    H264232   3.095   2.309   2.811 -0.0242 -0.4413  1.3859
14273TIP3   OH264233   3.902   3.557  13.487  0.3824 -0.1197 -0.0752
14273TIP3    H164234   3.978   3.577  13.431  0.6733 -0.0857  0.3262
14273TIP3    H264235   3.913   3.615  13.563  0.5026 -0.8359  0.4604
14274TIP3   OH264236   6.433   1.009  12.452 -0.5374 -0.1353 -0.2496
14274TIP3    H164237   6.527   1.021  12.455 -0.5139  0.5867 -2.1974
14274TIP3    H264238   6.414   0.992  12.360 -2.2917 -0.4834  0.1363
14275TIP3   OH264239   0.209   2.748  16.829  0.4323 -0.7211 -0.6148
14275TIP3    H164240   0.212   2.803  16.751 -1.2957 -1.4154 -1.2140
14275TIP3    H264241   0.194   2.660  16.796  0.3022 -1.1213  0.4805
14276TIP3   OH264242   0.322   3.369   5.240  0.2151 -0.4142  0.3193
14276TIP3    H164243   0.330   3.398   5.331  0.3277 -0.9416  0.4814
14276TIP3    H264244   0.339   3.275   5.244 -2.5825 -1.0313  0.2125
14277TIP3   OH264245   1.606   1.857   5.771 -0.2885  0.4032 -0.2488
14277TIP3    H164246   1.645   1.849   5.684  0.9047  0.4849  0.2700
14277TIP3    H264247   1.605   1.951   5.789 -0.4664  0.3811 -0.1347
14278TIP3   OH264248   5.330   2.192  14.236 -0.2279  0.3284  0.2608
14278TIP3    H164249   5.346   2.239  14.318  1.3891 -1.0832  0.8233
14278TIP3    H264250   5.355   2.254  14.168  1.0486  0.6065  0.9497
14279TIP3   OH264251   0.135   1.234  11.017  0.1085 -0.8458 -0.3453
14279TIP3    H164252   0.205   1.180  11.052  2.1506  1.8684  0.1414
14279TIP3    H264253   0.135   1.216  10.923  1.3912 -1.0034 -0.3356
14280TIP3   OH264254   5.075   1.529  11.600 -0.0504 -0.4025 -0.4636
14280TIP3    H164255   5.042   1.502  11.515 -2.5335 -0.1394  0.3287
14280TIP3    H264256   5.057   1.623  11.604 -0.0608 -0.4311  0.3568
14281TIP3   OH264257   5.281   6.706  17.144 -0.2245 -0.5491 -0.1714
14281TIP3    H164258   5.312   6.718  17.234  0.1443  0.0112 -0.3686
14281TIP3    H264259   5.224   6.629  17.149 -1.5358  0.4233  0.8701
14282TIP3   OH264260   1.501   6.119  13.381  0.6810  0.5946  0.5313
14282TIP3    H164261   1.594   6.113  13.360  0.2017  1.1605 -2.2746
14282TIP3    H264262   1.490   6.207  13.418  0.9458  1.7098 -1.7984
14283TIP3   OH264263   1.376   4.463  11.658  0.4146  0.0661 -0.2091
14283TIP3    H164264   1.323   4.468  11.578 -0.5720 -1.8220  0.2445
14283TIP3    H264265   1.341   4.386  11.704 -1.0077  2.5868  3.4334
14284TIP3   OH264266   5.205   2.753   2.093 -0.0433 -0.3083 -0.0975
14284TIP3    H164267   5.209   2.836   2.046  0.7412  0.6972  1.6386
14284TIP3    H264268   5.293   2.717   2.086  0.5575  0.6219  1.8020
14285TIP3   OH264269   5.443   3.776  13.580 -0.6939  0.7076  0.3305
14285TIP3    H164270   5.468   3.780  13.672 -1.2110 -0.4094  0.5296
14285TIP3    H264271   5.516   3.731  13.538 -0.0247  2.0276  0.0082
14286TIP3   OH264272   1.849   0.982   6.537  0.3223  0.4237  0.1135
14286TIP3    H164273   1.844   0.894   6.574  0.5992  0.2018 -0.3667
14286TIP3    H264274   1.771   0.989   6.482 -1.0306  1.3711  1.9996
14287TIP3   OH264275   5.464   1.249   0.381 -0.4257 -0.5544 -0.1727
14287TIP3    H164276   5.442   1.333   0.421 -0.2664 -1.2221  1.3648
14287TIP3    H264277   5.419   1.184   0.434 -0.6382 -1.4603 -1.4097
14288TIP3   OH264278   4.900   1.096  15.019  0.2849  0.3452 -0.3959
14288TIP3    H164279   4.932   1.150  14.947  0.6922  2.9548  1.6027
14288TIP3    H264280   4.979   1.066  15.064  0.0196  0.7344  0.3419
14289TIP3   OH264281   3.205   6.293   1.047  0.2269  0.1492 -0.0165
14289TIP3    H164282   3.138   6.301   0.979 -1.1416 -2.0476  0.9928
14289TIP3    H264283   3.156   6.281   1.128  1.8367 -0.3402  0.9186
14290TIP3   OH264284   5.147   5.465  13.394 -0.0345  0.0040 -0.7281
14290TIP3    H164285   5.195   5.495  13.317 -0.3645  2.4832 -0.0638
14290TIP3    H264286   5.089   5.538  13.417 -1.4079 -1.4234  0.7158
14291TIP3   OH264287   6.249   4.082  15.206 -0.6063 -0.8842  0.0488
14291TIP3    H164288   6.288   4.020  15.268 -0.3738 -0.8034 -0.0156
14291TIP3    H264289   6.192   4.028  15.151  0.4622 -1.2450 -0.7434
14292TIP3   OH264290   0.338   6.162   2.276 -0.2673  0.2235  0.0633
14292TIP3    H164291   0.342   6.229   2.208  0.2783 -0.3397 -0.4717
14292TIP3    H264292   0.403   6.190   2.341  1.4759 -0.8302 -1.1525
14293TIP3   OH264293   6.044   5.748  11.500 -0.4639  0.1708 -0.3737
14293TIP3    H164294   6.074   5.713  11.584  2.0204 -0.5393 -1.4771
14293TIP3    H264295   5.977   5.686  11.471 -1.0665  0.2080  0.8688
14294TIP3   OH264296   1.096   6.079  15.837  0.0296 -0.5444  0.2991
14294TIP3    H164297   1.005   6.098  15.816  0.1723 -0.7977 -0.6221
14294TIP3    H264298   1.115   6.132  15.915 -0.4352  0.7932 -0.4589
14295TIP3   OH264299   1.805   6.547   4.921 -0.2338  0.4144 -1.3431
14295TIP3    H164300   1.821   6.611   4.851  1.8798  0.4347 -0.8903
14295TIP3    H264301   1.856   6.470   4.895  0.2949  0.2986  0.0071
14296TIP3   OH264302   5.435   1.248  17.124  0.5967  0.4671  0.3885
14296TIP3    H164303   5.442   1.199  17.207  1.4243  0.8917  0.5772
14296TIP3    H264304   5.378   1.322  17.145 -1.6274 -0.9819 -0.1933
14297TIP3   OH264305   3.642   1.572  14.975 -0.3295  0.2657  0.6484
14297TIP3    H164306   3.676   1.486  14.953 -0.5513  0.3239  0.0748
14297TIP3    H264307   3.664   1.584  15.068  0.6460  0.0455  0.4503
14298TIP3   OH264308   2.134   5.600  17.122 -0.4203 -0.3436  0.1669
14298TIP3    H164309   2.180   5.516  17.116  0.2025  0.0566 -0.7266
14298TIP3    H264310   2.043   5.578  17.104  0.1238 -0.4554 -3.0730
14299TIP3   OH264311   1.648   5.090   4.348 -0.3263  0.2934  0.5447
14299TIP3    H164312   1.711   5.019   4.363 -1.1032 -0.2770  1.2003
14299TIP3    H264313   1.577   5.049   4.299  0.1697  1.1326 -0.9293
14300TIP3   OH264314   4.715   0.146  13.117  0.1842  0.2470  0.1403
14300TIP3    H164315   4.649   0.177  13.055  0.0072 -0.9125 -0.2820
14300TIP3    H264316   4.796   0.146  13.066  0.7911  2.6862  0.9539
14301TIP3   OH264317   2.365   0.206   3.595  0.6507 -0.3462 -0.2055
14301TIP3    H164318   2.273   0.230   3.608  0.4747 -0.3181 -1.4266
14301TIP3    H264319   2.411   0.254   3.664  0.1022  2.2171 -1.4882
14302TIP3   OH264320   4.250   5.878  12.102 -0.0186  0.2174 -0.2481
14302TIP3    H164321   4.331   5.917  12.135  0.4209 -0.1272 -0.8718
14302TIP3    H264322   4.224   5.934  12.029 -1.8230  1.8627  1.5422
14303TIP3   OH264323   0.763   0.336  15.680  0.0677  0.2445  0.3033
14303TIP3    H164324   0.790   0.350  15.589 -0.9777  0.1381 -0.0408
14303TIP3    H264325   0.668   0.344  15.678  0.1056  1.4059  1.6087
14304TIP3   OH264326   4.731   4.983  16.671  0.5920  0.4119 -0.3152
14304TIP3    H164327   4.723   4.894  16.638  0.5195  0.6630 -0.9892
14304TIP3    H264328   4.675   4.985  16.749 -0.9343  0.3822 -1.3716
14305TIP3   OH264329   4.672   4.186  14.278 -1.5898  0.1729  0.7140
14305TIP3    H164330   4.639   4.268  14.316  0.3329  0.9614  0.7683
14305TIP3    H264331   4.764   4.182  14.304 -1.7336 -2.2228  1.0204
14306TIP3   OH264332   0.808   4.556   0.271  0.5145  0.2102  0.4600
14306TIP3    H164333   0.805   4.606   0.353  1.5178  0.7896  0.1535
14306TIP3    H264334   0.895   4.518   0.270  0.1930 -0.5179  0.0734
14307TIP3   OH264335   2.696   4.662   3.168 -0.0712 -0.4875  0.5486
14307TIP3    H164336   2.656   4.597   3.226  0.3060 -0.6897  0.5799
14307TIP3    H264337   2.665   4.746   3.202 -0.5238 -0.6431  0.5335
14308TIP3   OH264338   5.179   2.219  15.077  0.4083 -0.5043 -0.8741
14308TIP3    H164339   5.140   2.246  14.994  1.8412  0.8145 -1.1751
14308TIP3    H264340   5.127   2.263  15.144 -1.0939 -2.0031 -0.9949
14309TIP3   OH264341   0.392   1.404   0.045 -0.8474 -0.3502 -0.4136
14309TIP3    H164342   0.378   1.448   0.129  1.9017 -0.7798  0.3600
14309TIP3    H264343   0.413   1.313   0.069 -2.0508 -1.0049 -1.7219
14310TIP3   OH264344   0.215   0.932   3.620  0.1177  0.0921 -0.7273
14310TIP3    H164345   0.207   0.843   3.586 -0.0334  0.2557 -1.1239
14310TIP3    H264346   0.149   0.983   3.572 -0.3862  0.2464  0.1004
14311TIP3   OH264347   5.319   2.069   1.410 -0.1541  0.0452 -0.1829
14311TIP3    H164348   5.246   2.128   1.427  0.8806  1.0455  1.0174
14311TIP3    H264349   5.355   2.098   1.326  0.1500  0.9528  0.2451
14312TIP3   OH264350   5.207   6.539   1.157 -0.2871  0.2859  0.0906
14312TIP3    H164351   5.283   6.593   1.133 -0.0141 -0.3458 -0.5107
14312TIP3    H264352   5.233   6.495   1.237 -0.8202  1.6469  1.0484
14313TIP3   OH264353   0.312   0.571   6.531 -0.4379  0.0235 -0.4154
14313TIP3    H164354   0.379   0.513   6.568  0.6869  0.3722 -1.8101
14313TIP3    H264355   0.360   0.627   6.470 -1.8016  1.2009 -0.4566
14314TIP3   OH264356   0.590   3.765  16.602 -0.3310  0.5533 -0.2252
14314TIP3    H164357   0.596   3.720  16.686  0.2321  1.7405  0.4003
14314TIP3    H264358   0.504   3.806  16.602 -1.7719 -2.1876 -1.7230
14315TIP3   OH264359   1.073   5.966   2.287  0.3400 -0.2267  0.0164
14315TIP3    H164360   0.989   5.923   2.307 -0.4433  1.5581  0.7688
14315TIP3    H264361   1.055   6.017   2.208  0.4987  0.7421  0.5991
14316TIP3   OH264362   4.675   1.813  11.502 -0.1224  0.0427 -0.3963
14316TIP3    H164363   4.608   1.757  11.540 -0.0124 -0.2132 -0.5739
14316TIP3    H264364   4.658   1.810  11.407 -0.6612  1.0103 -0.3521
14317TIP3   OH264365   5.400   0.221   3.792 -0.6426  0.1326 -0.7561
14317TIP3    H164366   5.385   0.127   3.791 -1.8264  0.2960 -0.4940
14317TIP3    H264367   5.423   0.241   3.883  0.2566  0.0109 -0.9540
14318TIP3   OH264368   4.128   5.414  12.745  0.0288 -0.0958  0.2215
14318TIP3    H164369   4.175   5.457  12.817 -0.3378  0.2503  0.2548
14318TIP3    H264370   4.060   5.363  12.788 -0.4486  0.4311  0.1020
14319TIP3   OH264371   0.581   1.859   0.550 -0.1296 -0.5375  0.0900
14319TIP3    H164372   0.644   1.930   0.541  0.2582 -1.0279 -1.3520
14319TIP3    H264373   0.510   1.897   0.602  1.3710 -0.0248  1.8503
14320TIP3   OH264374   4.477   6.566   5.004  0.2387 -0.8040  0.4794
14320TIP3    H164375   4.452   6.517   4.926 -0.1025 -1.1634  0.8146
14320TIP3    H264376   4.399   6.566   5.059 -0.0656  0.8523  0.1219
14321TIP3   OH264377   0.749   1.844  17.064 -0.5154 -0.0263 -0.0897
14321TIP3    H164378   0.707   1.832  16.979  0.8637  1.5133 -1.0560
14321TIP3    H264379   0.709   1.923  17.100  0.3896  0.5681 -0.3298
14322TIP3   OH264380   4.588   5.960  14.752 -0.3360  0.2397  0.4967
14322TIP3    H164381   4.654   5.938  14.686 -0.1101  0.1824  0.7391
14322TIP3    H264382   4.637   5.966  14.834 -0.4126  1.5021  0.4681
14323TIP3   OH264383   6.573   1.506  16.954 -0.0222  0.6648  0.2043
14323TIP3    H164384   6.656   1.461  16.936 -0.3508 -0.0570  0.4869
14323TIP3    H264385   6.581   1.589  16.906  1.3911  1.1705  1.2405
14324TIP3   OH264386   3.399   2.604   1.232  0.1746 -0.0906 -0.4057
14324TIP3    H164387   3.455   2.539   1.274 -1.0262 -0.6184  0.4470
14324TIP3    H264388   3.452   2.640   1.161  0.6965 -2.3779 -1.2481
14325TIP3   OH264389   0.770   6.646  12.718 -0.1368 -0.9300 -0.0288
14325TIP3    H164390   0.736   6.730  12.690 -0.3092 -1.6703 -2.2578
14325TIP3    H264391   0.822   6.615  12.643  1.3233 -2.0567  1.3732
14326TIP3   OH264392   5.086   2.392  15.260 -0.4929 -0.7962  0.5800
14326TIP3    H164393   5.125   2.474  15.290  0.2323 -0.7563 -0.4590
14326TIP3    H264394   5.012   2.419  15.206  0.1432 -0.8005 -0.3092
14327TIP3   OH264395   6.287   5.431   1.956  0.9409 -0.1251 -0.2525
14327TIP3    H164396   6.271   5.370   1.883  2.0736 -0.0462 -0.5762
14327TIP3    H264397   6.340   5.381   2.018 -0.7143 -0.4845  0.9640
14328TIP3   OH264398   1.245   0.403  13.352  0.7287  0.3560 -0.0462
14328TIP3    H164399   1.206   0.316  13.357 -0.0423  0.4800 -2.4319
14328TIP3    H264400   1.199   0.454  13.418 -0.4733 -0.4956 -0.1918
14329TIP3   OH264401   0.731   1.502   3.770  0.0208 -0.4371  0.1184
14329TIP3    H164402   0.664   1.560   3.807  0.2936 -2.0699  3.5421
14329TIP3    H264403   0.684   1.449   3.705 -1.5720 -0.2197  1.0366
14330TIP3   OH264404   1.668   3.437  12.097  0.1133 -0.0085 -0.1462
14330TIP3    H164405   1.608   3.368  12.125  0.2891  0.9928  3.1454
14330TIP3    H264406   1.633   3.516  12.137  2.7588  0.8700  0.6345
14331TIP3   OH264407   4.409   3.627  12.074  0.1707 -0.5176 -0.0427
14331TIP3    H164408   4.503   3.644  12.075  0.3936 -1.2517  3.0358
14331TIP3    H264409   4.402   3.532  12.075 -0.6709 -0.4906 -1.0554
14332TIP3   OH264410   6.063   0.044  12.355  0.6774 -0.8605  0.2948
14332TIP3    H164411   6.092   0.103  12.285  1.6714 -0.9367  0.6272
14332TIP3    H264412   6.023   0.102  12.420 -3.2757 -1.0089 -1.6527
14333TIP3   OH264413   4.222   4.533  15.643  0.4841 -1.1133 -0.5781
14333TIP3    H164414   4.276   4.545  15.565  0.0691 -1.0234 -0.8535
14333TIP3    H264415   4.284   4.538  15.716  0.7206 -0.0341 -0.8348
14334TIP3   OH264416   3.756   5.083   6.161 -0.1214  0.1496  0.6463
14334TIP3    H164417   3.704   5.035   6.226  1.9992 -1.9771  0.9141
14334TIP3    H264418   3.842   5.092   6.202  0.6849  0.6342 -1.0719
14335TIP3   OH264419   2.081   3.498  14.536 -0.0636 -0.2119 -0.5091
14335TIP3    H164420   2.169   3.463  14.524  0.3164 -0.1679  1.6127
14335TIP3    H264421   2.092   3.593  14.534  0.3986 -0.1379  1.8585
14336TIP3   OH264422   1.470   0.660  14.767  0.0263 -0.4870 -0.4598
14336TIP3    H164423   1.484   0.592  14.833  1.7949  0.5679  0.3399
14336TIP3    H264424   1.551   0.660  14.716  0.4834  1.6377  0.1825
14337TIP3   OH264425   0.936   4.208  13.455  0.3256  0.2038  0.4634
14337TIP3    H164426   0.985   4.290  13.451  0.5512  0.0117 -1.8193
14337TIP3    H264427   0.959   4.162  13.375 -0.7791 -1.5435  1.0869
14338TIP3   OH264428   3.116   5.871   4.055  0.6578 -0.0313  0.1334
14338TIP3    H164429   3.137   5.799   4.114  2.6601 -2.2645 -2.9680
14338TIP3    H264430   3.171   5.944   4.085  0.0223 -0.3390  2.2008
14339TIP3   OH264431   4.982   3.883   3.422 -0.0103  0.1952 -0.2453
14339TIP3    H164432   4.893   3.917   3.415 -0.1418  0.0959  0.7586
14339TIP3    H264433   4.993   3.864   3.515  0.2930 -1.9078 -0.6603
14340TIP3   OH264434   4.649   2.776  14.404  0.2918 -0.7998 -0.0011
14340TIP3    H164435   4.611   2.864  14.399  1.9870 -0.1155 -2.5633
14340TIP3    H264436   4.738   2.790  14.436  0.2578 -1.7181  0.5280
14341TIP3   OH264437   1.798   1.222   4.687  0.3073 -0.0082  0.1226
14341TIP3    H164438   1.857   1.205   4.761  0.2587  1.0706  0.4256
14341TIP3    H264439   1.820   1.311   4.658 -0.6239  0.1122 -0.2642
14342TIP3   OH264440   1.888   1.005  13.762 -0.7409 -0.0969  0.0712
14342TIP3    H164441   1.933   1.089  13.752 -2.4425  1.0602  1.3457
14342TIP3    H264442   1.795   1.028  13.758 -1.3312 -1.4864  2.8685
14343TIP3   OH264443   4.733   3.348   1.874 -0.0098  0.4449 -0.2704
14343TIP3    H164444   4.769   3.321   1.789  2.7013  0.3137  0.7893
14343TIP3    H264445   4.685   3.429   1.856 -1.0012 -0.5043 -2.1608
14344TIP3   OH264446   3.970   0.977   5.958 -0.4445 -0.1817  0.2095
14344TIP3    H164447   4.022   0.938   5.887 -0.4874  0.0376  0.0577
14344TIP3    H264448   4.022   0.961   6.037 -0.1616  0.0034  0.0639
14345TIP3   OH264449   6.300   3.787   3.956  0.8792  0.1890  0.0196
14345TIP3    H164450   6.283   3.827   4.041  1.5549  0.9910 -0.2147
14345TIP3    H264451   6.348   3.853   3.906 -0.0641 -0.0111 -1.2240
14346TIP3   OH264452   2.761   2.222   3.529  0.1362  0.2630 -0.3967
14346TIP3    H164453   2.819   2.168   3.475 -0.1015  1.1433 -1.5617
14346TIP3    H264454   2.768   2.184   3.616  1.1731 -0.6839 -0.8667
14347TIP3   OH264455   6.218   1.434   4.476 -0.5390 -0.0661 -0.0612
14347TIP3    H164456   6.243   1.430   4.384  1.8629  0.3982  0.5129
14347TIP3    H264457   6.281   1.493   4.516  1.4755 -3.6981  2.7521
14348TIP3   OH264458   4.990   5.060   5.803  0.3162 -0.1810 -0.2278
14348TIP3    H164459   5.084   5.050   5.787  0.3590  1.0612 -0.9444
14348TIP3    H264460   4.971   5.000   5.874  1.9921  0.7411  1.0940
14349TIP3   OH264461   1.933   5.490   1.753  0.0694 -0.1746  0.2928
14349TIP3    H164462   1.912   5.401   1.783  0.8984 -0.4302  0.1147
14349TIP3    H264463   2.004   5.478   1.690  0.5603  0.6627  0.6836
14350TIP3   OH264464   6.044   6.461   5.576 -0.2006  0.2424  0.0161
14350TIP3    H164465   5.986   6.416   5.637  0.7036 -0.2310  0.5557
14350TIP3    H264466   5.994   6.468   5.496 -1.5348  1.1641  0.9009
14351TIP3   OH264467   4.631   3.668  14.974  0.1182 -0.1792  0.1113
14351TIP3    H164468   4.688   3.593  14.991 -1.3268 -1.5297 -0.6925
14351TIP3    H264469   4.564   3.634  14.915 -0.7253  1.7086 -0.0945
14352TIP3   OH264470   6.041   3.987  11.321  0.0912 -0.6956  0.2692
14352TIP3    H164471   6.086   3.936  11.253  2.3819  1.4358  0.0425
14352TIP3    H264472   5.950   3.992  11.290  1.3278  1.6481 -3.7302
14353TIP3   OH264473   1.163   5.221   2.808 -0.2125 -0.0134 -0.4141
14353TIP3    H164474   1.141   5.144   2.755  0.3048 -0.5513  0.1312
14353TIP3    H264475   1.150   5.295   2.749 -2.7509 -0.3100 -0.3391
14354TIP3   OH264476   4.952   0.958  15.674  0.3587  0.6595  0.1410
14354TIP3    H164477   5.020   0.985  15.612  1.0050  0.1302  0.6057
14354TIP3    H264478   4.999   0.946  15.756 -0.2352 -0.1049  0.3733
14355TIP3   OH264479   5.959   4.627   1.422  0.7073  0.2750  0.4111
14355TIP3    H164480   5.865   4.634   1.403  0.9461  1.3126 -0.4997
14355TIP3    H264481   5.990   4.560   1.361  1.0228  1.8503 -1.2275
14356TIP3   OH264482   3.185   5.560   5.210 -0.2139 -0.0023 -0.2118
14356TIP3    H164483   3.256   5.528   5.265  0.6323  3.9162  1.3599
14356TIP3    H264484   3.208   5.531   5.122  1.3552 -1.8962  0.7388
14357TIP3   OH264485   3.642   2.557  13.895 -0.1817  0.1743  0.0396
14357TIP3    H164486   3.664   2.624  13.959 -0.5015  0.9576 -0.6482
14357TIP3    H264487   3.566   2.512  13.932 -0.9389  1.2175 -0.1845
14358TIP3   OH264488   2.210   1.728   2.008 -0.2123  0.0497 -0.4274
14358TIP3    H164489   2.135   1.762   2.056  0.7903  1.6938  0.0622
14358TIP3    H264490   2.184   1.733   1.916 -0.2384  1.9083 -0.3489
14359TIP3   OH264491   5.670   1.192   6.122 -0.2651 -0.2014 -0.1280
14359TIP3    H164492   5.638   1.114   6.167  0.8386 -0.2250  0.6576
14359TIP3    H264493   5.734   1.230   6.182 -0.4955  1.1011 -0.6653
14360TIP3   OH264494   3.469   1.707   3.864  0.7385  0.1963 -1.2775
14360TIP3    H164495   3.475   1.636   3.928 -0.9113  0.5278 -0.6975
14360TIP3    H264496   3.447   1.664   3.781 -1.0191  0.0282 -0.7719
14361TIP3   OH264497   5.575   3.006  16.574 -0.2367 -0.1885 -0.3308
14361TIP3    H164498   5.543   3.032  16.488 -1.8795 -2.2924 -0.4386
14361TIP3    H264499   5.513   2.938  16.603 -0.5264  1.3219  3.0620
14362TIP3   OH264500   1.928   1.520   2.396 -0.5276  0.2227  0.4909
14362TIP3    H164501   1.925   1.616   2.397  1.1854  0.3091  0.1713
14362TIP3    H264502   1.844   1.493   2.433 -0.7233  1.8500  1.3153
14363TIP3   OH264503   2.473   5.064  10.455  0.2571  0.6129 -0.0426
14363TIP3    H164504   2.425   5.113  10.521 -0.3254  0.4425 -0.3364
14363TIP3    H264505   2.408   5.040  10.390  0.8305  0.8363 -0.7196
14364TIP3   OH264506   1.106   0.108   2.717 -0.4744 -0.1828  0.2768
14364TIP3    H164507   1.197   0.123   2.742  0.4863 -2.6615 -1.3890
14364TIP3    H264508   1.058   0.109   2.800  1.5906 -1.8786  1.6061
14365TIP3   OH264509   4.270   1.198   4.964 -0.3666 -0.0559 -0.1770
14365TIP3    H164510   4.336   1.171   5.028  0.8856  2.1237 -0.4465
14365TIP3    H264511   4.247   1.117   4.919  1.1245 -1.1169  0.8299
14366TIP3   OH264512   4.995   2.436  16.985  0.7928  0.5729  0.0665
14366TIP3    H164513   4.968   2.477  17.067  1.7032  0.9905  0.1745
14366TIP3    H264514   5.078   2.478  16.963  2.0850 -1.5931  0.4936
14367TIP3   OH264515   3.339   2.019  16.877 -0.3303 -0.2730 -0.2959
14367TIP3    H164516   3.255   2.023  16.923 -0.9012 -1.0215 -1.2455
14367TIP3    H264517   3.318   2.040  16.786  0.6134  0.1294 -0.4339
14368TIP3   OH264518   0.986   3.157   1.620 -0.5303 -0.5184  0.0141
14368TIP3    H164519   1.035   3.078   1.599  0.9372  0.1091  0.9381
14368TIP3    H264520   0.928   3.171   1.545 -0.2661 -2.0320 -0.4885
14369TIP3   OH264521   2.917   1.786  13.691  0.2533 -0.3406  0.0424
14369TIP3    H164522   2.935   1.783  13.597  2.3458 -1.2314  0.3919
14369TIP3    H264523   2.875   1.702  13.710  0.8886 -0.6639  0.0561
14370TIP3   OH264524   3.245   1.063   0.570 -0.0340  0.4414 -0.7772
14370TIP3    H164525   3.159   1.025   0.555  0.4421 -0.5798 -1.0799
14370TIP3    H264526   3.237   1.154   0.541 -1.0264  0.3888 -0.6984
14371TIP3   OH264527   3.286   0.570  16.302  0.3228 -0.5291 -0.6435
14371TIP3    H164528   3.331   0.624  16.237  0.7361 -0.9589 -0.7173
14371TIP3    H264529   3.328   0.592  16.385  0.8140 -1.0652 -0.7387
14372TIP3   OH264530   3.668   5.580  14.492  0.5493 -0.7289 -0.0436
14372TIP3    H164531   3.603   5.510  14.500  0.3767 -0.7186 -1.1780
14372TIP3    H264532   3.688   5.605  14.583  0.1239 -1.7875  0.3569
14373TIP3   OH264533   0.878   5.019  13.054 -0.1245 -0.1480 -0.1890
14373TIP3    H164534   0.786   5.025  13.080 -0.6840  1.4936 -2.2428
14373TIP3    H264535   0.882   4.941  12.998  0.1397 -1.1608  1.1852
14374TIP3   OH264536   2.563   1.305  10.476 -0.3167 -0.2819  0.1095
14374TIP3    H164537   2.611   1.228  10.506  0.2745 -0.5327 -1.3841
14374TIP3    H264538   2.489   1.270  10.427  0.3905  0.0627 -1.2491
14375TIP3   OH264539   2.124   5.800  12.340 -0.2853 -0.5648 -0.1913
14375TIP3    H164540   2.187   5.743  12.296  0.8115 -0.0826  0.7010
14375TIP3    H264541   2.157   5.809  12.429 -1.7819 -0.5121  0.4007
14376TIP3   OH264542   0.511   1.782  15.042  0.3485  0.2039  0.3255
14376TIP3    H164543   0.543   1.725  15.112 -0.3105  0.3528  0.7596
14376TIP3    H264544   0.426   1.814  15.075  0.1363  0.4443 -0.4482
14377TIP3   OH264545   1.867   1.577  14.982  0.1927  0.7786  0.2798
14377TIP3    H164546   1.909   1.636  15.045 -2.0213  0.8254  1.8248
14377TIP3    H264547   1.839   1.502  15.034 -2.2186  1.0786 -0.4696
14378TIP3   OH264548   1.140   2.494   3.405 -0.3311  0.7536  0.2688
14378TIP3    H164549   1.100   2.518   3.322 -0.1338  0.2497  0.0218
14378TIP3    H264550   1.206   2.428   3.382  1.4424  2.3699  0.5122
14379TIP3   OH264551   1.461   6.648  12.195  0.7077  0.2269 -0.6571
14379TIP3    H164552   1.445   6.561  12.232  0.2251  0.3008 -0.6932
14379TIP3    H264553   1.375   6.679  12.168  0.9398  0.5370 -1.0466
14380TIP3   OH264554   1.792   2.457  13.702  0.6810  0.3105 -0.2120
14380TIP3    H164555   1.820   2.407  13.625  1.5712 -0.6070  0.6762
14380TIP3    H264556   1.725   2.402  13.744 -1.0388  1.5628 -1.2000
14381TIP3   OH264557   4.031   2.928  12.377 -0.0147 -0.2778  0.3699
14381TIP3    H164558   4.009   2.956  12.466  0.1662 -0.6880  0.5478
14381TIP3    H264559   4.016   3.006  12.323  0.6724  0.2335  0.8816
14382TIP3   OH264560   2.372   0.844   1.609 -0.1364  0.1602  1.1649
14382TIP3    H164561   2.319   0.904   1.662 -0.9007  0.7181 -0.1834
14382TIP3    H264562   2.461   0.875   1.620  0.1204 -1.2630  4.0995
14383TIP3   OH264563   6.121   3.244  10.851  0.2733 -0.9149  0.0040
14383TIP3    H164564   6.038   3.246  10.804 -1.0768 -0.4910  2.2151
14383TIP3    H264565   6.149   3.335  10.857  0.0439 -0.8740  0.5977
14384TIP3   OH264566   3.904   4.800  16.399  0.6286  0.4208 -0.0275
14384TIP3    H164567   3.824   4.752  16.421  0.8413 -0.1497 -0.4687
14384TIP3    H264568   3.874   4.883  16.362  0.2571  0.9305  1.3510
14385TIP3   OH264569   5.752   0.502   3.182 -0.0216 -0.0296 -0.2507
14385TIP3    H164570   5.715   0.569   3.124 -0.9114 -1.5537 -1.5159
14385TIP3    H264571   5.754   0.544   3.268 -0.4015  1.6739 -1.0168
14386TIP3   OH264572   6.730   5.639   1.306  0.3226 -0.0104 -0.3383
14386TIP3    H164573   6.655   5.596   1.264  0.3746 -0.0209 -0.4208
14386TIP3    H264574   6.751   5.584   1.381  0.0540  0.1568 -0.1392
14387TIP3   OH264575   3.205   3.897  15.548 -0.3281 -0.4486 -0.4674
14387TIP3    H164576   3.224   3.829  15.613  2.2369  0.0417 -0.5962
14387TIP3    H264577   3.230   3.859  15.464 -3.4143 -0.9932 -1.2757
14388TIP3   OH264578   4.365   0.779   6.160 -0.0565 -0.0015 -0.2604
14388TIP3    H164579   4.415   0.852   6.198 -0.1217 -0.3228  0.4613
14388TIP3    H264580   4.429   0.732   6.108  0.4483 -0.4870  0.7693
14389TIP3   OH264581   4.493   5.554  13.174  0.6615 -0.2625  0.2538
14389TIP3    H164582   4.419   5.603  13.138  1.1188  0.7648  0.6826
14389TIP3    H264583   4.454   5.495  13.239  0.3276  1.2315  1.4754
14390TIP3   OH264584   2.194   5.058  16.908 -0.6435 -0.5812 -0.3821
14390TIP3    H164585   2.259   5.082  16.842 -1.3113 -0.8258 -1.1421
14390TIP3    H264586   2.110   5.062  16.862 -1.1645 -0.3355  0.5663
14391TIP3   OH264587   1.777   2.468  11.224 -0.0132 -0.3427 -0.0845
14391TIP3    H164588   1.793   2.374  11.236  0.5187 -0.2219  0.1813
14391TIP3    H264589   1.760   2.477  11.131  0.5478 -0.6211 -0.2210
14392TIP3   OH264590   2.390   6.602   1.727  0.0611  0.0532  0.0545
14392TIP3    H164591   2.295   6.595   1.722 -0.0133  1.2228 -0.4493
14392TIP3    H264592   2.416   6.650   1.648  0.6722  2.8844  1.8117
14393TIP3   OH264593   4.740   2.011   2.973  0.6508 -0.1028  0.1477
14393TIP3    H164594   4.676   2.081   2.964  1.3649  0.9582  2.6379
14393TIP3    H264595   4.710   1.959   3.047  1.8311 -0.5229  0.3627
14394TIP3   OH264596   5.411   6.117   4.359 -0.0741  0.1587 -0.4085
14394TIP3    H164597   5.381   6.173   4.430 -0.0987  0.2887 -0.5202
14394TIP3    H264598   5.506   6.128   4.358 -0.1712  1.0393 -1.1249
14395TIP3   OH264599   4.417   5.888  14.475  0.1842  0.9317  0.5241
14395TIP3    H164600   4.461   5.964  14.515 -0.1734  0.7024  1.3779
14395TIP3    H264601   4.459   5.878  14.390  1.7462  0.7742  1.2748
14396TIP3   OH264602   3.016   5.999   0.525 -0.0625  0.0274 -0.9218
14396TIP3    H164603   3.065   5.965   0.450 -0.1055  1.3056 -1.5643
14396TIP3    H264604   2.956   5.929   0.549  0.6271 -0.7628 -1.4653
14397TIP3   OH264605   5.656   5.529  12.677  0.3431 -0.4032  0.4674
14397TIP3    H164606   5.621   5.586  12.746 -0.8104 -0.7314  0.1701
14397TIP3    H264607   5.690   5.590  12.611 -1.0574 -0.0383  0.0573
14398TIP3   OH264608   2.264   1.833   0.251 -0.3010 -0.1027 -0.2370
14398TIP3    H164609   2.193   1.846   0.314  0.6675 -0.1807  0.9084
14398TIP3    H264610   2.331   1.896   0.278  0.0426  0.0360 -1.3628
14399TIP3   OH264611   5.539   2.881   2.327  0.0756  0.7378  0.2231
14399TIP3    H164612   5.585   2.949   2.278 -0.9679  1.4155  0.1552
14399TIP3    H264613   5.447   2.890   2.301 -0.2597  0.0945  1.1210
14400TIP3   OH264614   0.189   4.588   3.557  0.3258  0.0327  0.3365
14400TIP3    H164615   0.225   4.668   3.597 -0.6643 -0.0080  1.3508
14400TIP3    H264616   0.150   4.541   3.630  0.0699 -0.9406 -0.4130
14401TIP3   OH264617   5.966   5.994   1.278  0.3540  0.1496  0.4545
14401TIP3    H164618   5.995   6.010   1.368  2.9986  1.5448 -0.5311
14401TIP3    H264619   5.972   5.900   1.267  1.9630  0.1310  1.1893
14402TIP3   OH264620   0.070   3.760  10.822  0.3947  0.4415 -0.1692
14402TIP3    H164621   0.084   3.852  10.845  0.0818  0.3461  0.4296
14402TIP3    H264622   0.004   3.763  10.753 -0.7963  0.6115  0.9290
14403TIP3   OH264623   5.886   4.866  13.962  0.3312 -0.6158 -0.0992
14403TIP3    H164624   5.912   4.931  13.896  0.9295  0.2004  0.9170
14403TIP3    H264625   5.963   4.855  14.017  0.0404 -1.7671  0.0959
14404TIP3   OH264626   5.200   6.280  10.863 -0.1978  0.1000 -0.3666
14404TIP3    H164627   5.210   6.372  10.837  1.9771 -0.0034 -0.0776
14404TIP3    H264628   5.275   6.263  10.920 -0.6492 -1.8314 -0.2828
14405TIP3   OH264629   3.827   4.882  10.948  0.1241  0.2964  0.1825
14405TIP3    H164630   3.774   4.896  11.026 -0.8257 -0.2438 -0.3468
14405TIP3    H264631   3.764   4.859  10.880  1.0209 -0.1120 -0.5336
14406TIP3   OH264632   3.007   0.519   2.251 -0.4343  0.0560 -0.4486
14406TIP3    H164633   3.025   0.522   2.157 -0.0630  1.2991 -0.3415
14406TIP3    H264634   2.913   0.536   2.258  0.0586  3.2509 -0.4347
14407TIP3   OH264635   1.170   1.153  13.568 -0.5738 -0.1003  0.0373
14407TIP3    H164636   1.150   1.091  13.498 -0.5949 -0.6016  0.4739
14407TIP3    H264637   1.086   1.189  13.594 -0.6290 -0.3411  0.1913
14408TIP3   OH264638   5.582   2.178   5.399  0.1893 -0.4155 -0.2198
14408TIP3    H164639   5.543   2.166   5.313  0.2355 -0.0055 -0.2995
14408TIP3    H264640   5.556   2.267   5.425  0.8143 -0.2520 -0.1417
14409TIP3   OH264641   4.516   2.340   0.701 -0.3271 -0.0056  0.1306
14409TIP3    H164642   4.490   2.253   0.670 -0.6251  0.8433 -2.1689
14409TIP3    H264643   4.489   2.341   0.793 -2.7343 -1.4229 -0.4567
14410TIP3   OH264644   6.623   3.217   1.098 -0.0697 -0.1529  0.0011
14410TIP3    H164645   6.672   3.194   1.177 -0.7657 -0.2354  0.4169
14410TIP3    H264646   6.629   3.312   1.094 -1.3244 -0.0019  1.0283
14411TIP3   OH264647   1.941   0.674   5.456 -0.4231 -1.1993  0.1782
14411TIP3    H164648   1.980   0.761   5.465 -0.1144 -1.1709 -1.2426
14411TIP3    H264649   1.874   0.684   5.389 -0.6279 -1.9854  0.2531
14412TIP3   OH264650   5.199   3.174  16.524 -0.2274 -0.0233  0.0038
14412TIP3    H164651   5.176   3.131  16.607 -1.7215 -0.7075 -0.7116
14412TIP3    H264652   5.161   3.117  16.457  0.3549  0.8760 -1.1183
14413TIP3   OH264653   6.234   6.112   2.338 -0.1983 -0.5073  0.3889
14413TIP3    H164654   6.214   6.021   2.359 -0.3179 -0.6500 -0.3276
14413TIP3    H264655   6.148   6.155   2.337 -0.0875 -0.2316  1.3926
14414TIP3   OH264656   6.723   3.273   1.752 -0.4840 -0.4495  0.3375
14414TIP3    H164657   6.768   3.313   1.827  0.7874  1.8493 -1.5134
14414TIP3    H264658   6.632   3.299   1.762 -0.5681 -1.1464  1.6492
14415TIP3   OH264659   0.128   2.791  12.528  0.3924  0.3962 -0.1682
14415TIP3    H164660   0.139   2.853  12.600 -2.6951 -1.1361  1.8788
14415TIP3    H264661   0.179   2.714  12.554 -2.0444 -0.8147  1.4534
14416TIP3   OH264662   5.810   0.086   2.208 -0.3825  0.1148 -0.4514
14416TIP3    H164663   5.718   0.078   2.234 -0.7492  2.5612 -0.7893
14416TIP3    H264664   5.859   0.064   2.287 -1.2742 -0.2824  0.0091
14417TIP3   OH264665   1.717   6.192  16.892 -0.0200 -0.2088 -0.1199
14417TIP3    H164666   1.793   6.145  16.858  0.4801  0.7362 -0.3203
14417TIP3    H264667   1.729   6.282  16.864 -0.0085  0.4573  1.8655
14418TIP3   OH264668   3.697   0.251   2.877  0.7264 -0.1151  0.3155
14418TIP3    H164669   3.645   0.235   2.798  1.1427  0.0060  0.0137
14418TIP3    H264670   3.634   0.285   2.940  0.6141  1.0019 -0.3663
14419TIP3   OH264671   4.084   3.038   2.721 -0.0682  0.2999 -0.0977
14419TIP3    H164672   4.045   3.080   2.798  0.4582 -1.4588  1.2025
14419TIP3    H264673   4.089   3.108   2.655 -2.5939  1.3110  0.6787
14420TIP3   OH264674   0.506   6.171   6.716  0.2144  0.1893 -0.1532
14420TIP3    H164675   0.567   6.134   6.652  1.7222  1.2368  0.6242
14420TIP3    H264676   0.434   6.205   6.663 -1.6349 -4.2694 -0.9053
14421TIP3   OH264677   1.197   0.746  16.088  0.0339  0.1596  0.1637
14421TIP3    H164678   1.160   0.681  16.029  0.2858  0.1094  0.0602
14421TIP3    H264679   1.284   0.712  16.110 -0.0725  0.1644  0.5844
14422TIP3   OH264680   6.263   1.602   0.633 -0.8148 -0.4266  0.1822
14422TIP3    H164681   6.181   1.555   0.615 -0.6153 -0.8703  0.4217
14422TIP3    H264682   6.257   1.625   0.726 -0.5835 -0.6254  0.2460
14423TIP3   OH264683   3.952   1.920  14.236  0.0344 -0.2016  0.1482
14423TIP3    H164684   3.980   1.961  14.154  0.2827 -0.6563 -0.0033
14423TIP3    H264685   3.883   1.859  14.210 -1.4172  1.1993  0.5724
14424TIP3   OH264686   1.905   3.170  13.753  0.2891 -0.3894  0.1475
14424TIP3    H164687   1.999   3.163  13.767  0.3635 -0.6788 -0.4786
14424TIP3    H264688   1.883   3.259  13.782  0.9322  0.0612 -0.7223
14425TIP3   OH264689   6.087   1.451  12.988  0.1176 -0.3904  0.2576
14425TIP3    H164690   6.109   1.505  13.064 -3.2465  1.3059  0.2285
14425TIP3    H264691   6.117   1.502  12.912  0.4222 -0.4512  0.3361
14426TIP3   OH264692   0.096   3.833  17.022 -0.0647  0.0397 -0.4597
14426TIP3    H164693   0.147   3.759  17.056 -2.1744 -0.6370  1.5023
14426TIP3    H264694   0.036   3.793  16.959  0.4790  0.5124 -1.2892
14427TIP3   OH264695   5.787   0.509   1.642  0.6322  0.1220  0.6135
14427TIP3    H164696   5.693   0.515   1.631  0.6022  0.2497  0.9273
14427TIP3    H264697   5.812   0.429   1.597  0.7054  1.2868 -1.5647
14428TIP3   OH264698   1.542   0.957  12.356 -0.2085  0.4985 -0.1424
14428TIP3    H164699   1.586   0.908  12.426 -0.7283 -0.0189 -0.1689
14428TIP3    H264700   1.514   1.038  12.397 -1.8518 -0.4314  0.6956
14429TIP3   OH264701   6.030   0.972   4.153  0.2061 -0.2797  0.0705
14429TIP3    H164702   6.104   0.943   4.207 -0.3600 -3.4678 -0.6774
14429TIP3    H264703   5.953   0.953   4.206 -0.2171  1.1585  0.0267
14430TIP3   OH264704   5.424   2.046  16.283 -0.1846  0.1576 -0.3958
14430TIP3    H164705   5.367   1.968  16.283 -1.0845  0.7809  0.4371
14430TIP3    H264706   5.402   2.092  16.202 -0.9435  0.4304 -0.0455
14431TIP3   OH264707   5.924   0.965  11.985 -0.3206 -0.4044 -0.1786
14431TIP3    H164708   5.929   0.871  11.969  1.1113 -0.4042  0.1753
14431TIP3    H264709   5.936   0.975  12.079 -1.3688  0.0961 -0.0760
14432TIP3   OH264710   2.720   3.906   1.626 -0.1270 -0.1390 -0.1992
14432TIP3    H164711   2.679   3.823   1.603  1.5183 -1.0002 -0.1845
14432TIP3    H264712   2.690   3.924   1.715  0.0949 -1.1250  0.0897
14433TIP3   OH264713   1.731   4.239   0.347 -0.2588  0.3850 -0.3032
14433TIP3    H164714   1.656   4.202   0.301 -0.7089  1.9026 -0.8391
14433TIP3    H264715   1.806   4.222   0.289  0.0589 -2.0126  0.6759
14434TIP3   OH264716   0.016   3.441   4.557  0.2561  0.7476  0.0119
14434TIP3    H164717   0.030   3.449   4.652  0.1809  0.3418  0.0588
14434TIP3    H264718  -0.055   3.377   4.549  0.2433  0.8045 -0.3183
14435TIP3   OH264719   5.214   6.491   4.498  0.5878  0.5750 -0.4020
14435TIP3    H164720   5.237   6.416   4.552  0.2992  1.3494  0.8193
14435TIP3    H264721   5.298   6.535   4.481  0.4516  1.5705  1.3141
14436TIP3   OH264722   0.805   0.586  12.459 -0.1250 -0.4443 -0.1000
14436TIP3    H164723   0.885   0.637  12.465 -1.4609  1.6312  2.5403
14436TIP3    H264724   0.834   0.496  12.446  2.6024  0.2488  0.6442
14437TIP3   OH264725   4.647   3.125  14.737  0.4487 -0.3148  0.8194
14437TIP3    H164726   4.567   3.090  14.697  0.6613 -0.8543  0.8582
14437TIP3    H264727   4.648   3.086  14.824  0.5856 -0.0438  0.9410
14438TIP3   OH264728   2.503   1.948   1.181  0.1674 -0.1361  0.7978
14438TIP3    H164729   2.448   2.005   1.235  0.9895  0.3214  1.1582
14438TIP3    H264730   2.572   2.005   1.147 -0.6829 -0.2813 -1.2763
14439TIP3   OH264731   4.402   5.998   5.474 -0.1048 -0.1040 -0.7390
14439TIP3    H164732   4.351   5.995   5.556 -0.5435  1.9851 -0.8897
14439TIP3    H264733   4.493   5.992   5.503 -0.2495  0.6717 -0.0612
14440TIP3   OH264734   6.241   4.326  12.506  0.2196 -0.0116 -0.2087
14440TIP3    H164735   6.279   4.381  12.574 -1.2937 -2.1627  2.5737
14440TIP3    H264736   6.152   4.359  12.495 -0.6739 -1.7132  1.4268
14441TIP3   OH264737   1.982   4.672   3.529 -0.2642  0.4530  0.1992
14441TIP3    H164738   1.894   4.710   3.533 -0.2630  0.4165  0.7472
14441TIP3    H264739   2.001   4.647   3.620 -0.3194 -1.0030 -0.1771
14442TIP3   OH264740   2.336   1.468   5.146 -0.5553 -0.2250  0.2970
14442TIP3    H164741   2.301   1.418   5.221 -1.7728  1.2047  0.7321
14442TIP3    H264742   2.305   1.420   5.069 -0.4985 -0.9275  0.7040
14443TIP3   OH264743   3.881   5.890   2.948 -0.4380  0.0093 -0.2074
14443TIP3    H164744   3.900   5.815   2.892  0.2827 -0.4201  0.6053
14443TIP3    H264745   3.963   5.939   2.952 -0.5940  0.2490  0.1583
14444TIP3   OH264746   5.608   2.546   4.633  0.4309  0.1871 -0.1613
14444TIP3    H164747   5.698   2.564   4.607  0.8920 -1.3772  0.2680
14444TIP3    H264748   5.595   2.596   4.713  0.7659  0.7509 -0.4534
14445TIP3   OH264749   3.468   0.587   1.969 -0.2190  0.2951 -0.4644
14445TIP3    H164750   3.464   0.527   2.044  0.0600  1.5614  0.6055
14445TIP3    H264751   3.478   0.673   2.008 -0.6956  1.0700 -1.9614
14446TIP3   OH264752   6.065   5.008   4.915  0.5712  0.0923  0.6717
14446TIP3    H164753   6.115   4.945   4.967 -0.2502  0.0232  1.4235
14446TIP3    H264754   6.126   5.040   4.849  1.4298 -0.3965  1.2096
14447TIP3   OH264755   2.622   2.982  15.829 -0.2198 -0.6958  0.4895
14447TIP3    H164756   2.645   2.889  15.828  1.4335 -0.3354 -1.2995
14447TIP3    H264757   2.566   2.994  15.752  2.2312  0.2947 -1.2728
14448TIP3   OH264758   4.452   1.520   1.477  0.3764 -0.1540 -0.4324
14448TIP3    H164759   4.456   1.469   1.397 -1.0201  0.2981 -0.8280
14448TIP3    H264760   4.401   1.598   1.454 -2.3345 -1.1905  1.4274
14449TIP3   OH264761   4.765   2.490  11.629 -0.2018  0.2001 -0.1693
14449TIP3    H164762   4.746   2.553  11.560  0.2284 -1.0372 -1.4595
14449TIP3    H264763   4.710   2.414  11.610  1.5465 -1.0465 -0.4967
14450TIP3   OH264764   0.576   4.668  16.259  0.6282  0.2688 -0.1345
14450TIP3    H164765   0.622   4.646  16.178  1.3037  0.8563  0.0750
14450TIP3    H264766   0.596   4.597  16.319 -1.5116 -1.2250 -1.0692
14451TIP3   OH264767   5.261   5.050   3.567 -0.1263  0.1861  0.5083
14451TIP3    H164768   5.323   5.076   3.635  0.8125  0.5985 -0.4673
14451TIP3    H264769   5.186   5.109   3.577  1.6436  2.9721 -1.2100
14452TIP3   OH264770   5.170   4.994  16.502 -0.4256  0.3480  0.1127
14452TIP3    H164771   5.226   4.934  16.553 -0.3154  1.3957  1.2764
14452TIP3    H264772   5.106   4.936  16.460 -0.5466 -0.5935  1.4914
14453TIP3   OH264773   2.105   0.705   1.702  0.0642  0.1429 -0.5162
14453TIP3    H164774   2.107   0.629   1.761 -1.4498 -1.0380 -1.8817
14453TIP3    H264775   2.196   0.717   1.675  0.2508 -1.6893 -0.8319
14454TIP3   OH264776   2.324   2.308   2.523 -0.2353 -0.7749 -0.5225
14454TIP3    H164777   2.390   2.308   2.455 -1.2942 -2.5496 -1.6463
14454TIP3    H264778   2.361   2.253   2.592  1.0384  1.4091  0.6214
14455TIP3   OH264779   5.375   4.087   2.704  0.0351  0.7295 -0.3471
14455TIP3    H164780   5.281   4.090   2.688 -0.0689 -2.1090 -0.9182
14455TIP3    H264781   5.382   4.074   2.799 -0.2665 -0.2217 -0.4355
14456TIP3   OH264782   3.032   2.763  12.097 -0.5051  0.3080  0.8534
14456TIP3    H164783   3.034   2.834  12.161 -1.1341  0.8578  0.2829
14456TIP3    H264784   3.070   2.801  12.017  0.0319 -0.2873  0.8147
14457TIP3   OH264785   2.569   5.647   2.037  0.2824 -0.3831 -0.5606
14457TIP3    H164786   2.596   5.672   2.126  1.5797  0.5598 -1.1756
14457TIP3    H264787   2.520   5.723   2.005  0.3596 -0.4568 -0.8583
14458TIP3   OH264788   4.495   6.066  13.592  0.1475 -0.1322  0.2216
14458TIP3    H164789   4.455   6.061  13.505 -0.6197  1.2838  0.4532
14458TIP3    H264790   4.586   6.041  13.578 -0.1842 -0.8179 -0.8205
14459TIP3   OH264791   3.058   0.564  13.446 -0.3345 -0.1866  0.5166
14459TIP3    H164792   3.116   0.552  13.522  0.2514  1.0692  0.2948
14459TIP3    H264793   3.030   0.475  13.424  1.5652 -0.8711  0.6081
14460TIP3   OH264794   4.232   0.419  12.789 -0.2801  0.4930 -0.5433
14460TIP3    H164795   4.308   0.363  12.772 -0.3620  0.9179 -2.5304
14460TIP3    H264796   4.258   0.472  12.863  0.6715 -0.5940 -0.0631
14461TIP3   OH264797   4.615   5.599  11.052 -0.3187 -0.6331  0.2670
14461TIP3    H164798   4.563   5.537  11.000  0.7544  1.1778 -3.3150
14461TIP3    H264799   4.706   5.579  11.030  0.0647  2.4010 -1.5440
14462TIP3   OH264800   1.841   4.524  11.727  0.2167  0.5900 -0.6774
14462TIP3    H164801   1.881   4.509  11.813 -0.6362  3.9457  0.4255
14462TIP3    H264802   1.908   4.494  11.665  2.0985  0.7986  1.1323
14463TIP3   OH264803   3.251   6.536   1.641 -0.2153  0.4938 -0.2452
14463TIP3    H164804   3.318   6.498   1.698 -1.2826 -1.3168 -0.1048
14463TIP3    H264805   3.219   6.613   1.689  0.3156  0.1640  0.6568
14464TIP3   OH264806   3.551   6.750   1.840 -0.2969  0.3704 -0.0280
14464TIP3    H164807   3.541   6.656   1.823  0.7934  0.1959  0.2442
14464TIP3    H264808   3.513   6.763   1.928  0.2748  0.0327  0.2730
14465TIP3   OH264809   4.857   0.785   1.960  0.1361  0.2578  0.5640
14465TIP3    H164810   4.891   0.860   2.008  1.9687 -0.1170 -0.0846
14465TIP3    H264811   4.921   0.715   1.976 -0.7648 -0.7344 -0.0455
14466TIP3   OH264812   0.186   5.641  13.516 -0.1210  0.6457 -0.3642
14466TIP3    H164813   0.110   5.698  13.503  1.3926  2.6933 -0.7762
14466TIP3    H264814   0.192   5.630  13.611 -2.9410 -2.5551 -0.3934
14467TIP3   OH264815   0.125   1.812   5.350 -0.1850  0.4851 -0.0230
14467TIP3    H164816   0.165   1.754   5.414 -0.9053  0.7042  0.6504
14467TIP3    H264817   0.141   1.900   5.384  1.7620  0.7706 -1.5455
14468TIP3   OH264818   2.213   1.667  16.435 -0.1824  0.2390 -0.3017
14468TIP3    H164819   2.286   1.695  16.379  1.1621 -0.8942  0.8217
14468TIP3    H264820   2.196   1.576  16.409 -0.2478  0.0470  0.3845
14469TIP3   OH264821   0.568   0.338  16.077 -0.3620 -0.5666 -0.0647
14469TIP3    H164822   0.611   0.262  16.116  0.8642  0.2734  0.2582
14469TIP3    H264823   0.549   0.396  16.150 -1.0465 -0.4195 -0.3472
14470TIP3   OH264824   1.626   1.803  16.759  0.5711 -0.0920 -0.2570
14470TIP3    H164825   1.532   1.804  16.778  0.5770  4.3290  0.5218
14470TIP3    H264826   1.635   1.744  16.685 -3.1339  0.7206 -1.5389
14471TIP3   OH264827   3.504   5.194  11.636 -0.5158  0.4977 -0.5193
14471TIP3    H164828   3.510   5.225  11.546 -1.7086 -1.9747 -1.5528
14471TIP3    H264829   3.420   5.229  11.668 -0.2905  1.0260 -0.4941
14472TIP3   OH264830   6.484   2.282  14.507 -0.4329  0.4640  0.2614
14472TIP3    H164831   6.497   2.361  14.561  1.1118 -0.5465  1.4509
14472TIP3    H264832   6.453   2.216  14.569 -0.5193 -0.1950 -0.4739
14473TIP3   OH264833   2.809   6.766  14.142 -0.4275 -0.0519  0.2378
14473TIP3    H164834   2.791   6.797  14.053 -1.2842 -3.2831 -0.8518
14473TIP3    H264835   2.736   6.707  14.163  0.9082 -1.1604  2.1447
14474TIP3   OH264836   6.495   6.716  11.570 -0.1888  0.1017 -0.4326
14474TIP3    H164837   6.506   6.781  11.640 -0.4128  0.9265 -1.1383
14474TIP3    H264838   6.434   6.757  11.509  0.6376 -0.2468 -1.5293
14475TIP3   OH264839   5.497   0.136  17.060  0.3206  0.2731  0.0848
14475TIP3    H164840   5.456   0.066  17.111  1.1563  0.0850  0.4967
14475TIP3    H264841   5.540   0.191  17.125  0.0158  0.9469 -0.2770
14476TIP3   OH264842   3.236   4.791  14.397  0.1327  0.0003  0.2356
14476TIP3    H164843   3.197   4.858  14.453  2.1333 -1.3869  3.6630
14476TIP3    H264844   3.171   4.722  14.392  0.1708 -0.1593  1.5805
14477TIP3   OH264845   0.994   2.278   0.489 -0.2596  0.5742  0.0409
14477TIP3    H164846   0.957   2.331   0.419  2.2031  0.3416 -1.5615
14477TIP3    H264847   0.977   2.188   0.462  1.4048  0.4658 -0.7253
14478TIP3   OH264848   0.855   6.493   1.136 -0.0317  0.3339 -0.0922
14478TIP3    H164849   0.768   6.522   1.165 -0.3527 -0.4001 -0.3016
14478TIP3    H264850   0.911   6.504   1.214 -0.1494  1.4241 -0.1400
14479TIP3   OH264851   5.311   5.657   3.412  0.3156  0.0566  0.3483
14479TIP3    H164852   5.221   5.675   3.439  0.6940  1.1560  0.9144
14479TIP3    H264853   5.325   5.713   3.336  0.8866  0.7927  0.9742
14480TIP3   OH264854   4.380   3.788   2.075 -0.0656 -0.1617  0.1838
14480TIP3    H164855   4.404   3.844   2.148 -0.8527 -0.4087  0.6449
14480TIP3    H264856   4.395   3.842   1.997  2.7866 -0.5766  0.3379
14481TIP3   OH264857   2.504   4.885   2.211  0.0680  0.6346 -0.1664
14481TIP3    H164858   2.576   4.916   2.265  0.0980  0.7828 -0.2903
14481TIP3    H264859   2.441   4.847   2.273  1.7470 -2.6455 -0.2591
14482TIP3   OH264860   3.337   5.026   2.538  0.5690 -0.9799 -0.1257
14482TIP3    H164861   3.242   5.038   2.547  0.5525 -1.6450  0.6289
14482TIP3    H264862   3.352   5.022   2.444 -0.1630 -0.9681 -0.2453
14483TIP3   OH264863   5.305   4.607   5.691 -0.3450  0.1840 -0.0753
14483TIP3    H164864   5.334   4.519   5.668 -1.3705  0.5335 -3.0718
14483TIP3    H264865   5.268   4.598   5.779 -0.4810 -2.3633 -0.3244
14484TIP3   OH264866   0.211   4.193  13.966  0.0283  0.0894  0.2260
14484TIP3    H164867   0.120   4.163  13.975 -0.3504  1.0845 -0.0607
14484TIP3    H264868   0.235   4.224  14.053  0.4234 -1.0078  0.5243
14485TIP3   OH264869   2.853   5.925   4.016 -0.3128 -0.3766  0.1725
14485TIP3    H164870   2.846   5.974   4.097 -0.4528 -0.6039  0.2978
14485TIP3    H264871   2.939   5.883   4.020 -0.6821 -1.1232  0.6211
14486TIP3   OH264872   5.356   4.079  12.296 -0.3532  0.0618  0.0775
14486TIP3    H164873   5.274   4.098  12.342 -0.3381 -1.0843  0.6245
14486TIP3    H264874   5.330   4.064  12.206 -0.7044  0.0300  0.1838
14487TIP3   OH264875   4.582   4.700   0.649  0.0990 -0.5723  0.2763
14487TIP3    H164876   4.561   4.628   0.709 -1.1734 -0.0962  0.4349
14487TIP3    H264877   4.557   4.779   0.696  0.5209 -0.0857 -0.2978
14488TIP3   OH264878   4.081   2.077   4.763  0.6833  0.7481 -0.0211
14488TIP3    H164879   4.136   2.069   4.841 -1.2594 -2.4225  1.2121
14488TIP3    H264880   4.002   2.121   4.794  0.6613  1.1548 -0.6561
14489TIP3   OH264881   5.361   6.445  16.761 -0.2253 -0.0073 -0.0079
14489TIP3    H164882   5.400   6.498  16.830 -0.1686  2.2907 -1.6994
14489TIP3    H264883   5.267   6.443  16.783 -0.2784  1.0937 -0.0729
14490TIP3   OH264884   5.191   6.596  15.233  0.0214 -0.4058  0.0817
14490TIP3    H164885   5.178   6.524  15.295 -1.3778 -0.2536  0.0082
14490TIP3    H264886   5.106   6.640  15.230  0.5827  0.6769 -0.5976
14491TIP3   OH264887   0.726   4.655  13.214 -0.0027  0.0713 -0.2725
14491TIP3    H164888   0.817   4.640  13.237  0.7935  3.5981 -0.5204
14491TIP3    H264889   0.727   4.669  13.119 -0.3266  2.3713  0.0032
14492TIP3   OH264890   1.849   3.715   4.222  0.4049  0.2023  0.1531
14492TIP3    H164891   1.942   3.708   4.204  0.2924  0.2456 -0.4829
14492TIP3    H264892   1.807   3.662   4.154  0.0679 -1.9692  1.9105
14493TIP3   OH264893   5.509   0.218  15.307 -0.2726  0.2359  0.0960
14493TIP3    H164894   5.484   0.198  15.397 -1.3127  0.5028 -0.1206
14493TIP3    H264895   5.586   0.273  15.315  0.0198 -0.2668  0.8062
14494TIP3   OH264896   1.236   4.824  11.149 -0.0446  0.7737  0.5511
14494TIP3    H164897   1.231   4.799  11.241  0.6880 -0.3814  0.2991
14494TIP3    H264898   1.284   4.752  11.107 -1.9339  0.3728 -1.0681
14495TIP3   OH264899   1.063   4.651  16.118 -0.4372  0.6748  0.3707
14495TIP3    H164900   1.093   4.727  16.168 -0.2060  0.1841  0.9977
14495TIP3    H264901   0.968   4.659  16.116 -0.6272 -0.2632  2.5448
14496TIP3   OH264902   4.133   3.498  12.371 -0.4742 -0.0603  0.1166
14496TIP3    H164903   4.110   3.428  12.431 -1.8004  1.2729  1.2493
14496TIP3    H264904   4.063   3.499  12.306 -0.9405  0.7365  0.6090
14497TIP3   OH264905   1.124   1.525   2.648 -0.5550 -0.1731  0.1783
14497TIP3    H164906   1.049   1.569   2.689 -0.8383  0.5677 -1.0644
14497TIP3    H264907   1.084   1.454   2.596 -0.3172 -0.3093  0.1811
14498TIP3   OH264908   4.347   2.923  16.876 -0.6768 -0.1876 -0.9713
14498TIP3    H164909   4.337   2.910  16.970  0.9993 -1.3188 -0.9123
14498TIP3    H264910   4.375   3.014  16.867  0.9929 -0.6034 -0.2026
14499TIP3   OH264911   4.746   3.900  14.881 -0.1207  0.0330  0.0670
14499TIP3    H164912   4.765   3.830  14.943 -1.0033 -1.5401 -1.3851
14499TIP3    H264913   4.652   3.916  14.890 -0.5843 -1.2963 -1.8906
14500TIP3   OH264914   0.841   1.806  11.312  0.3574 -0.1351  0.2481
14500TIP3    H164915   0.801   1.721  11.293  0.8396  0.0257 -1.7613
14500TIP3    H264916   0.839   1.853  11.229  0.9406  1.4860  1.0940
14501TIP3   OH264917   3.783   0.199   1.344 -0.4832  0.5773 -0.0262
14501TIP3    H164918   3.792   0.248   1.425  0.1739  1.7537 -0.7766
14501TIP3    H264919   3.847   0.128   1.352  2.3296  2.8086 -0.9644
14502TIP3   OH264920   3.806   3.083   4.750 -0.2197  0.0626 -0.3536
14502TIP3    H164921   3.876   3.021   4.730  1.5947  1.5177  1.1228
14502TIP3    H264922   3.833   3.124   4.832 -2.3907  1.3135 -0.1937
14503TIP3   OH264923   1.695   3.983   1.562  0.2183  0.1291  0.0347
14503TIP3    H164924   1.659   3.987   1.473 -0.2581 -0.0230  0.2153
14503TIP3    H264925   1.766   4.047   1.563  0.4273 -0.0904 -0.5449
14504TIP3   OH264926   1.472   5.856   1.860 -0.2721  0.0433  0.4787
14504TIP3    H164927   1.478   5.900   1.775 -0.0139  1.1842  1.0642
14504TIP3    H264928   1.549   5.888   1.908 -0.8874  0.0839  1.4468
14505TIP3   OH264929   1.452   5.526  12.922 -0.3470  0.0002  0.2524
14505TIP3    H164930   1.495   5.525  12.836  0.2404  0.8645  0.5173
14505TIP3    H264931   1.517   5.489  12.982 -0.8390 -0.8084  0.3006
14506TIP3   OH264932   2.552   6.686   0.852  0.0352  0.4164  0.1256
14506TIP3    H164933   2.544   6.780   0.837 -0.2145  0.4914  0.6876
14506TIP3    H264934   2.546   6.676   0.947  1.5752 -0.0268  0.2127
14507TIP3   OH264935   4.248   0.757   3.477 -0.5700  0.0409  0.3398
14507TIP3    H164936   4.242   0.710   3.560  0.6253 -0.6197  0.0634
14507TIP3    H264937   4.256   0.689   3.411 -1.6146  0.5560 -0.3598
14508TIP3   OH264938   3.496   1.117   3.384  0.6179 -0.4789  0.3956
14508TIP3    H164939   3.491   1.209   3.355  2.3777 -0.0698  1.2443
14508TIP3    H264940   3.423   1.074   3.339 -1.0468  1.5815  0.9464
14509TIP3   OH264941   3.448   3.673  12.465  0.3547  0.7535  0.1246
14509TIP3    H164942   3.353   3.676  12.476  0.0350  0.7649 -2.1400
14509TIP3    H264943   3.477   3.763  12.482 -0.4172  1.3902 -1.6361
14510TIP3   OH264944   4.939   6.160  12.754 -0.4513 -0.1706  0.4278
14510TIP3    H164945   5.021   6.116  12.776 -0.1020  0.0144 -0.4942
14510TIP3    H264946   4.951   6.250  12.784 -0.1886 -0.0588 -0.0103
14511TIP3   OH264947   6.770   5.628  11.108  0.4009 -0.2308 -0.5928
14511TIP3    H164948   6.686   5.675  11.103  2.1129  3.6406  2.1553
14511TIP3    H264949   6.787   5.601  11.018 -2.3729  1.5317 -1.7980
14512TIP3   OH264950   3.203   2.233   4.429 -0.0527 -0.2515 -0.2531
14512TIP3    H164951   3.164   2.319   4.419  1.0603  0.1142 -1.8946
14512TIP3    H264952   3.172   2.202   4.514  0.0683  2.0297  0.6823
14513TIP3   OH264953   0.317   3.704  14.723 -0.0439  0.2973 -0.2331
14513TIP3    H164954   0.291   3.797  14.722 -1.8313 -0.1219  0.9494
14513TIP3    H264955   0.272   3.669  14.800  2.0942 -1.1635  0.4170
14514TIP3   OH264956   6.097   2.990  12.505 -0.5655  0.2625 -0.3789
14514TIP3    H164957   6.066   3.053  12.571  0.1304  0.8682 -0.6172
14514TIP3    H264958   6.022   2.933  12.489 -0.6062 -0.1976  1.2832
14515TIP3   OH264959   2.596   1.333   5.931 -0.7083  0.5840  0.0038
14515TIP3    H164960   2.566   1.421   5.956 -0.6258  0.8447 -0.7821
14515TIP3    H264961   2.522   1.276   5.950 -1.3866  1.0822 -1.0232
14516TIP3   OH264962   5.336   5.266   0.596 -0.6869 -0.4611 -0.2008
14516TIP3    H164963   5.420   5.292   0.558 -0.8066 -1.1817 -0.9967
14516TIP3    H264964   5.294   5.348   0.622 -0.0514 -0.0473 -0.4569
14517TIP3   OH264965   2.753   5.000  11.671  0.1390 -0.8417  0.3819
14517TIP3    H164966   2.714   5.075  11.716  0.0319 -1.3375  1.1452
14517TIP3    H264967   2.845   5.002  11.697  0.6282  0.2507 -1.3137
14518TIP3   OH264968   5.771   4.281  15.157 -0.0031  0.1422 -0.1703
14518TIP3    H164969   5.851   4.236  15.185  0.8873  0.7655 -1.6074
14518TIP3    H264970   5.800   4.344  15.092 -1.8822 -0.8545 -2.1097
14519TIP3   OH264971   1.322   4.321  15.440 -0.3366  0.3172  0.3405
14519TIP3    H164972   1.410   4.308  15.473 -0.5130  1.7254  1.4601
14519TIP3    H264973   1.334   4.373  15.360 -0.0431 -1.4367 -0.8157
14520TIP3   OH264974   5.068   1.553  10.515 -0.2512  0.3713  0.1262
14520TIP3    H164975   5.135   1.558  10.448 -0.7562 -0.6058 -0.4648
14520TIP3    H264976   4.999   1.498  10.477  0.0747 -1.4282  1.9723
14521TIP3   OH264977   5.505   2.485  14.905 -0.1352  0.1104  0.1219
14521TIP3    H164978   5.422   2.504  14.949  0.4226  2.5288  0.2863
14521TIP3    H264979   5.526   2.396  14.931 -2.1895 -0.2233  0.8600
14522TIP3   OH264980   3.482   3.741  11.870 -0.0879 -0.0948 -0.0004
14522TIP3    H164981   3.405   3.794  11.890  0.5832  0.3349  1.5282
14522TIP3    H264982   3.448   3.651  11.866 -0.9375  0.2409 -0.9902
14523TIP3   OH264983   2.912   0.941   5.913  0.1577  0.3532 -0.1588
14523TIP3    H164984   2.971   0.875   5.949 -0.5672  0.0697  0.5496
14523TIP3    H264985   2.840   0.946   5.976 -0.5700  0.6997 -0.9850
14524TIP3   OH264986   2.395   2.813   0.964 -0.3860 -0.0223  0.0688
14524TIP3    H164987   2.362   2.815   0.874 -1.3023  0.3415  0.4026
14524TIP3    H264988   2.456   2.739   0.965 -0.1935  0.1121 -0.9046
14525TIP3   OH264989   2.255   0.657  16.635  0.5050  0.4568 -0.4039
14525TIP3    H164990   2.188   0.700  16.688  2.1378  1.0346  1.3190
14525TIP3    H264991   2.218   0.571  16.615  0.0967 -0.1390  2.4664
14526TIP3   OH264992   3.782   6.730   5.012  0.0051 -0.4372 -0.5002
14526TIP3    H164993   3.827   6.777   5.083  2.3610 -1.4876 -1.1920
14526TIP3    H264994   3.724   6.669   5.056  0.8086 -0.4914  0.5035
14527TIP3   OH264995   0.591   4.723   3.506  0.1637  0.3172  0.0743
14527TIP3    H164996   0.550   4.639   3.524  3.3129 -1.2730  0.4500
14527TIP3    H264997   0.611   4.721   3.412 -0.8609  1.2054 -0.1737
14528TIP3   OH264998   1.100   0.976   0.121  0.2190 -0.7483 -0.0688
14528TIP3    H164999   1.129   0.885   0.123 -0.9395 -1.1479  2.5681
14528TIP3    H265000   1.156   1.021   0.184  0.1058  0.1532 -0.5914
14529TIP3   OH265001   2.728   6.122   0.656 -0.0162  0.1414  0.0304
14529TIP3    H165002   2.698   6.198   0.706 -1.4379 -0.2385 -0.1773
14529TIP3    H265003   2.748   6.156   0.569 -0.2002  0.3660  0.0757
14530TIP3   OH265004   3.329   0.068  13.256 -0.2937 -0.4084 -0.0008
14530TIP3    H165005   3.412   0.061  13.208 -0.2092 -3.7002  0.3719
14530TIP3    H265006   3.269   0.111  13.195  1.4433  1.4251 -0.5241
14531TIP3   OH265007   6.695   4.182  13.991  0.6591 -0.4186  0.3778
14531TIP3    H165008   6.652   4.263  14.022  1.4186 -0.3174  1.2129
14531TIP3    H265009   6.661   4.169  13.903  1.8542  1.8159 -0.4945
14532TIP3   OH265010   2.955   0.631  12.207 -0.1395  0.4309 -0.5577
14532TIP3    H165011   2.993   0.707  12.251  0.6434 -0.5149  0.4630
14532TIP3    H265012   2.974   0.558  12.266 -1.4019 -0.4661 -1.2250
14533TIP3   OH265013   3.741   1.543   3.324 -0.0601 -0.1114  0.2641
14533TIP3    H165014   3.807   1.520   3.259 -0.8002 -0.9530 -0.2144
14533TIP3    H265015   3.785   1.530   3.408  0.4362 -0.4937 -0.0460
14534TIP3   OH265016   6.071   4.907   4.133 -0.0423  0.0427 -0.1754
14534TIP3    H165017   6.022   4.883   4.054  2.0210 -1.2572 -1.1467
14534TIP3    H265018   6.106   4.824   4.166  0.6518  0.7909  1.0735
14535TIP3   OH265019   5.407   4.836  11.582  0.0697  0.1661  0.3078
14535TIP3    H165020   5.379   4.770  11.519 -0.0733  1.2285 -0.7646
14535TIP3    H265021   5.500   4.819  11.595  0.2567  0.3715 -0.7201
14536TIP3   OH265022   5.786   5.071   4.436 -0.2314  0.2617 -0.1119
14536TIP3    H165023   5.733   5.048   4.513 -0.0370 -0.7246 -0.2626
14536TIP3    H265024   5.807   4.987   4.396  1.1095  0.6644 -0.2875
14537TIP3   OH265025   3.556   2.910   1.199  0.3911 -0.0110 -0.0688
14537TIP3    H165026   3.511   2.833   1.163  1.2595 -0.2852 -0.6076
14537TIP3    H265027   3.587   2.957   1.122  2.9850 -1.0252  0.2820
14538TIP3   OH265028   5.206   6.313   3.912  0.5498  0.1207  0.0370
14538TIP3    H165029   5.125   6.355   3.943  0.3866  0.4817 -0.8650
14538TIP3    H265030   5.212   6.336   3.820  1.2611 -0.5926 -0.1075
14539TIP3   OH265031   1.311   4.843   3.416  0.6732  0.0057 -0.3840
14539TIP3    H165032   1.378   4.775   3.416  0.4776 -0.3053  2.2750
14539TIP3    H265033   1.318   4.884   3.331  2.6505 -1.5491 -1.0444
14540TIP3   OH265034   2.981   1.305  14.369 -0.1923 -0.0948  0.4092
14540TIP3    H165035   2.984   1.400  14.379  0.5030 -0.1054  0.3405
14540TIP3    H265036   2.920   1.276  14.436 -0.2588  0.3838  0.5605
14541TIP3   OH265037   3.225   4.686   0.766  0.3633  0.2940 -0.4892
14541TIP3    H165038   3.286   4.624   0.806  1.8418  1.0835 -1.3963
14541TIP3    H265039   3.203   4.646   0.682  0.7879  0.6612 -0.7828
14542TIP3   OH265040   5.951   5.341   3.365  0.6562 -0.5013  0.1043
14542TIP3    H165041   5.856   5.348   3.373  0.6716 -0.1399  0.0063
14542TIP3    H265042   5.983   5.358   3.454  0.6242 -0.6894  0.1510
14543TIP3   OH265043   4.180   5.249  15.804  0.3510  0.3668 -0.0389
14543TIP3    H165044   4.187   5.225  15.711  1.0918  0.2599  0.0394
14543TIP3    H265045   4.123   5.326  15.804 -0.8243 -0.4919 -0.4310
14544TIP3   OH265046   6.341   5.549  16.092  0.4114  0.0612  0.1078
14544TIP3    H165047   6.392   5.617  16.050  0.4258  0.3090  0.5261
14544TIP3    H265048   6.261   5.543  16.039  0.2558  0.6406  0.2751
14545TIP3   OH265049   4.892   0.371   5.398  0.0966 -0.3662 -0.3647
14545TIP3    H165050   4.864   0.423   5.323  0.2791  0.2887  0.0072
14545TIP3    H265051   4.911   0.436   5.466  3.5451 -0.6482 -0.8925
14546TIP3   OH265052   0.428   6.723  15.264  0.0753 -0.1822  0.1578
14546TIP3    H165053   0.434   6.636  15.303 -1.9033 -0.2260  0.4524
14546TIP3    H265054   0.408   6.706  15.172 -3.0260 -0.1289  0.7146
14547TIP3   OH265055   5.567   1.149   5.620 -0.1861  0.0553  0.2243
14547TIP3    H165056   5.655   1.184   5.606  0.1117 -0.3500  1.0290
14547TIP3    H265057   5.553   1.156   5.714 -2.3420  3.2252 -0.1901
14548TIP3   OH265058   3.655   1.324   2.890 -0.1592 -0.7378  0.0291
14548TIP3    H165059   3.644   1.412   2.924  2.3164 -0.2785 -0.1601
14548TIP3    H265060   3.607   1.324   2.807  0.1991  0.5906 -0.1994
14549TIP3   OH265061   4.871   1.399  15.459 -0.5749  0.3760  0.2752
14549TIP3    H165062   4.904   1.488  15.469 -1.9146  0.8457  0.7486
14549TIP3    H265063   4.795   1.396  15.517  0.5792 -1.6904  1.8202
14550TIP3   OH265064   4.044   5.025   3.798 -0.3344 -0.4183  0.0129
14550TIP3    H165065   4.040   5.087   3.725  1.1614  0.4539  0.6191
14550TIP3    H265066   4.117   4.967   3.776  0.2764 -0.0072  0.9015
14551TIP3   OH265067   4.663   0.072   5.386  0.0778  0.3768 -0.6387
14551TIP3    H165068   4.615   0.059   5.304  0.0120  0.8865 -0.6843
14551TIP3    H265069   4.663  -0.014   5.428  0.3356  0.0504 -1.2953
14552TIP3   OH265070   3.979   3.970  17.244 -0.2752 -0.8169 -0.5120
14552TIP3    H165071   4.038   4.033  17.285 -0.3855  0.1183 -1.7252
14552TIP3    H265072   3.895   3.985  17.288  0.3088 -2.1228  1.1883
14553TIP3   OH265073   6.622   4.864   2.590 -0.1525  0.2618 -0.4766
14553TIP3    H165074   6.534   4.835   2.568  0.5884 -1.6080 -1.1336
14553TIP3    H265075   6.653   4.801   2.654  0.6337  1.0499 -0.0559
14554TIP3   OH265076   6.384   0.885  16.630 -0.1819 -0.1998  0.1043
14554TIP3    H165077   6.291   0.881  16.610 -0.5214  0.4843  1.4435
14554TIP3    H265078   6.401   0.977  16.649  0.0074 -0.7683  3.1324
14555TIP3   OH265079   5.164   3.513   0.332  0.5011 -0.7197  0.4777
14555TIP3    H165080   5.134   3.596   0.369  0.7034 -0.9612  1.2092
14555TIP3    H265081   5.233   3.484   0.392 -1.2821 -2.6624  1.7452
14556TIP3   OH265082   0.164   5.625   4.049 -0.1901  0.1795  0.0311
14556TIP3    H165083   0.082   5.619   4.000  0.6510  1.2867 -1.5980
14556TIP3    H265084   0.143   5.681   4.124 -1.1902 -0.4911  0.2642
14557TIP3   OH265085   0.814   0.156   2.741  0.1965 -0.5950 -0.0749
14557TIP3    H165086   0.804   0.104   2.821  1.4415 -0.8486 -0.0756
14557TIP3    H265087   0.865   0.232   2.769 -0.4824 -0.0235 -0.3584
14558TIP3   OH265088   6.729   5.796   6.013  0.3263 -0.6738 -1.0982
14558TIP3    H165089   6.697   5.732   6.077  0.1743  0.2847 -0.2002
14558TIP3    H265090   6.810   5.829   6.051  1.2201 -1.4033 -2.2793
14559TIP3   OH265091   3.777   1.430   5.556 -0.0201  0.3849  0.3605
14559TIP3    H165092   3.720   1.484   5.610 -0.1038  0.5958  0.0617
14559TIP3    H265093   3.756   1.340   5.580 -0.2693  0.4714  0.4628
14560TIP3   OH265094   3.392   6.132  11.446  0.0750 -0.1870 -0.2232
14560TIP3    H165095   3.401   6.119  11.541 -2.5381 -0.9552  0.0027
14560TIP3    H265096   3.481   6.126  11.413  1.0386 -0.1997  2.1519
14561TIP3   OH265097   2.547   3.687   3.998 -0.1693  0.7676 -0.0429
14561TIP3    H165098   2.641   3.706   3.993  0.4687 -2.2317 -1.6845
14561TIP3    H265099   2.535   3.652   4.086 -0.0117  2.1722  0.5622
14562TIP3   OH265100   5.867   0.444   1.198  0.0118  0.1819  0.4078
14562TIP3    H165101   5.864   0.526   1.247  0.5077 -0.2774  1.2322
14562TIP3    H265102   5.951   0.448   1.151 -0.7501  0.9078 -0.9490
14563TIP3   OH265103   0.432   5.438   5.454 -0.8903  0.1518  0.3489
14563TIP3    H165104   0.525   5.443   5.433 -0.7623 -0.0682  0.8472
14563TIP3    H265105   0.427   5.460   5.547 -1.2569 -0.4892  0.4893
14564TIP3   OH265106   5.650   1.886   6.067 -0.2738  0.2430  0.5818
14564TIP3    H165107   5.594   1.930   6.130  2.7401  0.5152  3.3039
14564TIP3    H265108   5.697   1.956   6.022  0.4027 -0.0065  0.8736
14565TIP3   OH265109   0.528   6.654   2.632 -0.1692 -0.6283  0.0394
14565TIP3    H165110   0.596   6.707   2.590 -0.4417 -0.4833 -0.2190
14565TIP3    H265111   0.497   6.709   2.705 -0.0704 -0.6578  0.1035
14566TIP3   OH265112   1.017   0.908  16.284  0.3335  0.3642  0.2604
14566TIP3    H165113   1.094   0.951  16.320 -0.3029  1.6933  0.1027
14566TIP3    H265114   1.052   0.837  16.229  1.4127  0.6429  0.5705
14567TIP3   OH265115   4.358   2.259   3.957 -0.3561  0.3031  0.3274
14567TIP3    H165116   4.268   2.262   3.925  0.4082  0.0936 -1.9609
14567TIP3    H265117   4.390   2.349   3.948  0.0029  0.1569  0.1218
14568TIP3   OH265118   3.550   6.403  12.066  0.6354 -0.0492 -0.1881
14568TIP3    H165119   3.640   6.418  12.093  0.6595  1.0879 -0.8612
14568TIP3    H265120   3.497   6.454  12.128  0.4433 -0.6209  0.1340
14569TIP3   OH265121   3.507   1.301   4.181  0.1903 -0.0626 -0.5964
14569TIP3    H165122   3.570   1.320   4.251 -0.0518  0.9134 -0.6419
14569TIP3    H265123   3.475   1.213   4.202  1.3344 -0.4483 -0.4009
14570TIP3   OH265124   1.090   5.225  13.633 -0.4589  0.3071 -0.3632
14570TIP3    H165125   1.144   5.258  13.561 -1.1322 -0.0355 -1.0427
14570TIP3    H265126   1.001   5.249  13.609 -0.5637  1.6105  1.1541
14571TIP3   OH265127   0.128   1.092  16.093  0.3245  0.3022  0.0635
14571TIP3    H165128   0.137   0.996  16.093 -1.3257  0.1003  1.1771
14571TIP3    H265129   0.072   1.111  16.018 -0.4608  0.2347  0.6190
14572TIP3   OH265130   2.234   6.416   4.766  0.2764  0.2588 -0.3809
14572TIP3    H165131   2.196   6.340   4.722 -0.3258  1.0750 -1.3131
14572TIP3    H265132   2.230   6.486   4.701  0.0452  1.3114  0.7366
14573TIP3   OH265133   6.134   6.207   2.759 -0.0050  0.0745  0.2587
14573TIP3    H165134   6.216   6.216   2.711 -0.2795 -0.7523 -0.3969
14573TIP3    H265135   6.160   6.173   2.844  0.2406 -1.6846 -0.4734
14574TIP3   OH265136   5.401   3.481   0.108 -0.0336  0.3324  0.2827
14574TIP3    H165137   5.341   3.516   0.173 -1.1294  0.1786 -0.6112
14574TIP3    H265138   5.385   3.534   0.030  2.4072  1.6127  0.5435
14575TIP3   OH265139   3.471   0.129   2.289  0.0205  0.4995 -0.1325
14575TIP3    H165140   3.429   0.045   2.273  1.9564 -1.2810  3.0624
14575TIP3    H265141   3.403   0.182   2.330 -0.7353 -0.1450 -0.5353
14576TIP3   OH265142   3.833   1.071  15.467  0.1631 -0.4535  0.4510
14576TIP3    H165143   3.888   1.117  15.530 -0.0324  0.8420 -0.2715
14576TIP3    H265144   3.764   1.134  15.445 -0.8690 -1.5742  0.3712
14577TIP3   OH265145   2.750   6.489  13.304 -0.2843 -1.0194  0.0667
14577TIP3    H165146   2.661   6.523  13.312 -0.1445  0.1211 -2.2976
14577TIP3    H265147   2.805   6.566  13.317  0.2157 -1.1530 -1.1241
14578TIP3   OH265148   4.235   3.774   4.211  0.0417 -0.0770 -0.3445
14578TIP3    H165149   4.274   3.856   4.242  0.0454  1.0681 -3.0422
14578TIP3    H265150   4.308   3.727   4.169 -0.6335  0.3276 -2.0713
14579TIP3   OH265151   1.097   0.806  11.666 -0.0536  0.4596 -0.4955
14579TIP3    H165152   1.158   0.880  11.668 -0.2912  0.6465 -0.1275
14579TIP3    H265153   1.146   0.736  11.622  1.2693 -0.1068  1.7037
14580TIP3   OH265154   3.418   2.418  13.985  0.5691  0.0519 -0.4439
14580TIP3    H165155   3.352   2.392  13.922 -0.2529  0.1929  0.3441
14580TIP3    H265156   3.448   2.336  14.025  0.6729  0.0124 -0.6017
14581TIP3   OH265157   4.946   4.403  14.887 -0.0229 -0.1790 -0.2518
14581TIP3    H165158   4.925   4.321  14.842 -0.2892 -0.5186  0.4869
14581TIP3    H265159   5.037   4.392  14.916 -0.0637 -0.2122 -0.1395
14582TIP3   OH265160   3.790   6.395   2.489 -0.7378 -0.2311  0.3454
14582TIP3    H165161   3.798   6.485   2.458  0.3213 -0.4518 -0.0558
14582TIP3    H265162   3.818   6.341   2.415 -2.0810 -0.9397  0.3119
14583TIP3   OH265163   3.599   2.988   2.224 -0.0916  0.3403 -0.4323
14583TIP3    H165164   3.571   2.897   2.223 -1.6350  0.7766  0.2189
14583TIP3    H265165   3.605   3.011   2.317  0.6276  0.8177 -0.5821
14584TIP3   OH265166   3.233   0.928  15.023 -0.6489  0.4132 -0.6291
14584TIP3    H165167   3.230   0.832  15.033 -0.5475  0.4145 -0.5799
14584TIP3    H265168   3.324   0.950  15.043 -0.6568  0.5125 -0.7066
14585TIP3   OH265169   6.480   1.906  13.036  0.1217 -0.6658  0.6410
14585TIP3    H165170   6.523   1.877  12.955  0.1604 -1.1687  0.8376
14585TIP3    H265171   6.416   1.971  13.007 -0.6859 -1.6888  0.0621
14586TIP3   OH265172   0.853   0.389  13.010 -0.1985 -0.3784 -0.1479
14586TIP3    H165173   0.939   0.424  13.034 -0.8617  1.6934 -0.5280
14586TIP3    H265174   0.872   0.307  12.964  1.5527 -0.0657 -0.0489
14587TIP3   OH265175   3.970   0.754   2.809 -0.1247 -0.3057 -0.5867
14587TIP3    H165176   4.053   0.784   2.771  1.1378 -0.7269  1.6577
14587TIP3    H265177   3.938   0.830   2.857  0.1754 -0.8120  0.4432
14588TIP3   OH265178   1.529   0.114   6.761 -0.1103  0.2628  0.0257
14588TIP3    H165179   1.511   0.132   6.854  0.2945  0.6804  0.0294
14588TIP3    H265180   1.476   0.038   6.741  0.1643 -0.1310  0.7359
14589TIP3   OH265181   1.873   6.727  17.116 -0.3811  0.2304  0.4233
14589TIP3    H165182   1.951   6.750  17.066 -0.7350  0.2809 -0.1136
14589TIP3    H265183   1.857   6.803  17.172 -0.6196  0.6440 -0.1913
14590TIP3   OH265184   4.997   1.856  14.347  0.2867  0.2527  0.1638
14590TIP3    H165185   5.016   1.769  14.314 -0.9603  0.1813 -0.4182
14590TIP3    H265186   5.083   1.897  14.357  1.0421 -1.6429  2.2444
14591TIP3   OH265187   4.009   0.949  15.799 -0.6671  0.2817  0.4044
14591TIP3    H165188   4.042   0.877  15.745  0.6060  1.9756 -1.2050
14591TIP3    H265189   3.972   1.011  15.736 -0.7416  1.5236  1.6255
14592TIP3   OH265190   1.153   4.380   3.388 -0.1176  0.4571 -0.1912
14592TIP3    H165191   1.231   4.380   3.445 -1.1680  1.6982  1.3271
14592TIP3    H265192   1.079   4.383   3.449 -1.3020  1.7389 -1.6035
14593TIP3   OH265193   0.863   6.206   6.744  0.5905 -0.2570  0.8275
14593TIP3    H165194   0.814   6.260   6.805 -0.1423  0.0637 -0.0268
14593TIP3    H265195   0.905   6.268   6.684 -0.0467 -0.6099 -0.0022
14594TIP3   OH265196   6.675   0.504   1.838  0.2573 -0.1696  0.1706
14594TIP3    H165197   6.723   0.433   1.795 -1.3985 -0.6076 -1.0827
14594TIP3    H265198   6.636   0.462   1.916  0.5705 -0.2215  0.3014
14595TIP3   OH265199   4.000   1.670  17.158  0.0490 -0.4529  0.0846
14595TIP3    H165200   4.052   1.595  17.128  0.5953 -0.5629  1.2393
14595TIP3    H265201   3.923   1.631  17.199  0.3149 -0.4060  0.6500
14596TIP3   OH265202   4.214   4.795   3.688  0.4858  0.2963  0.1932
14596TIP3    H165203   4.247   4.732   3.752  1.3445  1.8618  1.3569
14596TIP3    H265204   4.136   4.754   3.652  1.0291 -1.4269  0.8994
14597TIP3   OH265205   2.375   5.350   3.480  0.0137 -0.0868 -0.2548
14597TIP3    H165206   2.291   5.306   3.497  0.1827 -0.8736 -1.3315
14597TIP3    H265207   2.360   5.400   3.399  0.6373 -0.4180 -0.5823
14598TIP3   OH265208   5.132   1.818   1.994 -0.2932  0.1834 -0.1333
14598TIP3    H165209   5.088   1.817   2.079 -0.8911  0.1621 -0.4385
14598TIP3    H265210   5.074   1.869   1.937  0.5639  1.0279 -0.2847
14599TIP3   OH265211   0.973   2.042  12.176  0.1757  0.5175  0.3102
14599TIP3    H165212   0.940   2.124  12.213  0.7236  0.2662  1.3952
14599TIP3    H265213   1.038   2.069  12.111  1.5102  0.9676  1.7600
14600TIP3   OH265214   3.709   6.327  14.742  0.1536 -0.1852 -0.4845
14600TIP3    H165215   3.750   6.262  14.798  0.8494  0.4950 -0.1808
14600TIP3    H265216   3.713   6.408  14.792 -0.7577  0.0874 -0.8263
14601TIP3   OH265217   4.694   0.206   6.193 -0.5707  0.7935  0.2620
14601TIP3    H165218   4.737   0.147   6.256 -1.4142  1.8708  1.9100
14601TIP3    H265219   4.682   0.287   6.242  0.0588  2.1806 -1.7897
14602TIP3   OH265220   4.798   6.433   3.541 -0.5244  0.2604 -0.0915
14602TIP3    H165221   4.714   6.466   3.511 -0.5173 -0.1734 -0.6175
14602TIP3    H265222   4.805   6.346   3.502 -0.4927 -0.3215  1.1592
14603TIP3   OH265223   3.151   0.788  15.659  0.4325  0.4833  0.2504
14603TIP3    H165224   3.198   0.724  15.606 -0.2936 -0.3562  0.5961
14603TIP3    H265225   3.219   0.845  15.694  0.9494  0.8490 -1.2997
14604TIP3   OH265226   1.440   0.198  11.692  0.5243  0.0705 -0.1885
14604TIP3    H165227   1.388   0.142  11.635  1.2480  0.2074 -1.0135
14604TIP3    H265228   1.380   0.225  11.761 -0.0624 -1.0240 -0.2504
14605TIP3   OH265229   2.606   4.814  16.828 -0.4677 -0.5573 -0.5147
14605TIP3    H165230   2.666   4.863  16.771  0.1569 -1.3724 -0.5750
14605TIP3    H265231   2.640   4.725  16.827 -2.6071 -1.4299 -1.8194
14606TIP3   OH265232   0.901   4.138  17.299 -0.0530  0.6949  0.0451
14606TIP3    H165233   0.870   4.227  17.316  0.3146  0.7697  0.3438
14606TIP3    H265234   0.916   4.134  17.205 -2.4678  0.1766 -0.3775
14607TIP3   OH265235   5.325   0.049   2.096  0.0764  0.5591 -0.2819
14607TIP3    H165236   5.340   0.017   2.185  1.2850  0.4469 -0.5058
14607TIP3    H265237   5.317   0.144   2.105  2.0154  0.7664 -0.2228
14608TIP3   OH265238   6.465   6.757  13.788 -0.3309 -0.3336  0.1875
14608TIP3    H165239   6.532   6.803  13.838 -0.6074  0.3142 -0.0301
14608TIP3    H265240   6.507   6.736  13.705 -1.1018  2.2440 -0.9419
14609TIP3   OH265241   6.123   5.105  12.267  0.6077  0.4244 -0.3182
14609TIP3    H165242   6.101   5.128  12.177 -0.9813 -0.2784 -0.1369
14609TIP3    H265243   6.052   5.048  12.296  1.6551 -0.2629  1.0294
14610TIP3   OH265244   2.682   4.291   1.553  0.4143 -0.1414  0.4073
14610TIP3    H165245   2.611   4.271   1.615 -0.4630  3.4986  0.8082
14610TIP3    H265246   2.650   4.258   1.469 -2.2373  2.0075  0.4262
14611TIP3   OH265247   0.967   2.291   4.595  0.1569 -0.4306 -0.1473
14611TIP3    H165248   0.973   2.253   4.507 -1.0207  1.2359 -0.9883
14611TIP3    H265249   1.058   2.313   4.617  0.3645 -0.0226 -1.3313
14612TIP3   OH265250   2.239   5.342  15.505  0.1638 -0.2578  0.0763
14612TIP3    H165251   2.315   5.385  15.543  0.1635  0.6511 -0.9142
14612TIP3    H265252   2.220   5.269  15.564  1.0416  0.2504  0.9983
14613TIP3   OH265253   0.793   1.851  14.902 -0.4558 -0.1501 -0.5465
14613TIP3    H165254   0.795   1.887  14.813 -3.2536  4.6212  0.9405
14613TIP3    H265255   0.873   1.884  14.943 -1.1917  1.3712 -0.2506
14614TIP3   OH265256   5.810   5.278   2.924  0.3685 -0.6356  0.3842
14614TIP3    H165257   5.844   5.211   2.864  0.2811 -0.9936  0.7302
14614TIP3    H265258   5.723   5.299   2.890  0.8293  0.1101 -0.3647
14615TIP3   OH265259   0.333   3.908   4.210 -0.6394 -0.0504  0.2707
14615TIP3    H165260   0.285   3.988   4.189  2.3295  1.6557 -0.7109
14615TIP3    H265261   0.325   3.854   4.132 -1.2953  0.0226  0.2838
14616TIP3   OH265262   3.158   6.454   4.905  0.2199 -0.1774 -0.3709
14616TIP3    H165263   3.132   6.529   4.851 -1.1611  0.4396  1.0587
14616TIP3    H265264   3.211   6.492   4.975  0.4115 -0.6971 -0.2252
14617TIP3   OH265265   1.139   1.106   4.637  0.2744  0.1230  0.5638
14617TIP3    H165266   1.208   1.172   4.630  0.2008  0.0968 -0.7623
14617TIP3    H265267   1.058   1.156   4.646  0.1984  0.2439 -0.6313
14618TIP3   OH265268   0.891   4.668   0.905  0.1728  0.6468  0.2569
14618TIP3    H165269   0.822   4.731   0.924  0.9698  1.6676 -0.1520
14618TIP3    H265270   0.853   4.610   0.838  0.0828  1.9087 -0.8218
14619TIP3   OH265271   4.827   1.449   1.660  0.4841  0.3297  0.2092
14619TIP3    H165272   4.909   1.418   1.700 -0.0788  0.6712  1.6990
14619TIP3    H265273   4.855   1.488   1.577  1.5374 -1.5733 -0.4043
14620TIP3   OH265274   0.747   0.605   4.855  0.4370 -0.4382 -0.0329
14620TIP3    H165275   0.794   0.688   4.869 -1.1362  0.4651  0.0817
14620TIP3    H265276   0.787   0.544   4.918  0.3028  0.7688  1.2689
14621TIP3   OH265277   5.889   0.670  14.866 -0.6134 -0.0508  0.8744
14621TIP3    H165278   5.887   0.758  14.905  0.5732  0.0379  0.7497
14621TIP3    H265279   5.978   0.659  14.833 -1.2884 -0.5304 -0.9303
14622TIP3   OH265280   3.850   4.258  15.718 -0.2887  0.0623  0.2538
14622TIP3    H165281   3.906   4.187  15.688  0.7405  0.8760  0.1965
14622TIP3    H265282   3.908   4.334  15.724 -1.0828  0.6183  1.5110
14623TIP3   OH265283   5.597   1.611   2.139  0.2290 -0.5291  0.1094
14623TIP3    H165284   5.587   1.561   2.057  1.1919 -0.7514  0.1222
14623TIP3    H265285   5.550   1.692   2.122  2.8471  0.7376 -1.7932
14624TIP3   OH265286   0.635   0.037  11.961 -0.5670 -0.2451  0.3449
14624TIP3    H165287   0.629  -0.023  11.887  0.8947  0.3285 -0.2619
14624TIP3    H265288   0.691  -0.008  12.025  0.8204  0.5780 -0.2558
14625TIP3   OH265289   6.685   5.357   2.571  0.0046  0.0050 -0.1263
14625TIP3    H165290   6.632   5.430   2.603  1.2525  0.2618  1.4709
14625TIP3    H265291   6.775   5.389   2.576  0.6528 -1.9042  1.4301
14626TIP3   OH265292   4.588   4.470   1.095 -1.1738  0.2414  0.2513
14626TIP3    H165293   4.583   4.504   1.184 -1.2758  0.1365  0.2850
14626TIP3    H265294   4.503   4.429   1.079 -0.7057 -0.8887  0.5648
14627TIP3   OH265295   3.204   4.475   3.842 -0.2636  0.0205 -0.9799
14627TIP3    H165296   3.157   4.402   3.800  0.9156 -0.4087 -1.5931
14627TIP3    H265297   3.289   4.477   3.799  0.9717 -0.3566  1.2643
14628TIP3   OH265298   1.725   5.810   2.397  0.3661  0.2159  0.2309
14628TIP3    H165299   1.632   5.791   2.407  0.5226 -0.2958  0.7484
14628TIP3    H265300   1.763   5.728   2.367  0.6878  0.3667  0.2197
14629TIP3   OH265301   3.015   4.697  15.810  0.3405 -0.4594  0.0410
14629TIP3    H165302   3.007   4.730  15.721  0.8263 -3.4670 -1.2220
14629TIP3    H265303   3.097   4.735  15.842  0.1675  0.6537 -0.7547
14630TIP3   OH265304   0.670   2.186   5.297  0.8395 -0.0016 -0.0561
14630TIP3    H165305   0.625   2.269   5.284  1.3936  0.5907  1.5708
14630TIP3    H265306   0.662   2.141   5.213 -0.3115  1.2761 -0.6657
14631TIP3   OH265307   4.780   2.301  17.148  0.0525  0.5171  0.0114
14631TIP3    H165308   4.724   2.236  17.105 -0.4696  0.1536  1.1905
14631TIP3    H265309   4.751   2.385  17.113  1.2976  0.1283 -2.1837
14632TIP3   OH265310   4.378   3.346  16.564  0.1783  0.5682 -0.5518
14632TIP3    H165311   4.289   3.309  16.569  0.7032 -0.9869 -1.7941
14632TIP3    H265312   4.384   3.381  16.475  1.8949 -2.5609 -1.8413
14633TIP3   OH265313   1.571   4.011   3.393  0.1071  0.4551  0.0938
14633TIP3    H165314   1.641   3.961   3.436  0.3802  1.3505  0.7057
14633TIP3    H265315   1.505   4.024   3.461  0.4369  1.6782  0.2049
14634TIP3   OH265316   6.626   4.720   1.849 -0.0380  0.1986 -0.9819
14634TIP3    H165317   6.650   4.654   1.915  1.6131  0.3912 -1.3445
14634TIP3    H265318   6.533   4.706   1.835  0.1053 -1.5611 -0.4877
14635TIP3   OH265319   0.010   2.723  13.305  0.7817 -0.2239  0.4121
14635TIP3    H165320   0.004   2.743  13.398 -0.4845  0.4342  0.2163
14635TIP3    H265321   0.061   2.795  13.268  0.8074 -0.1853  0.5228
14636TIP3   OH265322   3.231   4.312  15.048  0.0466  0.2164  0.0626
14636TIP3    H165323   3.296   4.379  15.069 -0.4742  0.5885  0.4985
14636TIP3    H265324   3.174   4.353  14.983 -0.4777  0.3222  0.5799
14637TIP3   OH265325   4.708   4.587  14.814  0.2353 -0.0230  0.3984
14637TIP3    H165326   4.759   4.560  14.890 -0.5099 -1.8097  0.3142
14637TIP3    H265327   4.719   4.682  14.810  1.2717 -0.0401  2.0006
14638TIP3   OH265328   3.626   4.355   2.479 -0.5779 -0.2773 -0.3047
14638TIP3    H165329   3.686   4.361   2.554 -1.2564 -0.8831  0.3008
14638TIP3    H265330   3.652   4.428   2.422  0.0171  0.1343  0.4669
14639TIP3   OH265331   4.849   4.316   3.453  0.1912 -0.5612  0.0547
14639TIP3    H165332   4.852   4.313   3.549 -0.7717  0.4619  0.1501
14639TIP3    H265333   4.795   4.241   3.428 -2.3745  0.9853  0.5791
14640TIP3   OH265334   5.063   4.379  14.476 -0.4765  0.5814  0.2327
14640TIP3    H165335   5.139   4.335  14.515 -0.1292  1.5061  0.6199
14640TIP3    H265336   4.988   4.332  14.511 -0.1293  0.5819  0.9873
14641TIP3   OH265337   6.500   3.891  14.850 -0.1032  0.0280  0.6719
14641TIP3    H165338   6.555   3.827  14.804  0.4119  1.2226 -0.4315
14641TIP3    H265339   6.520   3.877  14.942 -0.1087 -1.4813  0.4819
14642TIP3   OH265340   6.478   1.915   1.905  0.0150 -0.4435  0.0241
14642TIP3    H165341   6.512   1.827   1.888  2.3021  0.4971 -0.6391
14642TIP3    H265342   6.492   1.929   1.998  1.6998 -0.0506 -0.2425
14643TIP3   OH265343   0.827   0.377   4.976 -0.4027 -0.0472  0.2874
14643TIP3    H165344   0.849   0.340   5.062  0.5620 -0.2184 -0.0342
14643TIP3    H265345   0.905   0.365   4.923 -0.7124  0.7909 -0.3850
14644TIP3   OH265346   6.330   1.609  16.684 -0.1169 -0.0262  0.3623
14644TIP3    H165347   6.387   1.547  16.639 -0.7104 -0.3581  0.0559
14644TIP3    H265348   6.384   1.687  16.696  1.6824 -1.5532  3.4517
14645TIP3   OH265349   4.601   1.755  15.420  0.0012 -0.3162 -0.0090
14645TIP3    H165350   4.670   1.810  15.457 -0.9835  0.5823  0.5293
14645TIP3    H265351   4.607   1.673  15.470 -0.1997  0.2589  0.9842
14646TIP3   OH265352   0.063   0.133   2.812 -0.1758  0.0274  0.0280
14646TIP3    H165353   0.031   0.081   2.739  0.8762  0.9379 -1.1311
14646TIP3    H265354   0.153   0.104   2.825  1.0868  2.6964 -1.8689
14647TIP3   OH265355   5.443   5.007  14.283  0.0357  0.4652  0.9922
14647TIP3    H165356   5.399   4.930  14.248  0.5677  0.0799  1.1559
14647TIP3    H265357   5.530   5.006  14.242  0.6498  0.0320  2.2628
14648TIP3   OH265358   0.409   0.857  14.233  0.5066  0.3894 -0.1027
14648TIP3    H165359   0.383   0.872  14.324 -1.3693  1.4040 -0.7541
14648TIP3    H265360   0.488   0.911  14.221  0.5843  0.4943  0.8258
14649TIP3   OH265361   6.377   5.369  13.603 -0.6475 -0.0651  0.3902
14649TIP3    H165362   6.424   5.330  13.677 -1.2613  0.3136  0.9828
14649TIP3    H265363   6.433   5.350  13.527  1.3912  1.8929  1.2809
14650TIP3   OH265364   5.865   3.301   3.042 -0.8000 -0.1850 -0.5562
14650TIP3    H165365   5.802   3.267   2.979  0.6947 -0.3263 -2.0695
14650TIP3    H265366   5.943   3.248   3.029 -0.2748  0.1208  1.0978
14651TIP3   OH265367   6.125   6.369   4.484  0.0337 -0.1934 -0.3380
14651TIP3    H165368   6.151   6.278   4.499  0.6769  0.0683  0.1542
14651TIP3    H265369   6.116   6.375   4.388 -0.9761 -1.0187 -0.3196
14652TIP3   OH265370   1.017   1.539  14.177 -0.4857  0.5237 -0.0929
14652TIP3    H165371   0.985   1.550  14.266 -1.5574  2.3806 -0.6690
14652TIP3    H265372   1.001   1.623  14.135 -0.5965 -0.5119 -2.2373
14653TIP3   OH265373   2.418   6.086  14.797 -0.1488 -0.6446 -0.1902
14653TIP3    H165374   2.408   6.120  14.886  1.3209 -0.1067 -0.2104
14653TIP3    H265375   2.381   6.153  14.741 -1.6218 -1.2428  0.0175
14654TIP3   OH265376   0.951   0.947  12.571 -0.0638  0.7247  0.3987
14654TIP3    H165377   0.999   0.910  12.496  1.8007  1.9194  0.9386
14654TIP3    H265378   0.951   0.876  12.636  2.8469  1.3008  1.1548
14655TIP3   OH265379   2.299   3.988  16.428 -0.0985 -0.1994 -0.3502
14655TIP3    H165380   2.264   3.958  16.512  2.7259 -0.9416  0.6576
14655TIP3    H265381   2.288   3.913  16.370 -1.1933 -0.0059 -0.4303
14656TIP3   OH265382   0.530   6.652  16.680 -0.3481 -0.5426 -0.0528
14656TIP3    H165383   0.540   6.747  16.694 -1.1701 -0.6274  1.4197
14656TIP3    H265384   0.498   6.620  16.765  2.7453 -2.6238  0.4585
14657TIP3   OH265385   4.241   0.676  13.651 -0.5720 -0.0126 -0.4518
14657TIP3    H165386   4.287   0.735  13.592 -1.2678  1.7427  0.6857
14657TIP3    H265387   4.154   0.666  13.612  0.2322 -2.1978 -1.8523
14658TIP3   OH265388   5.639   0.016   6.149  0.1710 -0.1867 -0.3193
14658TIP3    H165389   5.613  -0.029   6.069 -0.2366  0.8073 -0.7571
14658TIP3    H265390   5.717   0.066   6.125  1.3500 -1.5668  0.4752
14659TIP3   OH265391   4.488   4.227  16.819 -0.8878  0.7365 -0.1318
14659TIP3    H165392   4.487   4.143  16.866  1.3825  1.0220  0.5126
14659TIP3    H265393   4.539   4.210  16.740 -1.6839  1.1652 -0.7578
14660TIP3   OH265394   3.302   2.072  16.343  0.2120 -0.5730 -0.2336
14660TIP3    H165395   3.381   2.102  16.298  0.2476  0.8946  0.7307
14660TIP3    H265396   3.230   2.110  16.293  0.2112 -0.0433  0.1552
14661TIP3   OH265397   1.644   1.208   4.013 -0.4578 -0.1495 -0.5716
14661TIP3    H165398   1.648   1.213   3.917  1.0583  0.1013 -0.5187
14661TIP3    H265399   1.732   1.179   4.039 -1.0412 -0.8350  0.7126
14662TIP3   OH265400   0.892   6.477   3.400 -0.2162  0.4166  0.5271
14662TIP3    H165401   0.892   6.392   3.355  1.7249  0.5139  0.2591
14662TIP3    H265402   0.965   6.471   3.461 -0.6498  1.5667  1.1780
14663TIP3   OH265403   2.302   1.513  12.859 -0.6431 -0.2550  0.3532
14663TIP3    H165404   2.372   1.451  12.876  0.5282  1.2977  1.5021
14663TIP3    H265405   2.336   1.597  12.889 -2.5952  0.7597 -0.0670
14664TIP3   OH265406   0.404   6.470  16.279 -0.1840  0.1632 -0.3248
14664TIP3    H165407   0.426   6.377  16.282  0.2240  0.2816  0.5188
14664TIP3    H265408   0.474   6.510  16.226 -0.4385 -0.0193 -0.8108
14665TIP3   OH265409   4.453   3.860  13.044  0.0208 -0.5081  0.3540
14665TIP3    H165410   4.408   3.836  13.125 -1.1563 -1.0858 -0.4349
14665TIP3    H265411   4.544   3.834  13.058 -0.2338 -0.9112  1.3496
14666TIP3   OH265412   5.582   4.107  16.415  0.9005  0.5895 -0.2596
14666TIP3    H165413   5.539   4.038  16.464 -0.2034  1.1134 -0.4498
14666TIP3    H265414   5.636   4.061  16.350  2.9366 -0.1281  1.8193
14667TIP3   OH265415   4.480   2.785  16.642 -0.1664  0.4089 -0.0804
14667TIP3    H165416   4.391   2.820  16.640 -0.1860  0.3619 -2.2424
14667TIP3    H265417   4.500   2.766  16.551  1.1610 -1.9292  0.6335
14668TIP3   OH265418   0.110   3.251   3.312  0.6494 -0.1317  0.0969
14668TIP3    H165419   0.157   3.221   3.390 -1.5982 -1.1106  1.2019
14668TIP3    H265420   0.126   3.183   3.247 -0.8045 -1.5552  1.1405
14669TIP3   OH265421   2.514   2.012  14.439 -0.0123 -0.1180 -0.3565
14669TIP3    H165422   2.427   2.047  14.419  0.6376  1.5017 -0.4928
14669TIP3    H265423   2.575   2.073  14.398  1.2549 -3.0992 -3.4212
14670TIP3   OH265424   2.442   3.906   0.696  0.3053 -0.0136  0.1702
14670TIP3    H165425   2.495   3.983   0.676 -0.0336  0.2800  0.3870
14670TIP3    H265426   2.440   3.857   0.615  2.8088 -1.2070  0.7503
14671TIP3   OH265427   4.109   1.369  13.391  0.0748  0.0370 -0.0162
14671TIP3    H165428   4.177   1.435  13.378  0.0975  0.3326  1.4957
14671TIP3    H265429   4.027   1.416  13.374  0.1168  0.3471  0.6196
14672TIP3   OH265430   2.628   5.457  11.997 -0.1792 -0.1592  0.4923
14672TIP3    H165431   2.655   5.517  11.927  1.1648 -1.8059 -0.4829
14672TIP3    H265432   2.536   5.438  11.979 -0.2256  0.5238 -0.0097
14673TIP3   OH265433   0.541   4.192   4.264 -0.5351  0.2146  1.4861
14673TIP3    H165434   0.522   4.102   4.288 -0.3158  0.2257  1.6936
14673TIP3    H265435   0.635   4.203   4.279 -0.5251  0.4249  1.2931
14674TIP3   OH265436   0.049   1.404  12.655 -0.2761  0.1607  0.3508
14674TIP3    H165437   0.055   1.346  12.579 -2.1568 -0.0299  0.2904
14674TIP3    H265438   0.137   1.406  12.691  1.1084  1.5946 -2.7750
14675TIP3   OH265439   5.433   4.197   5.420 -0.4304  0.1339 -0.5746
14675TIP3    H165440   5.527   4.186   5.434 -0.2111  1.8013 -0.6141
14675TIP3    H265441   5.422   4.181   5.326 -0.1810 -0.0259 -0.5792
14676TIP3   OH265442   5.113   3.945   1.362 -0.7241 -0.5528 -0.6551
14676TIP3    H165443   5.063   3.871   1.396  0.0503 -0.2774  1.2175
14676TIP3    H265444   5.203   3.926   1.387 -0.2117  0.0548 -1.9624
14677TIP3   OH265445   4.020   2.832   5.746  0.3575 -0.7968 -0.0209
14677TIP3    H165446   4.044   2.872   5.829 -1.8670  1.9055 -0.5120
14677TIP3    H265447   4.103   2.821   5.699  1.4131 -0.1324  1.6170
14678TIP3   OH265448   0.127   5.346   0.368  0.4435 -0.3320  0.3092
14678TIP3    H165449   0.121   5.442   0.358  0.9262 -0.4216 -0.9671
14678TIP3    H265450   0.220   5.327   0.363  0.2705 -0.9767 -0.4755
14679TIP3   OH265451   6.283   0.010   6.224 -0.8118 -0.1775 -0.6152
14679TIP3    H165452   6.321   0.072   6.161  0.8278 -0.8058 -0.3061
14679TIP3    H265453   6.327   0.030   6.306 -0.2671 -1.7016 -0.5004
14680TIP3   OH265454   5.630   5.267  15.241 -0.4227  0.5877 -0.2637
14680TIP3    H165455   5.590   5.353  15.232 -0.5677  0.3269 -3.1810
14680TIP3    H265456   5.564   5.206  15.207 -0.8930 -0.9570  2.9991
14681TIP3   OH265457   4.954   0.178   2.472  0.4258 -0.4577  0.4325
14681TIP3    H165458   4.965   0.139   2.385 -0.9449 -0.3602  0.1923
14681TIP3    H265459   4.923   0.267   2.455 -0.7329 -0.7257  1.0033
14682TIP3   OH265460   2.359   2.549   2.220 -0.0950  0.1859  0.2561
14682TIP3    H165461   2.349   2.643   2.239 -0.0528  0.9390 -2.9201
14682TIP3    H265462   2.425   2.519   2.282  1.0276  2.6436  0.3761
14683TIP3   OH265463   2.402   1.917   2.074  0.8247 -0.2410 -0.1601
14683TIP3    H165464   2.366   1.999   2.040 -2.1505 -0.9604  0.8951
14683TIP3    H265465   2.340   1.851   2.045  0.7652 -1.4997  2.5890
14684TIP3   OH265466   1.281   0.025  14.231  0.7399 -0.1488 -0.9028
14684TIP3    H165467   1.196   0.055  14.201  0.0196 -1.2749 -0.0558
14684TIP3    H265468   1.343   0.087  14.193 -0.3936  0.3117 -2.0553
14685TIP3   OH265469   5.097   2.869  11.801  0.0718  0.2899 -0.3157
14685TIP3    H165470   5.125   2.814  11.874 -0.8360 -0.1110 -0.2441
14685TIP3    H265471   5.008   2.897  11.825  0.4513  1.6535 -0.4325
14686TIP3   OH265472   0.721   0.272   5.223 -0.0074 -0.1424 -0.0462
14686TIP3    H165473   0.668   0.352   5.230  1.8118  1.2206 -1.1356
14686TIP3    H265474   0.691   0.230   5.143 -0.9048 -0.5535  0.4825
14687TIP3   OH265475   3.191   6.644  11.852 -0.3148 -0.3349 -0.2656
14687TIP3    H165476   3.286   6.654  11.860 -0.3528  0.1091 -0.3232
14687TIP3    H265477   3.156   6.708  11.913 -0.5760 -1.4648  0.7994
14688TIP3   OH265478   5.418   4.833  12.647 -0.6933 -0.8422 -0.2264
14688TIP3    H165479   5.424   4.744  12.613 -0.7749 -0.5140 -1.1395
14688TIP3    H265480   5.324   4.852  12.649 -0.6256 -0.2750 -1.4380
14689TIP3   OH265481   4.996   5.910   1.811  0.8145 -0.0750 -0.1047
14689TIP3    H165482   4.950   5.958   1.880  1.2212  1.5987 -0.9354
14689TIP3    H265483   4.938   5.838   1.788  0.2875 -0.1519  1.3852
14690TIP3   OH265484   5.645   1.944   2.573 -0.1913 -0.3843  0.1548
14690TIP3    H165485   5.674   2.012   2.634  1.3770 -1.1536  0.3177
14690TIP3    H265486   5.563   1.913   2.610  0.2234 -0.1437  1.3350
14691TIP3   OH265487   0.863   5.884  14.419 -0.2893  0.6585 -0.1319
14691TIP3    H165488   0.822   5.848  14.340 -0.0330  0.5039 -0.1971
14691TIP3    H265489   0.883   5.807  14.472  1.2509  0.5938 -0.7461
14692TIP3   OH265490   0.134   5.938  12.010 -0.2210  0.7889 -0.4430
14692TIP3    H165491   0.192   6.006  12.045 -0.3102  0.9560 -0.6164
14692TIP3    H265492   0.176   5.856  12.035 -0.8161  0.8895  0.9218
14693TIP3   OH265493   3.223   1.792   1.332 -0.6649  0.1626 -0.1399
14693TIP3    H165494   3.187   1.849   1.400  1.8654 -0.1878  1.6598
14693TIP3    H265495   3.318   1.793   1.348 -0.0568 -0.8142 -3.0456
14694TIP3   OH265496   0.073   5.858  12.958  0.0905  0.5155  0.1579
14694TIP3    H165497  -0.007   5.885  12.913 -0.9225  0.1402  1.6632
14694TIP3    H265498   0.083   5.921  13.029  1.9673  1.4237 -0.8472
14695TIP3   OH265499   5.827   0.894   5.653  0.4567  0.0325 -0.9424
14695TIP3    H165500   5.894   0.827   5.636  0.5776 -0.4943  1.2322
14695TIP3    H265501   5.749   0.862   5.610  0.9383 -0.6930 -1.2905
14696TIP3   OH265502   3.731   5.382   1.248 -0.2803  0.3152 -0.0075
14696TIP3    H165503   3.734   5.460   1.303  0.4081  0.9237 -0.8817
14696TIP3    H265504   3.645   5.345   1.264 -0.1301  0.5207  1.4076
14697TIP3   OH265505   1.799   2.087  14.930 -0.1322  0.2350 -0.1682
14697TIP3    H165506   1.821   2.049  15.015 -0.2969 -0.4402 -0.4214
14697TIP3    H265507   1.872   2.146  14.910  0.9647 -1.1835 -0.5218
14698TIP3   OH265508   2.315   6.612   3.612 -0.1040 -0.1340  0.0847
14698TIP3    H165509   2.255   6.641   3.544  0.0673 -2.2581 -1.0727
14698TIP3    H265510   2.401   6.644   3.583 -0.1175 -0.5358 -0.4178
14699TIP3   OH265511   6.499   1.982   5.814 -0.4303 -0.4293 -0.2322
14699TIP3    H165512   6.476   1.985   5.721 -1.6684  0.1994  0.0682
14699TIP3    H265513   6.431   1.927   5.853 -1.4545  1.4018  0.6738
14700TIP3   OH265514   0.472   4.079   2.175 -0.1500 -0.4204  0.7024
14700TIP3    H165515   0.407   4.066   2.244  0.5283 -0.1057  1.4182
14700TIP3    H265516   0.534   4.141   2.212 -0.8473  1.3392 -0.9393
14701TIP3   OH265517   0.903   4.854  15.897 -0.6576  0.5264 -0.2369
14701TIP3    H165518   0.939   4.913  15.831  0.8934 -1.6621 -1.4886
14701TIP3    H265519   0.915   4.900  15.980 -0.7177  2.4804 -1.2613
14702TIP3   OH265520   5.177   0.681   2.608  0.1282 -1.0770 -0.1142
14702TIP3    H165521   5.198   0.589   2.627  1.3402 -1.5809 -3.3003
14702TIP3    H265522   5.261   0.721   2.585 -0.4214  0.8168  0.9180
14703TIP3   OH265523   4.531   1.937  12.362 -0.2715  0.0880 -0.3716
14703TIP3    H165524   4.469   1.864  12.362 -0.5401  0.3135 -0.4431
14703TIP3    H265525   4.577   1.929  12.278  0.2670 -0.4684 -0.0340
14704TIP3   OH265526   4.987   4.115   2.962  0.1524 -0.0908 -0.3505
14704TIP3    H165527   5.016   4.205   2.981 -0.4836  0.0262  0.0895
14704TIP3    H265528   4.892   4.118   2.971  0.2651 -1.3368  2.0682
14705TIP3   OH265529   1.242   4.675   1.910 -0.0416  0.5205  0.0613
14705TIP3    H165530   1.271   4.671   2.001  1.3733  2.0771 -0.2650
14705TIP3    H265531   1.206   4.764   1.901  0.3646  0.5781 -1.0459
14706TIP3   OH265532   6.705   2.387  13.393  0.4749 -0.1727  0.1972
14706TIP3    H165533   6.659   2.466  13.423  1.1795 -0.4885  2.2598
14706TIP3    H265534   6.698   2.391  13.298 -2.5695  0.5292  0.3296
14707TIP3   OH265535   5.911   5.555   1.668 -0.2264  0.2380  0.0278
14707TIP3    H165536   5.851   5.541   1.594  0.5783  1.3253 -0.8620
14707TIP3    H265537   5.918   5.650   1.675 -0.0435  0.1405  1.3276
14708TIP3   OH265538   0.256   5.099  14.300 -0.3761 -0.2494 -0.5811
14708TIP3    H165539   0.339   5.059  14.324 -1.0456 -0.5664  1.4094
14708TIP3    H265540   0.275   5.193  14.294 -0.3919  0.1100  2.9153
14709TIP3   OH265541   0.661   3.187  13.961 -0.0430 -0.4861  0.4261
14709TIP3    H165542   0.657   3.170  13.867  1.6250  2.1581 -0.2195
14709TIP3    H265543   0.670   3.281  13.968  0.7032 -0.6860  3.2374
14710TIP3   OH265544   0.349   4.844  11.991  0.0825  0.3287 -0.0418
14710TIP3    H165545   0.333   4.756  12.025  0.4716 -0.1359 -1.0417
14710TIP3    H265546   0.390   4.890  12.064  2.4132 -1.1308 -0.3067
14711TIP3   OH265547   6.100   1.496   5.833  0.4028  0.8198 -0.2394
14711TIP3    H165548   6.007   1.478   5.819  0.8157 -1.5493 -0.4399
14711TIP3    H265549   6.117   1.468   5.923  1.1637 -0.0302 -0.6268
14712TIP3   OH265550   4.285   5.840   4.637  0.5183 -0.6412  0.2058
14712TIP3    H165551   4.380   5.852   4.636  0.7172 -1.9103  0.8767
14712TIP3    H265552   4.254   5.895   4.709  0.4744  1.2970 -1.2395
14713TIP3   OH265553   3.793   1.626   4.701  0.0636  0.5346  0.4208
14713TIP3    H165554   3.867   1.671   4.743 -0.8174  1.3869  1.0914
14713TIP3    H265555   3.794   1.656   4.611 -1.5746  3.3818  1.2504
14714TIP3   OH265556   4.595   1.873  17.224 -0.2051  0.6147 -0.5394
14714TIP3    H165557   4.554   1.958  17.235 -1.5397 -0.0706 -0.0216
14714TIP3    H265558   4.563   1.821  17.298 -0.3374 -0.6865 -1.4808
14715TIP3   OH265559   5.177   6.720   0.856  0.4620  0.2411  0.8135
14715TIP3    H165560   5.267   6.718   0.825 -0.0836  0.8095 -0.8850
14715TIP3    H265561   5.126   6.682   0.785 -0.8698  1.8560  0.8459
14716TIP3   OH265562   1.827   2.277  14.175 -0.5166 -0.5312  0.1068
14716TIP3    H165563   1.790   2.192  14.152 -1.0499 -0.3106  0.1466
14716TIP3    H265564   1.886   2.259  14.248 -0.6225 -0.8673  0.1112
14717TIP3   OH265565   2.780   6.478   4.636 -0.3140 -1.0498  0.4698
14717TIP3    H165566   2.726   6.512   4.708  1.8513 -0.0159  1.7065
14717TIP3    H265567   2.868   6.511   4.654  0.9415 -3.2878 -1.0092
14718TIP3   OH265568   0.529   0.139  15.539 -0.3006  0.2690  0.0448
14718TIP3    H165569   0.518   0.167  15.630 -0.9499  0.2413 -0.0195
14718TIP3    H265570   0.441   0.115  15.511 -0.0558 -0.0034 -0.5021
14719TIP3   OH265571   6.317   5.807   1.707 -0.0703  0.1072  0.0167
14719TIP3    H165572   6.411   5.789   1.700  0.3165  1.5872  0.9640
14719TIP3    H265573   6.276   5.737   1.657  1.5901  0.0109 -1.3194
14720TIP3   OH265574   3.415   1.360  15.254  0.2733  0.4246 -0.0890
14720TIP3    H165575   3.388   1.445  15.218 -0.1786  0.1381 -0.4445
14720TIP3    H265576   3.444   1.310  15.178 -0.6634 -0.1778 -0.0723
14721TIP3   OH265577   2.958   1.901   4.235  0.3227 -0.3879  0.4126
14721TIP3    H165578   2.918   1.878   4.151  0.4939 -0.6215  0.3937
14721TIP3    H265579   2.950   1.996   4.241  1.6922 -0.1723 -0.5894
14722TIP3   OH265580   6.563   0.823  15.530 -0.1991  0.0159  0.1153
14722TIP3    H165581   6.573   0.867  15.445 -0.4075 -0.1968 -0.0205
14722TIP3    H265582   6.591   0.733  15.513  3.5622  0.8068  1.1706
14723TIP3   OH265583   6.386   5.256  12.253 -0.0245 -0.2720 -0.1392
14723TIP3    H165584   6.320   5.313  12.215  0.6902 -0.1360 -1.2258
14723TIP3    H265585   6.342   5.171  12.262 -0.4883 -0.0581 -0.3785
14724TIP3   OH265586   2.092   0.804  12.928 -0.3270 -0.0541 -0.5668
14724TIP3    H165587   2.069   0.711  12.922 -0.2862 -0.1520  0.4751
14724TIP3    H265588   2.187   0.805  12.935 -0.0427  0.2736 -3.5698
14725TIP3   OH265589   2.516   0.865   5.253  0.0398 -0.4315 -0.0320
14725TIP3    H165590   2.515   0.833   5.343 -0.2139 -0.2927  0.0167
14725TIP3    H265591   2.429   0.903   5.241  0.4055  0.4354 -0.0130
14726TIP3   OH265592   6.227   4.153   6.068 -0.1354 -0.2488  0.2420
14726TIP3    H165593   6.157   4.205   6.028 -0.3144  0.1122  0.9984
14726TIP3    H265594   6.282   4.218   6.111  0.0315 -0.6347  0.6109
14727TIP3   OH265595   3.429   4.845   5.808  0.2641 -0.0933 -0.7061
14727TIP3    H165596   3.443   4.818   5.899 -0.7337 -0.9699 -0.7977
14727TIP3    H265597   3.454   4.768   5.756  0.8246  0.3988 -1.1858
14728TIP3   OH265598   0.257   1.183   2.396  0.2750 -0.1445 -0.0517
14728TIP3    H165599   0.200   1.258   2.380  0.9186  0.6168  1.1178
14728TIP3    H265600   0.298   1.167   2.311  0.1663  0.8503 -0.3129
14729TIP3   OH265601   1.318   3.473   0.802 -0.3308  0.7828  0.1511
14729TIP3    H165602   1.308   3.563   0.771 -2.0577  1.1192  1.5604
14729TIP3    H265603   1.327   3.481   0.897 -0.7800 -0.5435  0.3193
14730TIP3   OH265604   0.976   1.306  15.514  0.2532  0.3014 -0.7300
14730TIP3    H165605   1.052   1.260  15.552  0.1969  0.9644  0.1921
14730TIP3    H265606   0.936   1.352  15.587 -0.2962  1.0067 -1.4596
14731TIP3   OH265607   4.227   3.290   4.517 -0.2592  0.1369  0.2215
14731TIP3    H165608   4.149   3.341   4.496 -1.9324 -2.2353  0.2851
14731TIP3    H265609   4.276   3.346   4.577 -0.6095  2.7216 -1.7373
14732TIP3   OH265610   1.968   5.791   4.945 -0.0411 -0.2000 -0.2785
14732TIP3    H165611   1.922   5.720   4.990 -3.0040  1.6601 -0.1314
14732TIP3    H265612   1.997   5.850   5.015 -2.2503  1.3133 -0.5501
14733TIP3   OH265613   1.346   6.759  11.556  0.2931 -0.3627  0.0820
14733TIP3    H165614   1.255   6.751  11.529  0.7068 -1.7007 -1.0117
14733TIP3    H265615   1.395   6.762  11.474  1.1425  2.5172  0.5686
14734TIP3   OH265616   5.010   2.707  12.343 -0.2035 -0.3531  0.0916
14734TIP3    H165617   5.057   2.624  12.338  1.4005  0.5560 -2.7607
14734TIP3    H265618   5.029   2.740  12.431  1.3226 -1.8361  0.3764
14735TIP3   OH265619   0.395   3.838  16.954 -0.9224  0.5356  0.7622
14735TIP3    H165620   0.463   3.798  16.899 -0.1731  2.0346  0.5632
14735TIP3    H265621   0.360   3.764  17.005  1.2031 -0.2128  1.2513
14736TIP3   OH265622   3.210   4.760  13.557 -0.0059  0.0932 -0.0243
14736TIP3    H165623   3.156   4.714  13.621 -0.8253  0.2573 -0.5825
14736TIP3    H265624   3.172   4.847  13.551  1.3623  0.7683  0.8051
14737TIP3   OH265625   0.534   2.699   4.199 -0.2757  0.5276  0.4943
14737TIP3    H165626   0.485   2.621   4.224 -3.5277  2.6845  1.5418
14737TIP3    H265627   0.568   2.680   4.112  0.2129 -2.4832  1.2466
14738TIP3   OH265628   0.045   3.525   1.606  0.1028 -0.7469 -0.3425
14738TIP3    H165629  -0.033   3.478   1.576  0.4158 -0.9884 -0.7824
14738TIP3    H265630   0.059   3.492   1.695  0.3169 -1.4904 -0.6435
14739TIP3   OH265631   5.935   1.247   0.566  0.0513  0.4634 -0.1281
14739TIP3    H165632   5.861   1.186   0.569 -0.9087  1.5158 -1.1256
14739TIP3    H265633   6.003   1.199   0.518 -0.8060  0.2544 -1.1916
14740TIP3   OH265634   5.251   6.270   0.025 -0.4453 -0.0424 -0.6836
14740TIP3    H165635   5.283   6.277   0.115 -1.8927  0.1611 -0.1686
14740TIP3    H265636   5.321   6.223  -0.021  0.5213  0.2618  0.4251
14741TIP3   OH265637   5.814   5.394   5.131  0.5264  0.8265  0.0103
14741TIP3    H165638   5.878   5.466   5.138  1.6456 -0.3053  2.6567
14741TIP3    H265639   5.867   5.318   5.108  0.0374  0.0332  1.4324
14742TIP3   OH265640   1.232   0.182  16.441  0.5355  0.1425 -0.3765
14742TIP3    H165641   1.324   0.183  16.466 -0.2564 -0.3978  3.1861
14742TIP3    H265642   1.208   0.089  16.443 -0.7110  0.4138  2.0779
14743TIP3   OH265643   4.382   4.586  15.885  0.3178 -0.2129  0.1455
14743TIP3    H165644   4.297   4.601  15.927  1.0915  2.0023  1.1025
14743TIP3    H265645   4.427   4.523  15.941 -0.2713 -0.5356  0.2524
14744TIP3   OH265646   0.758   6.629  15.164 -0.3986  0.0524  0.2489
14744TIP3    H165647   0.763   6.555  15.224  0.4762  0.1347  0.3011
14744TIP3    H265648   0.723   6.593  15.083 -2.2036  0.0690  0.9937
14745TIP3   OH265649   0.869   5.591   3.548  0.1219  0.2366 -0.6361
14745TIP3    H165650   0.818   5.620   3.623  0.4890 -0.4645 -0.1048
14745TIP3    H265651   0.958   5.579   3.581  0.5874  1.1855 -1.4888
14746TIP3   OH265652   0.705   2.997  14.166  0.6907 -0.0292  0.2464
14746TIP3    H165653   0.686   3.056  14.093  2.6988  0.4957  0.0748
14746TIP3    H265654   0.635   3.013  14.230 -0.1569  0.7220 -0.8432
14747TIP3   OH265655   5.971   0.707   1.739 -0.0246  0.1761  0.2443
14747TIP3    H165656   5.933   0.628   1.698  2.8779 -1.4652  0.4568
14747TIP3    H265657   5.957   0.694   1.832 -0.0050  0.1603  0.2452
14748TIP3   OH265658   6.318   0.405   4.648 -0.0252 -0.0647  0.8916
14748TIP3    H165659   6.229   0.437   4.640 -0.0893 -0.6493 -1.5097
14748TIP3    H265660   6.367   0.478   4.685 -1.4353  0.3432  2.0092
14749TIP3   OH265661   6.194   3.428  13.687 -0.2376 -0.5375 -0.4019
14749TIP3    H165662   6.269   3.380  13.722 -0.0339  0.2700  0.2973
14749TIP3    H265663   6.232   3.492  13.628 -0.3159  0.2742  0.4104
14750TIP3   OH265664   3.704   0.976  14.260 -0.5556  0.0827 -0.3505
14750TIP3    H165665   3.730   0.981  14.352  1.9462 -1.0076 -0.8886
14750TIP3    H265666   3.609   0.988  14.260 -1.0272 -2.5398  2.6359
14751TIP3   OH265667   0.602   3.843   3.930 -0.3176  0.5171  0.4059
14751TIP3    H165668   0.510   3.847   3.902 -0.0256  1.5031 -0.4682
14751TIP3    H265669   0.610   3.757   3.970 -0.8076 -1.0534 -2.5290
14752TIP3   OH265670   1.026   0.739   3.839  0.2086 -0.2687  0.0501
14752TIP3    H165671   0.960   0.671   3.832  0.3361 -0.3817 -0.0716
14752TIP3    H265672   1.077   0.732   3.758  0.0758  0.1263 -0.0690
14753TIP3   OH265673   3.374   5.058   2.802 -0.0008 -0.2456  0.3073
14753TIP3    H165674   3.390   5.086   2.712 -1.2241  0.4678  0.2868
14753TIP3    H265675   3.443   5.103   2.853  0.5130 -0.4166 -0.2241
14754TIP3   OH265676   2.172   1.848  12.264  0.3366 -0.5574  0.1677
14754TIP3    H165677   2.126   1.792  12.326  1.0039 -2.0090 -0.5935
14754TIP3    H265678   2.105   1.877  12.203  0.0570 -0.9087  0.3042
14755TIP3   OH265679   2.699   6.026  14.694  0.2121 -0.0491 -0.1539
14755TIP3    H165680   2.757   6.094  14.730 -0.2708  1.2005 -1.6246
14755TIP3    H265681   2.614   6.045  14.734  0.0088  0.4171 -0.7954
14756TIP3   OH265682   6.081   0.148  13.137 -0.6093 -0.4439  0.6232
14756TIP3    H165683   6.145   0.078  13.151 -0.0614 -0.1810 -0.4916
14756TIP3    H265684   6.133   0.224  13.111 -1.3236 -0.0428  0.3309
14757TIP3   OH265685   5.759   2.060   0.450  0.1267  0.0044  0.0049
14757TIP3    H165686   5.770   1.967   0.472 -0.6976  0.0979  0.9136
14757TIP3    H265687   5.672   2.082   0.484 -0.8662  0.4320 -2.6182
14758TIP3   OH265688   0.135   5.344   5.700  0.2202 -0.0887  0.0546
14758TIP3    H165689   0.125   5.320   5.793  0.0480  0.1929  0.1086
14758TIP3    H265690   0.046   5.359   5.669  0.0801 -2.1351 -0.6971
14759TIP3   OH265691   0.001   6.316   0.641  0.3121 -0.2277 -0.3365
14759TIP3    H165692  -0.018   6.355   0.726 -0.2538 -0.2651 -0.4375
14759TIP3    H265693   0.035   6.229   0.661 -0.6909 -0.5902 -0.1619
14760TIP3   OH265694   2.740   1.928   6.032  0.0652 -0.4819 -0.3108
14760TIP3    H165695   2.821   1.971   6.060  0.6139 -0.3772 -1.9277
14760TIP3    H265696   2.742   1.843   6.076  2.2123 -1.4038 -1.9661
14761TIP3   OH265697   6.264   3.275   5.846 -0.0745 -0.0226 -0.1461
14761TIP3    H165698   6.244   3.227   5.766  0.1767  1.3098 -1.0400
14761TIP3    H265699   6.179   3.309   5.876  0.0761  1.0965 -0.9389
14762TIP3   OH265700   1.901   4.889  16.151  0.2487 -0.1575 -0.3080
14762TIP3    H165701   1.901   4.808  16.100 -1.0066  0.0803 -0.7214
14762TIP3    H265702   1.917   4.958  16.086  0.0376  0.0326 -0.1598
14763TIP3   OH265703   2.498   3.656   6.062  0.1731  0.0056  0.3018
14763TIP3    H165704   2.432   3.628   5.998  0.6781 -0.1207 -0.1743
14763TIP3    H265705   2.574   3.678   6.009  0.0968  1.4244  0.7298
14764TIP3   OH265706   4.713   1.546  12.151  0.3760 -0.7174  0.0034
14764TIP3    H165707   4.726   1.623  12.206 -0.5764 -0.3278 -0.2860
14764TIP3    H265708   4.638   1.569  12.096 -0.3530 -2.1071  0.3682
14765TIP3   OH265709   5.261   3.656  12.833  0.3928  0.0689  0.2677
14765TIP3    H165710   5.346   3.629  12.868  0.0319 -2.5238 -0.6706
14765TIP3    H265711   5.199   3.637  12.904  0.5014  1.6200  0.8157
14766TIP3   OH265712   5.923   3.015  16.539 -0.1275 -0.3320  0.1114
14766TIP3    H165713   5.867   2.991  16.466 -0.8811  0.5299  0.3846
14766TIP3    H265714   5.864   3.058  16.602  0.8534  0.7533  0.3293
14767TIP3   OH265715   6.001   0.381  14.413  0.0009  0.3614  0.0651
14767TIP3    H165716   6.006   0.434  14.333 -0.4126  2.1777  1.1921
14767TIP3    H265717   5.908   0.359  14.421 -0.2472  1.5753  0.8629
14768TIP3   OH265718   6.654   4.612  13.941  0.0192  0.4441 -0.3351
14768TIP3    H165719   6.707   4.683  13.902  1.1393  0.5427  1.2385
14768TIP3    H265720   6.674   4.535  13.888  2.2284  0.3611  0.5085
14769TIP3   OH265721   0.217   2.354   0.845 -0.1323 -0.1948 -0.5974
14769TIP3    H165722   0.261   2.418   0.901  0.5471 -1.4065  0.3237
14769TIP3    H265723   0.289   2.311   0.798 -0.2888 -2.0362  0.7494
14770TIP3   OH265724   2.195   5.457   2.570  0.4570  0.7227 -0.3676
14770TIP3    H165725   2.267   5.417   2.523  0.5338  0.6438 -0.1823
14770TIP3    H265726   2.190   5.409   2.653  0.6012  1.1449 -0.1105
14771TIP3   OH265727   6.232   2.662   5.164 -0.1345 -0.4022 -0.3797
14771TIP3    H165728   6.214   2.604   5.238 -1.4373 -0.3709 -0.6386
14771TIP3    H265729   6.151   2.660   5.112  0.5183  0.0870 -1.4534
14772TIP3   OH265730   0.191   4.521   4.652  0.2080  0.2419 -0.0206
14772TIP3    H165731   0.179   4.447   4.592 -0.8816 -1.3580  2.0317
14772TIP3    H265732   0.286   4.524   4.668  0.4774  0.5244 -1.5710
14773TIP3   OH265733   3.575   5.096  14.686 -0.0701  0.1181 -0.3409
14773TIP3    H165734   3.605   5.165  14.627  0.2676 -0.9214 -1.4307
14773TIP3    H265735   3.545   5.026  14.628  0.8673 -1.2067  0.6933
14774TIP3   OH265736   5.744   2.827   5.934 -0.3344 -0.1153  0.0201
14774TIP3    H165737   5.735   2.857   6.025 -0.7786  2.6849 -0.8368
14774TIP3    H265738   5.836   2.844   5.912 -0.0940 -1.2827  0.0790
14775TIP3   OH265739   6.272   3.084   4.482  0.0998 -0.0022 -0.0417
14775TIP3    H165740   6.330   3.040   4.419  0.7333 -1.0720  1.2319
14775TIP3    H265741   6.238   3.160   4.435  0.4596 -0.8270 -1.7051
14776TIP3   OH265742   5.275   1.673   4.781  0.3528 -0.0927  0.1486
14776TIP3    H165743   5.222   1.753   4.775  0.9052  0.2757  0.1803
14776TIP3    H265744   5.210   1.603   4.791 -0.0834  0.5976  3.0176
14777TIP3   OH265745   3.087   5.265   3.764  0.2450 -0.0104 -0.5556
14777TIP3    H165746   3.076   5.174   3.737 -0.3822 -0.5081  1.2179
14777TIP3    H265747   3.016   5.312   3.720 -0.7658 -0.7891  0.1849
14778TIP3   OH265748   0.206   1.453  12.949 -0.4600  0.4418 -0.4940
14778TIP3    H165749   0.256   1.398  12.888 -0.2730 -0.1526  0.1843
14778TIP3    H265750   0.248   1.539  12.944  1.4052 -0.3356  0.9260
14779TIP3   OH265751   6.297   4.876  15.293  0.4722 -0.0780  0.0502
14779TIP3    H165752   6.247   4.937  15.239  0.5475  0.6519  0.7984
14779TIP3    H265753   6.386   4.910  15.292  0.3595  0.2822  1.1072
14780TIP3   OH265754   2.786   0.259  16.866 -0.3709  0.6367 -0.3142
14780TIP3    H165755   2.797   0.170  16.898  0.1058  0.2875 -1.3941
14780TIP3    H265756   2.804   0.253  16.772 -1.7011  1.6131 -0.6591
14781TIP3   OH265757   2.616   3.303  10.305 -0.4323 -0.3630  0.0761
14781TIP3    H165758   2.544   3.276  10.248  0.2083  1.8187 -1.9485
14781TIP3    H265759   2.574   3.341  10.382 -1.3943 -0.5593 -0.3404
14782TIP3   OH265760   5.696   4.550   2.332  0.2189  0.1311 -0.0122
14782TIP3    H165761   5.698   4.552   2.236 -0.2689 -1.1397 -0.0692
14782TIP3    H265762   5.680   4.458   2.354  2.5809 -0.0386  1.3480
14783TIP3   OH265763   6.166   6.591  15.658  0.4968 -0.2196 -0.1538
14783TIP3    H165764   6.070   6.594  15.649  0.4488  0.1243  0.4308
14783TIP3    H265765   6.196   6.552  15.576 -0.2772 -2.1849  0.4414
14784TIP3   OH265766   4.016   6.248   0.891 -0.0776  0.2175 -0.2321
14784TIP3    H165767   3.928   6.275   0.918 -0.7731 -0.1248 -2.0054
14784TIP3    H265768   4.006   6.155   0.869  1.1546 -0.2875  1.2013
14785TIP3   OH265769   4.717   6.634   1.928 -0.0137  0.4936  0.2216
14785TIP3    H165770   4.809   6.660   1.933  0.7376 -1.9724  0.6780
14785TIP3    H265771   4.683   6.645   2.016  0.1360  0.4785  0.2806
14786TIP3   OH265772   6.703   3.853  12.244  0.1119 -0.1195  0.1724
14786TIP3    H165773   6.709   3.943  12.214  1.5633 -1.0223 -2.6351
14786TIP3    H265774   6.626   3.818  12.200  0.1050 -0.5284  0.4991
14787TIP3   OH265775   4.073   3.510  16.506  0.1606  0.0405 -0.4156
14787TIP3    H165776   4.016   3.556  16.445 -0.6277 -0.7862 -0.3277
14787TIP3    H265777   4.159   3.548  16.492 -0.4171  1.3532 -0.5145
14788TIP3   OH265778   3.964   5.075   4.057  0.3177  0.3988 -0.8400
14788TIP3    H165779   4.011   5.082   3.974 -0.3013 -0.1682 -1.2405
14788TIP3    H265780   3.902   5.148   4.056  1.1562  1.1477 -0.3114
14789TIP3   OH265781   0.275   0.498  17.276  0.2061  0.4662 -0.6506
14789TIP3    H165782   0.281   0.500  17.180 -0.3954 -1.6871 -0.7832
14789TIP3    H265783   0.364   0.519  17.306  0.9053 -0.8049 -1.7464
14790TIP3   OH265784   3.187   3.172   3.994 -0.1673 -0.0430 -0.2904
14790TIP3    H165785   3.204   3.265   4.010 -1.1465 -0.2891  2.8959
14790TIP3    H265786   3.093   3.166   3.980 -0.0944 -0.5476 -0.6006
14791TIP3   OH265787   1.076   5.355  11.870 -0.2614 -0.1499  0.4507
14791TIP3    H165788   0.984   5.374  11.887 -0.2842 -1.4318  1.9816
14791TIP3    H265789   1.109   5.433  11.825 -1.4274  1.5607  2.3825
14792TIP3   OH265790   1.719   4.745   5.640 -0.1106  0.0050  0.0332
14792TIP3    H165791   1.793   4.686   5.648 -0.0103  0.3318  2.2448
14792TIP3    H265792   1.647   4.700   5.684 -0.6056  0.6429 -0.1065
14793TIP3   OH265793   4.212   5.307   2.900  0.0493 -0.5227 -0.5009
14793TIP3    H165794   4.265   5.245   2.950 -1.1028  0.3468  1.9099
14793TIP3    H265795   4.275   5.353   2.844  1.7432 -0.1014  1.6449
14794TIP3   OH265796   5.991   6.221   2.471 -0.3519 -0.0739  0.5143
14794TIP3    H165797   5.946   6.137   2.477  1.9774 -1.5158 -0.7905
14794TIP3    H265798   6.030   6.234   2.558  2.5787 -2.4626 -0.2473
14795TIP3   OH265799   3.230   0.914   6.861 -0.2543 -0.1725  0.0150
14795TIP3    H165800   3.195   0.969   6.792  0.9512 -1.0050 -1.3158
14795TIP3    H265801   3.221   0.825   6.827 -0.5027 -0.6810  1.3462
14796TIP3   OH265802   4.970   5.667  13.309  0.1628 -0.2683 -0.2615
14796TIP3    H165803   4.958   5.578  13.275  0.6584 -1.4893  2.4201
14796TIP3    H265804   4.881   5.700  13.321 -0.1206 -1.2618  0.6095
14797TIP3   OH265805   4.535   4.642   0.387 -0.5154  0.0822 -0.1391
14797TIP3    H165806   4.583   4.559   0.392 -1.0832 -0.1987  1.1865
14797TIP3    H265807   4.536   4.675   0.477  1.9138  2.8352 -1.0313
14798TIP3   OH265808   5.838   1.314  14.430  0.2463  0.3261 -0.1847
14798TIP3    H165809   5.820   1.297  14.338  1.1807 -0.5512 -0.2319
14798TIP3    H265810   5.933   1.305  14.438 -0.0001 -1.8751  1.2586
14799TIP3   OH265811   5.952   0.682   3.579 -0.3054 -0.0774  0.4820
14799TIP3    H165812   5.957   0.695   3.674 -0.2164 -1.2860  0.6626
14799TIP3    H265813   5.859   0.673   3.561 -0.2203 -3.5874  1.0701
14800TIP3   OH265814   3.169   2.309  14.191 -0.2552 -0.1558  0.3705
14800TIP3    H165815   3.262   2.286  14.186 -0.1582  0.0830  0.9556
14800TIP3    H265816   3.167   2.391  14.242 -0.9647 -1.4340  2.5402
14801TIP3   OH265817   3.293   3.354  17.165 -0.2355  0.9738  0.6387
14801TIP3    H165818   3.327   3.324  17.081  1.4917 -1.4610  2.0506
14801TIP3    H265819   3.343   3.433  17.184  0.8975  0.3730  0.2800
14802TIP3   OH265820   3.681   4.836   2.863  0.6641  0.1459  0.2129
14802TIP3    H165821   3.654   4.867   2.776 -0.6762  2.5895  1.4020
14802TIP3    H265822   3.609   4.861   2.921  0.9582 -2.5034  1.9217
14803TIP3   OH265823   4.664   2.655   4.391  0.0919  0.4507 -0.6508
14803TIP3    H165824   4.612   2.613   4.324 -1.0836  1.8395 -0.6587
14803TIP3    H265825   4.609   2.726   4.424  1.4349  1.0984  0.3274
14804TIP3   OH265826   0.032   5.702  17.076  0.5872  0.0909 -0.1737
14804TIP3    H165827   0.106   5.717  17.018  1.3641  0.0172  0.7773
14804TIP3    H265828   0.054   5.622  17.123  0.7223  1.0037  1.3634
14805TIP3   OH265829   4.503   4.851   0.864  0.3691 -0.1229  0.1953
14805TIP3    H165830   4.500   4.928   0.921 -0.0328  0.7774 -1.0007
14805TIP3    H265831   4.422   4.804   0.882  0.3303  0.0544  0.4869
14806TIP3   OH265832   4.879   5.832   5.604 -0.4386  0.2877 -0.2611
14806TIP3    H165833   4.968   5.866   5.612 -0.1889 -0.7176  1.8869
14806TIP3    H265834   4.865   5.781   5.684 -2.7049 -0.1571 -0.8615
14807TIP3   OH265835   4.876   5.384   5.967  0.2283  0.0176  0.4014
14807TIP3    H165836   4.886   5.305   6.019 -0.0120 -1.1116 -1.1706
14807TIP3    H265837   4.797   5.369   5.916 -0.0432  1.4608  0.3674
14808TIP3   OH265838   0.275   6.096   6.287  0.1433  0.0881  0.5712
14808TIP3    H165839   0.252   6.022   6.343  0.3940  1.1303  2.0904
14808TIP3    H265840   0.370   6.106   6.298 -0.1746  1.9439  2.0967
14809TIP3   OH265841   6.635   3.328   1.454 -0.0692  0.2340  0.0851
14809TIP3    H165842   6.622   3.350   1.362  0.6728  0.7769  0.1052
14809TIP3    H265843   6.714   3.274   1.455 -0.3235 -0.1423  0.3596
14810TIP3   OH265844   2.604   5.232  16.897 -0.5684  0.0787  0.4313
14810TIP3    H165845   2.663   5.243  16.823 -0.5033 -0.3382  0.4193
14810TIP3    H265846   2.661   5.213  16.971 -0.7381 -1.2291  0.2371
14811TIP3   OH265847   5.914   4.158  16.703  0.0354 -0.3337 -0.1479
14811TIP3    H165848   5.956   4.222  16.760 -0.7289 -0.0724  0.1425
14811TIP3    H265849   5.964   4.161  16.622  0.3518  0.2244  0.0645
14812TIP3   OH265850   6.178   6.273   3.204  0.3579  0.6744 -0.2674
14812TIP3    H165851   6.146   6.219   3.132 -1.3398  0.0758  0.8643
14812TIP3    H265852   6.183   6.214   3.279 -2.8411  2.1995  1.3524
14813TIP3   OH265853   2.770   3.929   6.211  0.2005 -0.8774  0.1133
14813TIP3    H165854   2.805   3.959   6.127  1.2955 -1.0493  0.4907
14813TIP3    H265855   2.844   3.886   6.254 -0.0904 -0.0223  1.5389
14814TIP3   OH265856   4.477   0.371  14.585  0.0842 -0.0639  0.7362
14814TIP3    H165857   4.500   0.394  14.675 -0.6557 -0.0004  0.9225
14814TIP3    H265858   4.543   0.414  14.531  0.4508  0.0184  1.2401
14815TIP3   OH265859   3.250   0.873  17.168 -0.2868  0.0421 -0.0500
14815TIP3    H165860   3.186   0.900  17.234  1.2213 -0.7195  1.8339
14815TIP3    H265861   3.287   0.793  17.203  1.6547  0.4326 -1.0902
14816TIP3   OH265862   0.360   3.512  16.579 -0.0083  0.5525 -0.1279
14816TIP3    H165863   0.372   3.527  16.485  1.8314 -0.0464 -0.0228
14816TIP3    H265864   0.445   3.480  16.609 -0.0516  2.2625  2.0572
14817TIP3   OH265865   1.985   1.556   3.246  0.2915 -0.5273  1.2312
14817TIP3    H165866   1.906   1.515   3.283  0.2069 -0.1208  1.5076
14817TIP3    H265867   1.961   1.578   3.156  0.1017 -0.4426  1.3018
14818TIP3   OH265868   0.164   3.494   1.884  0.0509 -0.0200 -0.4858
14818TIP3    H165869   0.198   3.456   1.965 -1.2796  0.9547  0.5795
14818TIP3    H265870   0.181   3.588   1.892 -0.6037  0.1615 -1.0645
14819TIP3   OH265871   5.456   6.265   0.217 -0.1065 -0.1672  0.1415
14819TIP3    H165872   5.408   6.348   0.213 -0.6209 -0.4329  0.6739
14819TIP3    H265873   5.544   6.287   0.186 -0.3452  0.4960 -0.0826
14820TIP3   OH265874   6.584   6.261  12.703 -0.1200  0.2522 -0.1744
14820TIP3    H165875   6.661   6.205  12.710 -1.0803 -1.2945 -1.1405
14820TIP3    H265876   6.614   6.337  12.653  0.7688 -0.3743 -0.6265
14821TIP3   OH265877   4.604   3.821  12.337 -0.1901 -0.5841  0.2760
14821TIP3    H165878   4.549   3.896  12.359 -0.2985 -0.2248 -1.1201
14821TIP3    H265879   4.543   3.748  12.329 -0.0170 -1.0078  2.2500
14822TIP3   OH265880   2.895   3.162  13.455 -0.3760 -0.1473  0.2578
14822TIP3    H165881   2.842   3.179  13.377  1.4031 -0.7931 -1.1596
14822TIP3    H265882   2.965   3.227  13.450  1.2934 -1.9214 -0.2223
14823TIP3   OH265883   6.502   4.961  15.544 -0.0330 -0.1968 -0.1052
14823TIP3    H165884   6.576   4.912  15.580  0.9044  0.9703 -0.3746
14823TIP3    H265885   6.468   5.012  15.617  1.0057  1.1282 -0.5040
14824TIP3   OH265886   6.640   3.707  11.491  0.0034 -0.1294 -0.3071
14824TIP3    H165887   6.623   3.796  11.522  0.5521 -0.1796  0.1449
14824TIP3    H265888   6.659   3.657  11.570  0.1560 -0.5432 -0.6042
14825TIP3   OH265889   1.616   3.812  15.359  0.2358 -0.0003 -0.0267
14825TIP3    H165890   1.650   3.746  15.298  0.7301  0.9650 -0.8237
14825TIP3    H265891   1.521   3.808  15.349  0.2803 -0.3505 -0.3185
14826TIP3   OH265892   6.171   2.252   0.328 -0.3239 -0.5349  0.2394
14826TIP3    H165893   6.257   2.245   0.286  0.1350 -0.0284  1.0739
14826TIP3    H265894   6.190   2.283   0.417 -1.4141  0.2562  0.2167
14827TIP3   OH265895   4.818   0.900  13.411 -0.0397 -0.0781 -0.6656
14827TIP3    H165896   4.867   0.872  13.489 -0.2456 -2.2315 -1.2568
14827TIP3    H265897   4.728   0.909  13.442 -0.0118 -0.3113 -0.5106
14828TIP3   OH265898   4.883   6.680  16.792 -0.4764 -0.4692  0.0177
14828TIP3    H165899   4.958   6.622  16.805  1.5514  2.0194  0.1434
14828TIP3    H265900   4.889   6.743  16.864 -1.6804  0.8181 -0.9544
14829TIP3   OH265901   5.207   4.700  11.707  0.2247 -0.4954  0.0593
14829TIP3    H165902   5.140   4.704  11.639 -0.4032  0.9661  0.7264
14829TIP3    H265903   5.266   4.772  11.686  0.3774 -0.4286  0.7043
14830TIP3   OH265904   2.087   0.137  11.753  0.0642 -0.0356 -0.4881
14830TIP3    H165905   2.144   0.060  11.758 -0.1347 -0.1778 -0.4234
14830TIP3    H265906   2.065   0.156  11.844  1.0480  0.7950 -0.4076
14831TIP3   OH265907   3.978   5.417   1.595 -0.1170  0.4790 -0.2173
14831TIP3    H165908   3.996   5.459   1.511 -1.0660  0.8586 -0.2450
14831TIP3    H265909   3.896   5.457   1.625  1.4217  2.1537  2.0681
14832TIP3   OH265910   5.027   5.776   3.419 -0.2609  0.3497 -0.0387
14832TIP3    H165911   5.004   5.777   3.512 -1.0392  1.6970 -0.2075
14832TIP3    H265912   4.952   5.817   3.376  0.4463  0.5098 -1.1602
14833TIP3   OH265913   2.027   6.525   5.276 -0.5229 -0.1114  0.4038
14833TIP3    H165914   2.094   6.544   5.342 -0.2906 -0.2577  0.2129
14833TIP3    H265915   2.071   6.540   5.193 -0.3391 -1.4267  0.2424
14834TIP3   OH265916   2.389   0.911  13.474 -0.0424 -0.2511 -0.2541
14834TIP3    H165917   2.471   0.863  13.491  0.3604  0.7245  0.6751
14834TIP3    H265918   2.417   0.990  13.427 -0.5049 -0.1192 -0.3069
14835TIP3   OH265919   4.351   3.405   0.996  0.4790  0.0167 -0.1844
14835TIP3    H165920   4.374   3.328   1.048 -1.8371 -0.7334 -0.1899
14835TIP3    H265921   4.363   3.377   0.906  2.0279  0.5053 -0.1623
14836TIP3   OH265922   3.469   4.704  11.683  0.0762  0.0185  0.4055
14836TIP3    H165923   3.544   4.670  11.634 -0.7838  1.3988 -2.0651
14836TIP3    H265924   3.408   4.631  11.686  0.7951 -0.5789  0.8796
14837TIP3   OH265925   4.800   2.216   4.809 -0.5739  0.1826 -0.2653
14837TIP3    H165926   4.799   2.126   4.841 -2.2376 -0.1255 -1.0900
14837TIP3    H265927   4.773   2.268   4.885  0.8884  0.0825  0.3625
14838TIP3   OH265928   3.880   0.143   5.191 -0.4815  0.0327 -0.1734
14838TIP3    H165929   3.967   0.130   5.229 -1.0995 -0.5519  1.0605
14838TIP3    H265930   3.826   0.174   5.263 -1.0293  1.6146 -1.1995
14839TIP3   OH265931   1.582   5.489  13.167 -0.1852  0.3714 -0.3324
14839TIP3    H165932   1.525   5.464  13.239  0.1837  2.6966  0.8577
14839TIP3    H265933   1.670   5.474  13.199 -0.0406 -0.6372 -1.1493
14840TIP3   OH265934   2.424   2.796   5.305 -0.3157  0.4207 -0.3951
14840TIP3    H165935   2.457   2.834   5.224  0.3587 -0.4944 -0.5656
14840TIP3    H265936   2.429   2.701   5.291  3.2231  0.0975  2.0035
14841TIP3   OH265937   1.766   6.578   0.219 -0.1110  0.1901 -0.9600
14841TIP3    H165938   1.678   6.605   0.193 -0.1276  0.8832 -0.2115
14841TIP3    H265939   1.768   6.588   0.314  1.0075  0.8973 -1.0389
14842TIP3   OH265940   6.443   5.071   2.858  0.5741 -0.1430 -0.3843
14842TIP3    H165941   6.420   5.148   2.808  3.4802  1.6521  0.7619
14842TIP3    H265942   6.525   5.040   2.818  2.2127  0.5131  2.1764
14843TIP3   OH265943   3.002   4.834   0.214 -0.2483  0.5996 -0.8861
14843TIP3    H165944   2.988   4.889   0.291  1.3211  0.7855 -0.6995
14843TIP3    H265945   3.024   4.748   0.249  1.1601  0.8546 -1.0792
14844TIP3   OH265946   3.065   0.065  11.377  0.2177 -0.1521  0.2187
14844TIP3    H165947   3.115   0.039  11.300  0.5449  0.1275  0.3301
14844TIP3    H265948   3.055   0.160  11.368 -0.3428 -0.2117  0.1721
14845TIP3   OH265949   6.279   5.818  12.915  0.0565  0.3116  0.1091
14845TIP3    H165950   6.334   5.774  12.850  0.6105  1.6123 -0.3466
14845TIP3    H265951   6.331   5.818  12.995 -0.5344 -1.0937  0.5205
14846TIP3   OH265952   2.527   1.566  10.430  0.0695  0.5559 -0.2122
14846TIP3    H165953   2.461   1.559  10.362 -2.0407 -0.7751  1.7889
14846TIP3    H265954   2.529   1.478  10.469  1.3311  1.2052  1.2708
14847TIP3   OH265955   4.831   5.704   1.715  0.3245  0.5286 -0.9801
14847TIP3    H165956   4.774   5.692   1.790  0.6943  1.1186 -0.5929
14847TIP3    H265957   4.899   5.638   1.726  0.8970  1.2019 -0.2733
14848TIP3   OH265958   0.508   5.139  11.375  0.4516 -0.5395  0.3632
14848TIP3    H165959   0.500   5.132  11.280  1.3231  1.0977  0.1394
14848TIP3    H265960   0.591   5.184  11.389  1.0884 -2.1093  1.9659
14849TIP3   OH265961   1.536   2.548  13.627  0.1497  0.2530 -0.1608
14849TIP3    H165962   1.631   2.539  13.623  0.2272  0.9831 -0.0237
14849TIP3    H265963   1.504   2.459  13.641  0.8298  0.0500  0.1228
14850TIP3   OH265964   6.768   1.834  14.971 -0.1805 -0.5802  0.3498
14850TIP3    H165965   6.747   1.749  15.010  0.0015 -1.8700 -2.1853
14850TIP3    H265966   6.835   1.815  14.906 -0.7203  1.3733 -0.8514
14851TIP3   OH265967   3.511   5.737  17.242  0.2826 -0.4136 -0.0220
14851TIP3    H165968   3.446   5.678  17.281  0.6718 -0.2696  0.8725
14851TIP3    H265969   3.498   5.728  17.148 -0.6401 -0.8291  0.1344
14852TIP3   OH265970   5.461   1.317   1.317  0.3796  0.2365  0.3806
14852TIP3    H165971   5.500   1.346   1.400 -0.1476 -0.1164  0.7578
14852TIP3    H265972   5.417   1.235   1.338  2.1427 -1.0565 -0.7628
14853TIP3   OH265973   2.724   1.249   3.168 -0.2792  0.0830  0.0665
14853TIP3    H165974   2.666   1.294   3.229 -0.0934 -1.4115  1.4075
14853TIP3    H265975   2.810   1.255   3.208  0.3400  1.2851 -1.3493
14854TIP3   OH265976   3.797   2.806   1.305  0.5253  0.4305  0.5603
14854TIP3    H165977   3.772   2.774   1.391  0.3034 -0.3873  0.2050
14854TIP3    H265978   3.720   2.853   1.274 -0.4108 -1.4884 -0.2414
14855TIP3   OH265979   4.855   3.808  14.516 -0.0669  0.2834  0.1219
14855TIP3    H165980   4.941   3.815  14.557  0.4615  0.1612 -0.9207
14855TIP3    H265981   4.795   3.847  14.579  0.6660 -0.1463  1.1156
14856TIP3   OH265982   1.251   1.811   3.699  0.4578  0.5101  0.2437
14856TIP3    H165983   1.290   1.794   3.613 -1.3057  0.5066 -0.5870
14856TIP3    H265984   1.180   1.748   3.707  1.0594  0.0081  2.0627
14857TIP3   OH265985   1.568   3.530  12.759  0.1355 -0.1687 -0.8414
14857TIP3    H165986   1.514   3.458  12.726 -0.5285 -0.1336  0.1293
14857TIP3    H265987   1.505   3.598  12.785  0.4978 -0.7111  1.7178
14858TIP3   OH265988   6.347   2.389  12.548 -0.0863 -0.4630 -0.7137
14858TIP3    H165989   6.379   2.323  12.608 -0.8798  0.4934  0.8192
14858TIP3    H265990   6.420   2.451  12.538 -0.4384  0.1768  0.4947
14859TIP3   OH265991   1.282   3.734   5.405 -0.5596  0.6802 -0.3233
14859TIP3    H165992   1.240   3.650   5.387 -0.2369  0.2205  0.9914
14859TIP3    H265993   1.209   3.794   5.421 -0.7698  0.4650 -0.4653
14860TIP3   OH265994   3.196   5.223   4.102  0.0759  0.5851  0.0384
14860TIP3    H165995   3.187   5.138   4.060 -0.1212  1.4207 -1.7065
14860TIP3    H265996   3.232   5.280   4.034 -0.8551  2.1665  0.7991
14861TIP3   OH265997   2.044   6.713  11.045  0.0360  0.3015  0.8018
14861TIP3    H165998   1.953   6.729  11.019  0.4179  2.9040  0.8020
14861TIP3    H265999   2.070   6.636  10.996 -2.0426 -0.2834  0.5100
14862TIP3   OH266000   1.087   2.596   6.615 -0.4043  0.6960 -0.4889
14862TIP3    H166001   1.101   2.513   6.569 -1.7543 -0.0082  0.3249
14862TIP3    H266002   1.146   2.658   6.571 -1.6260  0.0783 -3.1747
14863TIP3   OH266003   4.507   1.957   0.391  0.0988 -0.5500 -0.6144
14863TIP3    H166004   4.580   2.004   0.350 -0.0844 -0.2566 -0.6083
14863TIP3    H266005   4.547   1.880   0.431  0.3604 -0.5528 -0.8769
14864TIP3   OH266006   2.216   0.922  11.436  0.2329 -0.0363 -0.1552
14864TIP3    H166007   2.225   0.918  11.340 -0.4362  2.4547 -0.3935
14864TIP3    H266008   2.124   0.898  11.452  0.1744  0.1446 -0.2113
14865TIP3   OH266009   5.240   2.969   0.897 -0.0222 -0.0622 -0.0303
14865TIP3    H166010   5.189   2.888   0.897 -0.3537  0.1444 -0.6408
14865TIP3    H266011   5.180   3.035   0.932 -1.1190  0.7412 -3.1182
14866TIP3   OH266012   3.620   4.694  11.335  0.9128 -0.1465  0.2504
14866TIP3    H166013   3.634   4.599  11.339 -2.6255 -0.7797  3.0104
14866TIP3    H266014   3.689   4.731  11.389  0.9200 -1.4317  1.1753
14867TIP3   OH266015   0.586   6.178   6.978 -0.0239 -0.7850 -0.3831
14867TIP3    H166016   0.550   6.180   6.889  0.4855 -1.0999 -0.6028
14867TIP3    H266017   0.643   6.255   6.983  0.4742 -1.1367 -0.5623
14868TIP3   OH266018   5.273   3.248   0.099  0.2402 -0.7144  0.9556
14868TIP3    H166019   5.328   3.294   0.035  1.0279  0.3889  2.3720
14868TIP3    H266020   5.227   3.317   0.146 -2.4997 -1.6202 -0.2234
14869TIP3   OH266021   1.573   2.989  13.485 -0.0207  0.3749  0.4375
14869TIP3    H166022   1.591   3.002  13.578 -2.2652  0.1177  0.9706
14869TIP3    H266023   1.560   3.077  13.451 -0.1447  0.4213  0.6019
14870TIP3   OH266024   6.041   1.284   3.865  0.4420 -0.4028 -0.1740
14870TIP3    H166025   6.055   1.375   3.837  1.6391 -0.1707  1.0644
14870TIP3    H266026   6.122   1.239   3.840 -0.1115 -1.1356 -0.7095
14871TIP3   OH266027   0.669   0.921  14.088  0.3134 -0.0612 -0.3291
14871TIP3    H166028   0.673   0.828  14.066 -0.7436 -0.4127  0.8256
14871TIP3    H266029   0.733   0.933  14.158 -1.6240 -0.6326  1.6670
14872TIP3   OH266030   0.475   4.147  16.896  0.0069 -0.0929 -0.0103
14872TIP3    H166031   0.535   4.142  16.822  1.0389 -0.9801  0.8509
14872TIP3    H266032   0.494   4.068  16.948 -1.5029 -0.0988  0.5906
14873TIP3   OH266033   4.612   0.997   1.367  0.6967 -0.2207  0.3833
14873TIP3    H166034   4.576   0.996   1.456 -0.7004 -2.3919 -0.1394
14873TIP3    H266035   4.547   1.045   1.316  1.1735  0.4348  0.3706
14874TIP3   OH266036   1.015   5.630  16.209 -0.0361  0.1853 -0.3836
14874TIP3    H166037   1.055   5.641  16.295  0.9387 -4.1869 -0.0191
14874TIP3    H266038   1.053   5.700  16.156  1.3824  1.4246  2.0753
14875TIP3   OH266039   0.723   3.650  10.738  0.3446 -0.8239 -0.2987
14875TIP3    H166040   0.640   3.664  10.691  0.1214 -0.6859  0.1276
14875TIP3    H266041   0.789   3.645  10.669  0.0151 -0.6815 -0.6304
14876TIP3   OH266042   2.138   1.231  16.639 -0.2261 -0.3487  0.1886
14876TIP3    H166043   2.162   1.323  16.628 -0.2643 -0.4546 -0.8863
14876TIP3    H266044   2.083   1.230  16.717  0.5985  0.3843  0.8031
14877TIP3   OH266045   6.471   3.117  16.140  0.5424 -0.4361  0.1295
14877TIP3    H166046   6.495   3.209  16.125  0.6256 -0.4985 -0.1383
14877TIP3    H266047   6.403   3.120  16.207 -0.3755 -0.0859 -0.7942
14878TIP3   OH266048   5.096   1.732  12.191  0.2720 -0.7944  0.5112
14878TIP3    H166049   5.026   1.798  12.189 -0.8719 -1.9196  1.9120
14878TIP3    H266050   5.053   1.650  12.171  1.5212 -1.3038 -0.2377
14879TIP3   OH266051   6.408   4.848  16.492 -0.0357 -0.6737 -0.2559
14879TIP3    H166052   6.408   4.759  16.527  0.5464 -1.0046 -1.0692
14879TIP3    H266053   6.485   4.890  16.529 -0.3685 -0.4706  0.2114
14880TIP3   OH266054   2.638   0.981  14.487  0.0845 -0.1234  0.2703
14880TIP3    H166055   2.577   1.050  14.460 -0.5992 -0.7364  0.2006
14880TIP3    H266056   2.663   1.004  14.576 -1.4847 -0.6781  0.8881
14881TIP3   OH266057   3.192   3.831  12.980 -0.4579 -0.3222  0.3788
14881TIP3    H166058   3.241   3.881  13.045 -2.4507  0.6920  1.1551
14881TIP3    H266059   3.260   3.796  12.922  1.1484  1.5060  1.0462
14882TIP3   OH266060   2.335   0.690  11.437 -0.1254 -0.2797 -0.4423
14882TIP3    H166061   2.328   0.781  11.408 -0.6331 -0.5022 -1.0512
14882TIP3    H266062   2.255   0.674  11.487 -0.8212 -0.8413 -1.6799
14883TIP3   OH266063   1.234   3.225  15.714 -0.0111 -0.0749  0.0547
14883TIP3    H166064   1.261   3.316  15.706  0.5981 -0.2661 -0.1088
14883TIP3    H266065   1.235   3.191  15.625 -1.4761  0.0931 -0.0478
14884TIP3   OH266066   4.540   0.139   5.744 -0.5425 -0.0615 -0.6773
14884TIP3    H166067   4.459   0.108   5.704 -0.8897 -1.0883  0.7260
14884TIP3    H266068   4.517   0.150   5.837  0.1024  2.6217 -0.7617
14885TIP3   OH266069   2.108   4.847  12.790 -0.3112  0.2527  0.0619
14885TIP3    H166070   2.179   4.882  12.844 -0.5545  1.0075 -0.0967
14885TIP3    H266071   2.030   4.857  12.844 -0.2669 -0.9170  0.3832
14886TIP3   OH266072   6.362   6.545   0.458  0.5671 -0.3828 -0.3008
14886TIP3    H166073   6.273   6.575   0.477  0.2485 -1.3350 -0.2262
14886TIP3    H266074   6.360   6.524   0.364  0.2960 -1.7304 -0.0130
14887TIP3   OH266075   5.031   3.437   6.508  0.4854  0.1752  0.2929
14887TIP3    H166076   5.034   3.377   6.583  1.0402 -0.8426 -0.5008
14887TIP3    H266077   5.047   3.380   6.432  0.3373  1.2376 -0.5584
14888TIP3   OH266078   0.185   3.786   5.786  0.3150  0.6297  0.2606
14888TIP3    H166079   0.118   3.766   5.851  1.9715  2.4749  2.7355
14888TIP3    H266080   0.198   3.881   5.794  1.1901  0.8085 -2.2609
14889TIP3   OH266081   5.596   4.956   5.818  0.4332  0.1749 -0.0194
14889TIP3    H166082   5.657   5.018   5.778  0.6849  0.1956  0.3930
14889TIP3    H266083   5.544   4.923   5.745  0.9132  0.1829 -0.3666
14890TIP3   OH266084   3.633   1.091  12.905 -0.2613  0.6292 -0.0390
14890TIP3    H166085   3.703   1.102  12.970  0.8626  0.0144 -1.1001
14890TIP3    H266086   3.678   1.091  12.821 -1.2918 -1.6021 -0.6749
14891TIP3   OH266087   1.956   2.327  10.644  0.1781 -0.1396 -0.0048
14891TIP3    H166088   2.016   2.259  10.613  1.0881  0.4248  0.4802
14891TIP3    H266089   1.875   2.310  10.596  0.7898 -0.7768 -0.8580
14892TIP3   OH266090   5.263   4.143   4.142 -0.6338  0.2632 -0.0000
14892TIP3    H166091   5.169   4.143   4.157 -0.5864 -0.5081  0.3838
14892TIP3    H266092   5.290   4.233   4.155 -1.1625  0.2959  0.9751
14893TIP3   OH266093   1.507   0.941  11.395 -0.2421 -0.7645  0.2320
14893TIP3    H166094   1.521   1.032  11.421 -2.2068 -0.2542 -0.2763
14893TIP3    H266095   1.498   0.893  11.478  0.0115 -0.3506  0.4978
14894TIP3   OH266096   0.610   3.253  11.606  0.2897  0.0105 -1.0014
14894TIP3    H166097   0.668   3.321  11.640  2.1504 -2.0484  0.2246
14894TIP3    H266098   0.567   3.293  11.530  1.2251  2.5264 -0.3024
14895TIP3   OH266099   4.971   1.024  14.601 -0.1017 -0.0542 -0.3192
14895TIP3    H166100   4.977   1.093  14.666  0.7739 -1.2235  0.9065
14895TIP3    H266101   4.967   0.943  14.652  1.3126 -1.0607 -1.6937
14896TIP3   OH266102   5.902   2.343   5.542  0.1573 -0.1519  0.3395
14896TIP3    H166103   5.897   2.255   5.504  2.4497  0.0257 -0.5153
14896TIP3    H266104   5.854   2.336   5.625 -0.1527 -2.0608  0.0469
14897TIP3   OH266105   2.563   1.976  15.310  0.4700 -0.4717 -0.9579
14897TIP3    H166106   2.622   1.975  15.234  1.6945  0.2648 -0.0686
14897TIP3    H266107   2.548   1.884  15.330  2.4074 -0.7300 -0.4504
14898TIP3   OH266108   0.937   6.018   1.741 -0.5675 -0.5716 -0.1683
14898TIP3    H166109   0.916   6.055   1.655 -1.4395 -0.1063  0.2273
14898TIP3    H266110   1.010   5.959   1.724 -2.0460 -2.1150 -1.5998
14899TIP3   OH266111   6.155   1.878   3.222 -0.1024  0.4683 -0.9291
14899TIP3    H166112   6.219   1.862   3.153  0.9011  1.2241 -0.2040
14899TIP3    H266113   6.109   1.795   3.233  1.4805 -0.4063 -0.7232
14900TIP3   OH266114   1.794   3.389  15.116 -0.6850  0.4385 -0.6008
14900TIP3    H166115   1.782   3.339  15.035  0.0099  0.9871 -1.0512
14900TIP3    H266116   1.885   3.419  15.113 -1.1092  1.8220 -0.4092
14901TIP3   OH266117   2.781   3.530  12.886 -0.1164  0.3710 -0.1428
14901TIP3    H166118   2.858   3.476  12.902 -0.1552  0.8157  1.7060
14901TIP3    H266119   2.733   3.529  12.969 -1.0782  1.7239 -0.6518
14902TIP3   OH266120   2.151   5.376   6.323 -0.1519 -0.5290  0.2714
14902TIP3    H166121   2.235   5.419   6.338 -1.1508  1.0026  1.8177
14902TIP3    H266122   2.125   5.405   6.236  0.6241 -0.5113  0.0369
14903TIP3   OH266123   4.899   0.250  11.159  0.3240 -0.5159  0.2848
14903TIP3    H166124   4.916   0.170  11.208  1.4035 -0.4105  0.1126
14903TIP3    H266125   4.938   0.235  11.072 -0.7190 -0.3415 -0.2235
14904TIP3   OH266126   0.336   5.952  15.549  0.3473  0.2279 -0.0638
14904TIP3    H166127   0.270   5.941  15.617  1.5726 -0.8648  1.0154
14904TIP3    H266128   0.302   6.022  15.493 -1.5184 -0.0549  0.6533
14905TIP3   OH266129   3.602   1.178   5.910  0.2927 -0.6186 -0.8496
14905TIP3    H166130   3.642   1.137   5.987 -3.5058 -1.7813  0.8114
14905TIP3    H266131   3.538   1.239   5.947  0.0370  0.6208 -3.1897
14906TIP3   OH266132   4.220   4.753   0.369 -0.1149 -0.2551 -0.2176
14906TIP3    H166133   4.242   4.788   0.456 -0.1472 -0.1164 -0.2660
14906TIP3    H266134   4.299   4.766   0.317 -0.0804 -0.3795 -0.1964
14907TIP3   OH266135   1.486   4.520  13.834  0.0436 -0.1119 -0.3714
14907TIP3    H166136   1.416   4.566  13.879  0.7055 -0.0436  0.6239
14907TIP3    H266137   1.557   4.584  13.828  0.3996 -0.5027 -0.3985
14908TIP3   OH266138   2.048   2.534  14.478 -0.3807 -0.0207 -0.0324
14908TIP3    H166139   2.027   2.506  14.389  0.1140 -1.7480  0.3602
14908TIP3    H266140   1.967   2.520  14.527 -0.7708  1.2924 -0.2570
14909TIP3   OH266141   4.899   5.146   4.138 -0.3198  0.2177 -0.2369
14909TIP3    H166142   4.876   5.207   4.068 -0.4998  0.7103  0.2517
14909TIP3    H266143   4.982   5.178   4.172 -0.8737  0.7341  0.6414
14910TIP3   OH266144   5.877   0.140   5.686  0.3855 -0.1489 -0.7408
14910TIP3    H166145   5.929   0.204   5.735  0.2181 -0.4498 -0.1652
14910TIP3    H266146   5.933   0.063   5.678  0.2479 -0.2628 -0.6264
14911TIP3   OH266147   1.147   3.552   4.002 -0.1527  0.0117  0.0739
14911TIP3    H166148   1.124   3.568   3.911  1.0755 -2.0283 -0.6576
14911TIP3    H266149   1.067   3.517   4.041 -0.9679  1.7720  0.0829
14912TIP3   OH266150   2.592   5.657  11.815  0.1052 -0.1586 -0.0120
14912TIP3    H166151   2.537   5.721  11.770 -0.2491 -1.3329 -1.3228
14912TIP3    H266152   2.681   5.689  11.802 -0.0593  0.0205 -0.7879
14913TIP3   OH266153   3.813   0.586  11.548  1.2672  0.0103 -0.0981
14913TIP3    H166154   3.813   0.529  11.471 -0.1009  1.1957 -1.0459
14913TIP3    H266155   3.900   0.626  11.549  1.2792  0.0286 -1.0825
14914TIP3   OH266156   5.178   6.692  14.197 -0.1436 -0.1313  0.3474
14914TIP3    H166157   5.120   6.701  14.121  0.5958 -2.0509 -0.5006
14914TIP3    H266158   5.227   6.774  14.200 -3.4872  2.0726  1.7125
14915TIP3   OH266159   2.092   5.107  12.698  0.7250  0.7623  0.1112
14915TIP3    H166160   2.078   5.018  12.731 -0.8503  1.3160  1.0852
14915TIP3    H266161   2.177   5.104  12.655  1.7454 -0.6552  2.0755
14916TIP3   OH266162   0.115   2.299  13.137  0.3357 -0.8968 -0.4681
14916TIP3    H166163   0.137   2.388  13.167 -0.0310 -0.5117 -1.2985
14916TIP3    H266164   0.195   2.268  13.095  0.6693 -1.2154  0.3917
14917TIP3   OH266165   1.920   2.760  16.865  0.1640 -0.1041  0.2127
14917TIP3    H166166   1.863   2.836  16.875 -1.0242 -0.9945  0.4720
14917TIP3    H266167   1.908   2.732  16.774  0.9925  0.3168 -0.0304
14918TIP3   OH266168   4.891   2.703   5.365 -0.4249 -0.6574 -0.3697
14918TIP3    H166169   4.921   2.626   5.316  1.9474 -0.8400  1.1889
14918TIP3    H266170   4.962   2.767   5.355 -0.0992 -0.5000  2.2144
14919TIP3   OH266171   1.457   0.993  15.533 -0.0559  0.3667 -0.0607
14919TIP3    H166172   1.504   1.048  15.470 -0.5357 -0.3307 -1.0665
14919TIP3    H266173   1.394   0.943  15.479  0.1227 -0.9005  0.8509
14920TIP3   OH266174   5.469   1.488  12.974  0.4145  0.2061 -0.4885
14920TIP3    H166175   5.469   1.395  12.952  1.6434 -0.4224  1.8032
14920TIP3    H266176   5.533   1.527  12.915 -0.1517 -0.3523 -1.5070
14921TIP3   OH266177   2.452   0.737  15.413 -0.0018 -0.1630  0.0657
14921TIP3    H166178   2.405   0.751  15.331 -1.2187 -0.2751  0.7141
14921TIP3    H266179   2.543   0.722  15.387 -0.6632 -2.0071 -1.4103
14922TIP3   OH266180   0.681   3.932  12.218  0.2965  0.3314 -0.6103
14922TIP3    H166181   0.649   3.864  12.159 -1.3637  0.9399 -0.4609
14922TIP3    H266182   0.777   3.929  12.209  0.2320 -1.5780 -1.0661
14923TIP3   OH266183   0.500   5.802  11.970 -0.4070 -0.7863  0.0916
14923TIP3    H166184   0.517   5.895  11.988  2.4892 -1.1478 -0.3824
14923TIP3    H266185   0.428   5.780  12.029 -0.8726  1.6219  0.5505
14924TIP3   OH266186   1.165   0.715   4.073  0.5861  0.6781  0.3952
14924TIP3    H166187   1.111   0.748   4.001 -0.3128 -1.4693  0.0045
14924TIP3    H266188   1.247   0.689   4.031  0.2170 -0.1858  0.1787
14925TIP3   OH266189   6.012   0.577  11.699  0.0163  0.3919  0.2461
14925TIP3    H166190   6.077   0.567  11.630 -2.5158 -4.4614 -1.9597
14925TIP3    H266191   5.945   0.635  11.661  0.5851  1.1816  0.4269
14926TIP3   OH266192   2.954   0.092  14.345 -0.4796  0.4834 -0.4108
14926TIP3    H166193   3.010   0.162  14.310  0.1450 -0.0523 -0.4989
14926TIP3    H266194   2.926   0.043  14.269 -0.9494  0.6589 -0.3503
14927TIP3   OH266195   2.539   2.134   6.068  0.2803 -0.4928 -0.7952
14927TIP3    H166196   2.623   2.089   6.057  0.9048  0.5335 -0.3716
14927TIP3    H266197   2.485   2.100   5.997  1.4358 -0.3005 -1.8017
14928TIP3   OH266198   2.063   5.537   2.010  0.6899 -0.4743 -0.1081
14928TIP3    H166199   2.032   5.504   1.926 -2.1531  1.5402  0.0231
14928TIP3    H266200   2.030   5.474   2.075 -1.6615  0.6178 -0.1483
14929TIP3   OH266201   6.208   5.647  12.585 -0.2752  0.4926 -0.8257
14929TIP3    H166202   6.188   5.576  12.523 -1.0251  0.5494 -0.6560
14929TIP3    H266203   6.163   5.622  12.665  1.8235 -0.2940  0.1922
14930TIP3   OH266204   5.730   5.148   3.163 -0.0815  0.3412 -0.6192
14930TIP3    H166205   5.724   5.052   3.161  1.7994  0.1444  0.5008
14930TIP3    H266206   5.700   5.176   3.077 -4.2156 -0.9340  0.1539
14931TIP3   OH266207   2.919   4.191  15.862  0.3840 -0.6658 -0.7691
14931TIP3    H166208   2.932   4.283  15.840  0.0403 -0.5767 -0.6031
14931TIP3    H266209   3.008   4.158  15.878  0.4353 -0.0921  0.2211
14932TIP3   OH266210   1.119   0.111  11.734  0.8575  0.1187  0.3256
14932TIP3    H166211   1.154   0.024  11.757 -0.1229 -0.1985  0.6668
14932TIP3    H266212   1.128   0.162  11.815  0.1473 -0.1007  0.5540
14933TIP3   OH266213   0.638   3.168  14.471 -0.8586  0.0639 -0.1665
14933TIP3    H166214   0.586   3.124  14.404  0.8538  0.6009 -1.9294
14933TIP3    H266215   0.728   3.167  14.437  0.3778 -0.9261  2.7806
14934TIP3   OH266216   2.628   4.691  15.479 -0.0046  0.1060  0.4317
14934TIP3    H166217   2.560   4.624  15.479  0.4894 -0.4466 -1.4220
14934TIP3    H266218   2.636   4.718  15.387  1.5992  0.8465  0.7556
14935TIP3   OH266219   0.188   2.631   0.920 -0.1860  0.4085 -0.5019
14935TIP3    H166220   0.124   2.592   0.980 -1.6422 -0.7635 -2.6582
14935TIP3    H266221   0.203   2.719   0.955 -0.2394 -0.5070  2.0297
14936TIP3   OH266222   3.267   1.880  12.864  0.2728  0.4166  0.0746
14936TIP3    H166223   3.225   1.808  12.911  0.2564  2.1270  2.8460
14936TIP3    H266224   3.357   1.882  12.897  1.2506 -0.2408 -2.3297
14937TIP3   OH266225   1.565   0.545   1.468  0.1744  0.0563 -0.2007
14937TIP3    H166226   1.655   0.546   1.435  0.1940 -1.0665 -0.2039
14937TIP3    H266227   1.565   0.480   1.538 -0.4235  0.7284  0.4450
14938TIP3   OH266228   0.876   1.168   6.554 -0.0527  0.5667 -0.2116
14938TIP3    H166229   0.837   1.149   6.468  0.5790  1.2375 -0.6568
14938TIP3    H266230   0.810   1.220   6.599 -0.8183 -0.6607  0.1157
14939TIP3   OH266231   4.289   5.580  12.272 -0.3245 -0.1527  0.5612
14939TIP3    H166232   4.380   5.605  12.289  0.2072 -0.9565 -0.9361
14939TIP3    H266233   4.240   5.621  12.343  0.8185  2.8368 -0.2192
14940TIP3   OH266234   5.890   5.968   4.576 -0.1223 -0.7069 -0.0181
14940TIP3    H166235   5.849   5.881   4.573  0.9944 -1.2396 -2.5104
14940TIP3    H266236   5.887   5.993   4.668 -2.5061 -2.3822  0.4516
14941TIP3   OH266237   6.289   1.775   1.334  0.4869  0.1515 -0.4124
14941TIP3    H166238   6.344   1.731   1.270  1.5969 -0.1030  0.6775
14941TIP3    H266239   6.223   1.710   1.358  0.5334 -0.0130 -0.7236
14942TIP3   OH266240   2.116   4.762   3.296 -0.1392  0.3914  0.1601
14942TIP3    H166241   2.089   4.853   3.282 -2.2608 -0.2870 -0.5734
14942TIP3    H266242   2.091   4.743   3.386  0.6038  0.6096  0.4200
14943TIP3   OH266243   0.518   2.343  12.836 -0.5069 -0.2317  0.4098
14943TIP3    H166244   0.593   2.305  12.882 -0.9294 -2.4649 -0.6629
14943TIP3    H266245   0.444   2.328  12.895 -0.6026 -0.6820  0.1746
14944TIP3   OH266246   1.878   4.016  14.393  0.1957  0.0296  0.2891
14944TIP3    H166247   1.894   4.023  14.487  1.8554 -2.4190  0.2797
14944TIP3    H266248   1.935   4.082  14.354  0.8990 -0.1987  0.9173
14945TIP3   OH266249   6.733   0.129  13.765 -0.0596 -0.0604  0.1837
14945TIP3    H166250   6.714   0.073  13.691  2.4992 -2.0640  0.9094
14945TIP3    H266251   6.742   0.217  13.727  0.6514 -0.9374 -1.8291
14946TIP3   OH266252   1.690   3.778  11.388  0.1099  0.2309 -0.4111
14946TIP3    H166253   1.748   3.702  11.384  1.3046  1.0305  0.9263
14946TIP3    H266254   1.739   3.847  11.342  0.1635  0.8649  0.5817
14947TIP3   OH266255   4.645   6.018   1.062 -0.0987 -0.1567 -0.3056
14947TIP3    H166256   4.681   6.096   1.020 -0.8741  0.3889  0.0375
14947TIP3    H266257   4.621   6.046   1.150  0.8154 -1.1086  0.2838
14948TIP3   OH266258   3.311   0.531  13.568  0.2965  0.2628 -0.5885
14948TIP3    H166259   3.321   0.566  13.479  0.6670  0.5344 -0.4410
14948TIP3    H266260   3.396   0.545  13.609  1.0041 -2.3551 -1.0440
14949TIP3   OH266261   5.364   5.223  12.335 -0.4584  0.2552 -0.1846
14949TIP3    H166262   5.381   5.279  12.410 -0.7393  0.2633 -0.1240
14949TIP3    H266263   5.358   5.283  12.261 -0.2515  0.2541 -0.2014
14950TIP3   OH266264   4.385   3.219  14.596  0.6466 -0.0560  0.1447
14950TIP3    H166265   4.379   3.192  14.688  0.1387 -1.2679 -0.2237
14950TIP3    H266266   4.297   3.249  14.573  1.1737  1.9372  0.5137
14951TIP3   OH266267   6.563   4.215   3.596 -0.3439 -0.3041  0.1713
14951TIP3    H166268   6.584   4.191   3.506  1.2864  0.5119  0.3012
14951TIP3    H266269   6.478   4.259   3.589 -0.1365 -0.0392 -1.0111
14952TIP3   OH266270   5.784   0.295  16.205 -0.2220 -0.1558 -0.6578
14952TIP3    H166271   5.805   0.369  16.149  0.7636  0.0822  0.0034
14952TIP3    H266272   5.869   0.260  16.232 -0.6649 -0.3382  0.5801
14953TIP3   OH266273   6.641   1.161  16.965  0.1084 -0.0257 -0.3917
14953TIP3    H166274   6.581   1.102  16.920 -0.3951 -0.9491  1.4058
14953TIP3    H266275   6.672   1.220  16.896 -2.5093  0.2330 -1.4883
14954TIP3   OH266276   0.947   3.059   0.878 -0.3754 -0.6089  0.8113
14954TIP3    H166277   0.942   3.074   0.972  0.4040  0.2457  0.7278
14954TIP3    H266278   1.028   3.102   0.851 -0.2769 -1.3666 -0.1536
14955TIP3   OH266279   2.638   3.506   2.566  0.2432 -0.0041  0.2463
14955TIP3    H166280   2.625   3.599   2.581 -0.7957 -0.0891 -0.0382
14955TIP3    H266281   2.640   3.497   2.471 -0.5597 -0.3750  0.2563
14956TIP3   OH266282   2.499   0.829  12.046 -0.2410 -0.1821 -0.2326
14956TIP3    H166283   2.416   0.848  12.088 -0.6712 -1.2482 -0.5731
14956TIP3    H266284   2.561   0.819  12.119  0.0374  2.4248 -0.0297
14957TIP3   OH266285   5.287   5.346   0.071 -0.3581 -0.1322  0.2023
14957TIP3    H166286   5.337   5.427   0.077  0.9780 -1.0000  1.5570
14957TIP3    H266287   5.305   5.313  -0.017 -2.6794  2.0376 -1.2296
14958TIP3   OH266288   5.136   3.936   5.197  0.4781  0.5013 -0.4373
14958TIP3    H166289   5.060   3.900   5.244  0.8779 -2.2864 -1.6878
14958TIP3    H266290   5.125   3.904   5.107  4.2625 -2.1523 -0.1716
14959TIP3   OH266291   4.764   4.407   1.437 -0.3539  0.0676 -0.1917
14959TIP3    H166292   4.841   4.391   1.492 -0.3066  0.1632 -0.2296
14959TIP3    H266293   4.743   4.321   1.400 -0.0808  0.0969 -0.4213
14960TIP3   OH266294   0.758   1.903  15.976  0.3090 -0.4905 -0.2563
14960TIP3    H166295   0.675   1.915  15.930 -0.7082  0.5183  1.7102
14960TIP3    H266296   0.749   1.818  16.020 -0.3469  0.2936  1.1797
14961TIP3   OH266297   2.300   4.529  13.675 -0.6403  0.1079 -0.0717
14961TIP3    H166298   2.211   4.522  13.710 -0.6712 -1.0764 -0.3407
14961TIP3    H266299   2.302   4.466  13.603  0.9257 -1.1929  1.0307
14962TIP3   OH266300   0.919   6.403  14.998  0.3764 -0.2227 -0.0243
14962TIP3    H166301   0.906   6.382  15.091  1.3013  0.5810  0.3139
14962TIP3    H266302   0.831   6.404  14.961 -0.4607  3.0172  1.6583
14963TIP3   OH266303   4.790   1.886  13.952  0.0168  0.4840  0.1408
14963TIP3    H166304   4.875   1.911  13.988 -0.6021  1.4473  1.0076
14963TIP3    H266305   4.761   1.814  14.007 -0.9743  2.0224  1.7418
14964TIP3   OH266306   1.015   5.480  16.656 -0.1639 -0.0709  0.0968
14964TIP3    H166307   0.987   5.497  16.746 -1.2085  1.3018 -0.4574
14964TIP3    H266308   1.033   5.386  16.654 -2.6588 -0.6391  1.0743
14965TIP3   OH266309   2.250   3.805  13.141 -0.5184  0.2417  0.3226
14965TIP3    H166310   2.333   3.817  13.094 -1.0919  0.6065 -0.6345
14965TIP3    H266311   2.223   3.716  13.120 -1.0742  0.6021 -0.5771
14966TIP3   OH266312   6.605   1.995  11.107 -0.0309 -0.2444  0.2322
14966TIP3    H166313   6.513   1.997  11.133 -0.5088 -1.1485 -1.2587
14966TIP3    H266314   6.608   1.931  11.036  2.0075 -1.3020  1.2036
14967TIP3   OH266315   3.072   5.198   1.274 -0.2986  0.1642  0.3777
14967TIP3    H166316   3.127   5.219   1.199  1.3832  0.0769  1.5254
14967TIP3    H266317   3.085   5.272   1.334 -0.3621 -0.5214  1.2423
14968TIP3   OH266318   1.827   1.119  17.030 -0.1826 -0.5830 -0.1723
14968TIP3    H166319   1.818   1.214  17.034 -0.8425 -0.6430 -0.1173
14968TIP3    H266320   1.920   1.102  17.048 -0.3855 -0.0596  1.4886
14969TIP3   OH266321   4.176   4.917   2.100 -0.0223  0.4504 -0.0728
14969TIP3    H166322   4.148   4.933   2.010  0.0501  0.4540 -0.0944
14969TIP3    H266323   4.146   4.994   2.149 -0.0765  0.4401 -0.0898
14970TIP3   OH266324   1.100   4.421  13.737  0.1337 -0.0020  0.3313
14970TIP3    H166325   1.105   4.458  13.825 -2.3548  0.5328  0.3240
14970TIP3    H266326   1.077   4.329  13.751 -1.3040  0.3225  0.2795
14971TIP3   OH266327   4.294   4.683   2.768 -0.7765 -0.1237 -0.3764
14971TIP3    H166328   4.256   4.652   2.685  0.0348 -0.4882 -0.6258
14971TIP3    H266329   4.220   4.713   2.819 -1.2396  0.6648 -1.4780
14972TIP3   OH266330   6.175   5.888  15.791  0.7780 -0.0750 -0.2113
14972TIP3    H166331   6.139   5.905  15.878  0.9743 -1.0566  0.0757
14972TIP3    H266332   6.099   5.889  15.733  0.5493 -0.1713  0.0863
14973TIP3   OH266333   2.909   4.086   1.301  0.3149 -0.2532  0.1578
14973TIP3    H166334   2.819   4.079   1.271  0.4554  0.2266 -0.3806
14973TIP3    H266335   2.914   4.024   1.374 -0.7025  0.4130  0.8136
14974TIP3   OH266336   5.361   6.305   1.671 -0.2095 -0.0781 -0.1396
14974TIP3    H166337   5.297   6.234   1.683  0.9566 -1.0186  0.7869
14974TIP3    H266338   5.445   6.265   1.692  0.6915  1.1698 -1.1820
14975TIP3   OH266339   1.240   1.265   2.295 -0.3195 -0.5358 -0.1651
14975TIP3    H166340   1.166   1.263   2.234  0.4852  1.3449 -1.2972
14975TIP3    H266341   1.268   1.357   2.296  0.4112 -0.7173  2.2115
14976TIP3   OH266342   4.626   3.898   5.443  0.6919 -0.2258 -0.0704
14976TIP3    H166343   4.540   3.857   5.443  1.1424 -1.2063  0.3616
14976TIP3    H266344   4.684   3.833   5.483  1.5153  0.6689  0.2391
14977TIP3   OH266345   6.513   5.963  12.005 -0.0306 -0.0281 -0.3136
14977TIP3    H166346   6.560   5.992  12.084 -1.7959 -1.2405  1.2797
14977TIP3    H266347   6.524   5.868  12.004 -2.5724 -0.4129  0.3074
14978TIP3   OH266348   5.392   3.731   5.724  0.2933 -0.2951  0.0378
14978TIP3    H166349   5.346   3.810   5.695  1.7286  0.7538  0.5091
14978TIP3    H266350   5.382   3.731   5.819 -1.1752 -1.6752 -0.0645
14979TIP3   OH266351   1.104   1.488   2.047  0.0869  0.7148  0.1763
14979TIP3    H166352   1.090   1.536   1.966 -3.1547  0.5126  0.4654
14979TIP3    H266353   1.112   1.556   2.115 -0.1361  0.8753  0.0424
14980TIP3   OH266354   3.375   2.570   0.074 -0.3441 -0.0421 -0.1738
14980TIP3    H166355   3.416   2.541   0.155 -1.8488 -0.1391  0.5808
14980TIP3    H266356   3.386   2.496   0.014  1.9156  0.5088 -0.5300
14981TIP3   OH266357   5.510   2.001  17.073  0.4568 -0.1865 -0.2580
14981TIP3    H166358   5.446   1.957  17.129  1.4910 -0.8448  0.4253
14981TIP3    H266359   5.585   2.018  17.130  0.2110  2.2604 -0.5570
14982TIP3   OH266360   1.777   4.989  11.259  0.2615  0.1926  0.2863
14982TIP3    H166361   1.847   5.054  11.252 -0.8404  1.2715 -1.2101
14982TIP3    H266362   1.750   4.973  11.169 -1.6925  0.1091  0.8451
14983TIP3   OH266363   1.837   6.181  15.747  0.2261  0.3606  0.5906
14983TIP3    H166364   1.838   6.128  15.667  1.1549  1.6022 -0.2516
14983TIP3    H266365   1.862   6.269  15.718 -0.6759  1.1339  2.0500
14984TIP3   OH266366   4.666   1.580   1.171 -0.2685  0.6336 -0.0796
14984TIP3    H166367   4.724   1.515   1.130 -0.4643  0.1838  0.3523
14984TIP3    H266368   4.633   1.537   1.249 -0.2262  1.3390  0.3361
14985TIP3   OH266369   3.201   4.000  13.616  0.0358  0.0124  0.0631
14985TIP3    H166370   3.138   4.072  13.608  1.4646  1.4381  1.1134
14985TIP3    H266371   3.200   3.958  13.530 -1.1780  0.9843 -0.4257
14986TIP3   OH266372   3.638   5.702  16.767 -0.1128  0.3115  0.1440
14986TIP3    H166373   3.696   5.773  16.792 -0.3159  0.4932  0.1056
14986TIP3    H266374   3.610   5.724  16.678  0.7979 -0.4516 -0.3495
14987TIP3   OH266375   5.647   6.392  14.492  0.5187  0.5636 -0.0362
14987TIP3    H166376   5.577   6.361  14.550 -0.1537  0.7589 -0.7279
14987TIP3    H266377   5.680   6.312  14.450  0.5940  0.4896  0.1643
14988TIP3   OH266378   2.939   2.288   5.998 -0.3212  0.5689 -0.0154
14988TIP3    H166379   2.880   2.256   5.929  0.4195  1.7176 -1.2367
14988TIP3    H266380   2.965   2.209   6.046  0.9490 -0.6470 -2.5163
14989TIP3   OH266381   4.359   1.867  13.425 -0.3671 -0.5247  0.5340
14989TIP3    H166382   4.283   1.910  13.386 -0.4714  0.1288  1.4339
14989TIP3    H266383   4.424   1.864  13.354  0.2455  2.5853  0.8452
14990TIP3   OH266384   2.950   0.537  12.687 -0.1314  0.0847  0.1269
14990TIP3    H166385   3.043   0.558  12.694  0.3087  0.0028 -3.4850
14990TIP3    H266386   2.912   0.564  12.771  2.9303  1.2121  1.2665
14991TIP3   OH266387   5.932   6.723   4.087 -0.9904  0.2610  0.0022
14991TIP3    H166388   5.985   6.785   4.138  0.3039 -0.9572  0.2084
14991TIP3    H266389   5.855   6.707   4.141 -0.4066  0.2199  0.8317
14992TIP3   OH266390   4.404   5.661  14.612 -0.5257  0.0922 -0.8895
14992TIP3    H166391   4.395   5.747  14.572  0.5820  0.5649 -0.1584
14992TIP3    H266392   4.498   5.648  14.622 -0.6774 -1.2023 -0.9756
14993TIP3   OH266393   2.879   1.570   5.688 -0.2755 -0.3284 -0.0059
14993TIP3    H166394   2.965   1.613   5.691 -0.5584  0.2723 -0.3306
14993TIP3    H266395   2.816   1.642   5.691 -0.7732 -0.7703  0.3028
14994TIP3   OH266396   5.491   6.153   3.136  0.2350 -0.0667  0.4465
14994TIP3    H166397   5.577   6.187   3.162  0.0144  0.2711  0.7459
14994TIP3    H266398   5.435   6.170   3.212  0.4976 -2.6280  1.3075
14995TIP3   OH266399   4.285   4.724  11.818 -0.2611 -0.6310  0.2009
14995TIP3    H166400   4.207   4.685  11.779 -3.1354  1.7239  3.1214
14995TIP3    H266401   4.282   4.697  11.910  1.4419  0.9264  0.7628
14996TIP3   OH266402   1.964   3.489   5.154  0.7588 -0.1842 -0.0039
14996TIP3    H166403   2.006   3.556   5.209  2.9224 -0.9749 -0.5719
14996TIP3    H266404   1.967   3.409   5.207  2.0270 -0.7442 -0.8748
14997TIP3   OH266405   4.383   2.182  13.721  0.3129  0.0527  0.1906
14997TIP3    H166406   4.377   2.275  13.741 -1.4246 -0.1949  0.9747
14997TIP3    H266407   4.366   2.137  13.804 -1.0085 -0.9568 -0.5781
14998TIP3   OH266408   2.188   5.244  11.722 -0.1152  0.0440 -0.0863
14998TIP3    H166409   2.275   5.246  11.684 -0.2204  1.7383 -0.3305
14998TIP3    H266410   2.138   5.184  11.666  1.1541 -1.8619  0.7477
14999TIP3   OH266411   1.346   1.039  14.923  0.3233 -0.4083  0.1825
14999TIP3    H166412   1.335   1.035  14.828  0.9953  0.5634  0.0528
14999TIP3    H266413   1.414   0.975  14.942 -0.4188 -1.2433  0.1370
15000TIP3   OH266414   1.701   0.987  13.194 -0.3312 -0.1204  0.1944
15000TIP3    H166415   1.638   1.051  13.159  0.3470  0.9423  0.8756
15000TIP3    H266416   1.731   0.939  13.116 -0.2679  0.9140 -0.4410
15001TIP3   OH266417   3.694   3.998  11.251  0.1215  0.0980 -0.4683
15001TIP3    H166418   3.766   3.938  11.266 -1.7684 -1.9580  1.0506
15001TIP3    H266419   3.697   4.058  11.326  0.6298  0.4391 -0.7579
15002TIP3   OH266420   4.912   0.469  17.112  0.1109  0.4585 -0.8385
15002TIP3    H166421   4.829   0.480  17.066 -1.6498  1.3382  2.2978
15002TIP3    H266422   4.905   0.526  17.188  3.4421  0.1712 -0.1845
15003TIP3   OH266423   4.738   1.111  15.243 -0.1127 -0.0033  0.8522
15003TIP3    H166424   4.787   1.096  15.162  1.1614  0.3440  1.5487
15003TIP3    H266425   4.668   1.172  15.217  0.5555  0.4683  0.1179
15004TIP3   OH266426   0.105   2.453   1.202  0.0504  0.0886  0.3262
15004TIP3    H166427   0.163   2.454   1.278  1.4408  0.4902 -0.7003
15004TIP3    H266428   0.060   2.369   1.208 -1.1038  0.7742  2.4568
15005TIP3   OH266429   4.138   3.015  14.557  0.1210  0.0806 -0.0306
15005TIP3    H166430   4.144   3.005  14.462 -0.9533  1.4373 -0.2764
15005TIP3    H266431   4.086   3.095  14.569  0.8445  0.3269  1.6967
15006TIP3   OH266432   6.510   4.841  13.227  0.0845  0.0553 -0.2081
15006TIP3    H166433   6.556   4.864  13.146  0.5771 -0.4165 -0.0641
15006TIP3    H266434   6.569   4.868  13.297  1.0310 -2.2537 -0.0333
15007TIP3   OH266435   3.347   5.493   5.404 -0.1430  0.3539  0.1777
15007TIP3    H166436   3.285   5.523   5.471  2.4962  0.0445  3.0056
15007TIP3    H266437   3.335   5.398   5.402  0.9953  0.1445  1.6608
15008TIP3   OH266438   2.409   1.135   4.250 -0.0473 -0.2308 -0.2243
15008TIP3    H166439   2.502   1.142   4.272 -0.3807  0.4335  1.1225
15008TIP3    H266440   2.374   1.074   4.315 -0.4130 -1.0975 -1.2198
15009TIP3   OH266441   3.552   1.626  11.164  0.0821  0.1530 -0.0875
15009TIP3    H166442   3.595   1.629  11.079 -0.2108  0.3221 -0.2326
15009TIP3    H266443   3.464   1.594  11.146  0.1575 -0.2337  0.2127
15010TIP3   OH266444   5.212   5.851  11.268  0.4265 -0.1253 -0.8377
15010TIP3    H166445   5.267   5.917  11.226  3.1057 -0.7521  1.4081
15010TIP3    H266446   5.272   5.780  11.291 -1.5413 -1.4328  0.6438
15011TIP3   OH266447   0.228   3.878   5.275 -0.1225 -0.5613  0.0402
15011TIP3    H166448   0.252   3.829   5.197  4.6296 -0.1003  0.8776
15011TIP3    H266449   0.231   3.813   5.346  1.1314 -0.0477  0.4858
15012TIP3   OH266450   6.273   5.953   5.601 -0.1021 -0.7292  0.0859
15012TIP3    H166451   6.320   5.963   5.684 -0.8846  2.9709  0.2480
15012TIP3    H266452   6.324   6.004   5.538 -0.9755 -1.2433 -1.0898
15013TIP3   OH266453   6.347   4.640  15.649 -0.2797  0.0606  0.9182
15013TIP3    H166454   6.294   4.662  15.725  0.0610  0.0554  1.1559
15013TIP3    H266455   6.436   4.666  15.673 -0.1973  0.2075  0.4647
15014TIP3   OH266456   2.435   2.297   5.481 -0.2450  0.5382  0.0321
15014TIP3    H166457   2.354   2.318   5.435  0.3119  2.0121 -0.3041
15014TIP3    H266458   2.480   2.380   5.490  1.1626 -0.2361  0.3775
15015TIP3   OH266459   4.939   1.917   1.822 -0.3701 -0.4512  0.2029
15015TIP3    H166460   4.871   1.984   1.816 -2.2427 -2.3717 -2.8544
15015TIP3    H266461   4.984   1.920   1.737  0.1139 -2.3976  0.3301
15016TIP3   OH266462   3.095   1.262  16.468  0.2035  0.4229  0.4136
15016TIP3    H166463   3.095   1.322  16.543  0.1856  1.0764 -0.1031
15016TIP3    H266464   3.073   1.317  16.393  2.3266  0.2309 -0.4196
15017TIP3   OH266465   6.429   0.630   4.855 -0.2766  0.6800  0.8123
15017TIP3    H166466   6.365   0.584   4.909 -0.4119  0.1444  0.2066
15017TIP3    H266467   6.514   0.601   4.888 -0.3228 -1.6456 -0.8518
15018TIP3   OH266468   1.502   1.375  16.504 -0.4598  0.6293 -0.1570
15018TIP3    H166469   1.456   1.457  16.482  1.0021  1.5078 -0.1089
15018TIP3    H266470   1.561   1.360  16.430 -1.6416 -1.1490 -0.7971
15019TIP3   OH266471   2.125   1.429  15.436 -0.1915 -0.2775 -0.3813
15019TIP3    H166472   2.063   1.366  15.472  0.5502 -0.3170  0.8953
15019TIP3    H266473   2.196   1.431  15.500  0.6381  0.5267 -1.3013
15020TIP3   OH266474   5.134   1.262   0.876  0.3580 -0.3951 -0.0359
15020TIP3    H166475   5.203   1.229   0.933  0.4918  0.6160  0.3906
15020TIP3    H266476   5.057   1.269   0.932  0.1891 -0.4748 -0.2525
15021TIP3   OH266477   1.511   3.535   5.227 -0.0666 -0.0037 -0.3855
15021TIP3    H166478   1.457   3.581   5.162 -1.8459 -0.1595  0.9036
15021TIP3    H266479   1.587   3.591   5.239 -0.7604  1.1168 -1.0108
15022TIP3   OH266480   4.609   3.071   0.962 -0.0592 -0.0322  0.3990
15022TIP3    H166481   4.552   3.094   1.036  0.0154 -0.6504  0.6547
15022TIP3    H266482   4.578   2.985   0.935 -1.0930  0.8242 -1.2824
15023TIP3   OH266483   6.294   1.563  14.498  0.0047 -0.3467  0.1122
15023TIP3    H166484   6.260   1.581  14.586 -1.2715  1.1050 -0.6090
15023TIP3    H266485   6.216   1.568  14.442  0.9204 -0.3646 -1.1980
15024TIP3   OH266486   4.581   3.530   1.704 -0.4799 -0.0492  0.3562
15024TIP3    H166487   4.657   3.586   1.719 -0.2073 -0.8024  1.9994
15024TIP3    H266488   4.506   3.581   1.735 -0.4844  0.1581  0.0117
15025TIP3   OH266489   3.698   6.414  17.169  0.8656  0.5306 -0.1958
15025TIP3    H166490   3.617   6.446  17.206 -0.1907 -1.9903 -0.1025
15025TIP3    H266491   3.688   6.318  17.167  4.0204  0.0524  0.2940
15026TIP3   OH266492   6.388   2.655   4.109 -0.8326 -0.1042  0.2348
15026TIP3    H166493   6.296   2.631   4.095 -0.7244  0.3233 -1.4111
15026TIP3    H266494   6.394   2.746   4.080  0.4005 -0.5724 -1.1426
15027TIP3   OH266495   6.192   3.401   2.404  0.2075  0.0029 -0.3659
15027TIP3    H166496   6.230   3.343   2.338  0.7186  0.4028 -0.4324
15027TIP3    H266497   6.130   3.455   2.356 -0.8368 -0.9892 -0.1686
15028TIP3   OH266498   2.358   0.555  12.310 -0.1973  0.6911 -0.4926
15028TIP3    H166499   2.325   0.595  12.229 -1.2811 -0.1120 -0.4639
15028TIP3    H266500   2.311   0.472  12.317 -0.0296  0.6871  0.9013
15029TIP3   OH266501   1.161   3.460  10.184 -0.0579 -0.1569  0.5507
15029TIP3    H166502   1.079   3.427  10.148  0.9557 -1.3593 -0.7673
15029TIP3    H266503   1.134   3.520  10.253 -2.0450 -0.0317 -0.2617
15030TIP3   OH266504   1.166   5.108   0.039  0.5132 -0.5064 -0.7212
15030TIP3    H166505   1.151   5.064  -0.045  0.2278 -0.0321 -0.9234
15030TIP3    H266506   1.165   5.037   0.103 -0.6434 -0.7361 -0.9640
15031TIP3   OH266507   2.795   1.828   3.262 -0.0167  0.3686  0.2684
15031TIP3    H166508   2.857   1.892   3.297 -0.8147  1.1311  0.3113
15031TIP3    H266509   2.772   1.862   3.176 -1.2104  0.6773  0.6965
15032TIP3   OH266510   4.626   4.346   5.533  0.3050 -0.1735 -0.0204
15032TIP3    H166511   4.632   4.398   5.453  0.4435  1.4521  0.9948
15032TIP3    H266512   4.644   4.257   5.505 -1.1454  0.0913 -2.0542
15033TIP3   OH266513   0.530   5.823  16.151 -0.4295  0.0061 -0.2502
15033TIP3    H166514   0.448   5.780  16.173 -1.1260  0.5318 -1.6819
15033TIP3    H266515   0.510   5.875  16.073  0.6554  2.0061  0.7218
15034TIP3   OH266516   4.015   5.502  17.289  0.2608 -0.7454 -0.3098
15034TIP3    H166517   4.019   5.409  17.263 -0.6017 -0.8507 -0.1128
15034TIP3    H266518   3.980   5.500  17.378 -0.9095 -0.1830 -0.7423
15035TIP3   OH266519   6.101   3.183  15.378  0.3834  0.0159  0.1969
15035TIP3    H166520   6.047   3.115  15.419 -1.2654  1.6041  0.8026
15035TIP3    H266521   6.156   3.216  15.448 -0.9141  1.2630  0.6800
15036TIP3   OH266522   5.115   5.010  15.387  0.4472 -0.6019  0.2544
15036TIP3    H166523   5.181   5.026  15.319 -0.4674  0.0431 -0.5135
15036TIP3    H266524   5.085   4.921  15.370  1.6376 -1.1827  1.0836
15037TIP3   OH266525   5.180   4.818  14.775  0.0744  0.2854 -0.0685
15037TIP3    H166526   5.260   4.791  14.820 -0.1783 -0.1772  0.1040
15037TIP3    H266527   5.145   4.738  14.737 -1.3813  0.1123  1.5503
15038TIP3   OH266528   3.170   1.428  12.395 -0.3878 -0.3115  0.0559
15038TIP3    H166529   3.250   1.412  12.345 -0.9704 -0.6700 -0.7808
15038TIP3    H266530   3.138   1.341  12.418 -0.5257 -0.1675  0.4185
15039TIP3   OH266531   6.719   3.736   3.488 -0.6227 -0.5861 -0.2465
15039TIP3    H166532   6.778   3.729   3.413 -3.1643 -0.8492 -2.3392
15039TIP3    H266533   6.711   3.646   3.521 -2.4788 -1.1942 -2.1759
15040TIP3   OH266534   1.348   1.677   0.031 -0.9462 -0.5793  0.5930
15040TIP3    H166535   1.347   1.768   0.058 -0.9054 -0.4442  0.1403
15040TIP3    H266536   1.441   1.657   0.019 -0.8421 -1.1188  2.1582
15041TIP3   OH266537   0.533   2.058  16.987  0.1978  0.2666 -0.1020
15041TIP3    H166538   0.448   2.046  16.943  0.2728 -2.4122  0.2645
15041TIP3    H266539   0.517   2.029  17.077  1.5876 -0.7922 -0.1663
15042TIP3   OH266540   2.522   6.561   5.243  0.1604 -0.0250 -0.0784
15042TIP3    H166541   2.462   6.519   5.305  0.0298  1.3251  0.7447
15042TIP3    H266542   2.596   6.501   5.236 -0.1804 -0.5542  0.7789
15043TIP3   OH266543   5.409   1.565  10.802  0.2022  0.2130 -0.4136
15043TIP3    H166544   5.393   1.639  10.744  0.4330  0.6034  0.0211
15043TIP3    H266545   5.330   1.511  10.794 -0.0707  0.6257 -0.5430
15044TIP3   OH266546   4.201   2.123   0.886  0.2641  0.3618  0.2308
15044TIP3    H166547   4.185   2.210   0.850  3.6714  0.5763 -1.1449
15044TIP3    H266548   4.185   2.064   0.812  1.6227  0.2335  0.0176
15045TIP3   OH266549   1.886   1.713   3.030 -0.9872 -0.1436  0.1257
15045TIP3    H166550   1.796   1.697   3.002 -0.9792  0.0926 -0.0320
15045TIP3    H266551   1.878   1.777   3.100 -0.9612 -0.3179  0.2905
15046TIP3   OH266552   1.589   1.675   6.153 -0.0671 -0.7673 -0.1337
15046TIP3    H166553   1.522   1.658   6.220 -0.5541 -0.2823 -0.4961
15046TIP3    H266554   1.603   1.589   6.112 -2.2054 -0.4815 -1.6594
15047TIP3   OH266555   4.917   4.332   2.006  0.2553  0.0833 -0.4072
15047TIP3    H166556   4.957   4.416   2.029 -0.2490 -0.3248  2.3039
15047TIP3    H266557   4.839   4.356   1.955  0.8797  1.1588 -0.9014
15048TIP3   OH266558   0.682   6.376   5.334  0.2876  0.2013 -0.4364
15048TIP3    H166559   0.644   6.414   5.255 -1.3279 -1.1907 -0.3982
15048TIP3    H266560   0.622   6.402   5.404  1.2969  0.7968  0.2166
15049TIP3   OH266561   1.915   3.555  11.431  0.4297  0.1250 -0.2330
15049TIP3    H166562   1.877   3.489  11.372  2.8355 -0.8678 -0.8093
15049TIP3    H266563   1.973   3.606  11.375  1.7051  0.0788  1.0006
15050TIP3   OH266564   1.132   5.163  15.330 -0.4309 -0.3202  1.2989
15050TIP3    H166565   1.097   5.157  15.241  3.4099 -1.5491 -0.3262
15050TIP3    H266566   1.121   5.256  15.353  0.2973  0.5075 -1.3184
15051TIP3   OH266567   5.013   3.316  16.127 -0.4001  0.0747 -0.0008
15051TIP3    H166568   5.034   3.400  16.087 -0.8292 -0.1745 -0.7667
15051TIP3    H266569   4.938   3.283  16.077 -0.3271 -0.6954  0.3799
15052TIP3   OH266570   5.705   0.128  14.160  0.1192  0.2354  0.0589
15052TIP3    H166571   5.639   0.173  14.213 -1.5541  0.7537 -2.3042
15052TIP3    H266572   5.663   0.047  14.131  0.7712  0.2039 -0.8702
15053TIP3   OH266573   4.752   0.993   3.650 -0.0989 -0.1696  0.1898
15053TIP3    H166574   4.720   1.017   3.563 -0.3313 -0.4441  0.1981
15053TIP3    H266575   4.727   0.901   3.660 -1.9386  0.4200  1.3858
15054TIP3   OH266576   2.789   0.578   3.890 -0.2305 -0.0726  0.1601
15054TIP3    H166577   2.700   0.582   3.856  0.5783  0.4825 -2.0515
15054TIP3    H266578   2.843   0.554   3.815  1.5282 -0.2242  1.3988
15055TIP3   OH266579   5.240   2.719  11.163  0.2897 -0.2146 -0.2206
15055TIP3    H166580   5.302   2.713  11.090 -0.8763  1.1172 -1.3701
15055TIP3    H266581   5.160   2.677  11.130 -0.9823  2.3168 -0.6224
15056TIP3   OH266582   2.809   3.775   3.980 -0.0861  0.0375  0.3675
15056TIP3    H166583   2.849   3.804   3.898  2.2832  0.1832  1.4871
15056TIP3    H266584   2.861   3.818   4.048 -2.7649  0.9619  1.9926
15057TIP3   OH266585   0.537   1.612   4.249  0.0700 -0.3800 -0.1180
15057TIP3    H166586   0.582   1.625   4.333  1.3237 -0.2212 -0.7908
15057TIP3    H266587   0.551   1.519   4.230 -3.2601 -1.3703  1.5101
15058TIP3   OH266588   0.028   2.796  11.026 -0.1405 -0.5024 -0.2674
15058TIP3    H166589   0.090   2.763  10.961  0.7084 -1.8367  1.1516
15058TIP3    H266590   0.072   2.871  11.065  0.2530 -0.9617  0.1829
15059TIP3   OH266591   6.398   1.070   0.786 -0.4648  0.0795 -0.5353
15059TIP3    H166592   6.322   1.122   0.758 -0.2703 -0.4366 -2.1143
15059TIP3    H266593   6.364   0.981   0.796 -0.0207 -0.2478 -1.6969
15060TIP3   OH266594   2.723   2.392  12.711  0.0895  0.3956 -0.0741
15060TIP3    H166595   2.650   2.409  12.652  0.7220 -0.6441 -1.1963
15060TIP3    H266596   2.724   2.467  12.770 -0.4924  1.5217 -1.4398
15061TIP3   OH266597   3.956   2.089   2.298  0.2407  0.2063  0.0568
15061TIP3    H166598   3.991   2.150   2.233  2.3830  1.2815  2.0735
15061TIP3    H266599   3.903   2.144   2.356 -0.0716 -0.3743  0.3286
15062TIP3   OH266600   2.039   0.214  12.041 -0.4719  0.4745  0.0605
15062TIP3    H166601   2.002   0.302  12.032 -1.4234  0.0022 -0.7561
15062TIP3    H266602   2.000   0.181  12.122 -0.9241  0.4234 -0.1744
15063TIP3   OH266603   0.637   2.690   2.142  0.1900  0.3767  0.0202
15063TIP3    H166604   0.585   2.726   2.214 -0.2364 -0.0087 -0.0854
15063TIP3    H266605   0.625   2.752   2.070  1.3735  1.2627  0.5505
15064TIP3   OH266606   3.126   2.864   3.026  0.2761  0.4190 -0.2544
15064TIP3    H166607   3.156   2.877   3.116 -0.7482 -1.5852  0.4298
15064TIP3    H266608   3.174   2.787   2.996 -0.6736  0.0177 -0.7841
15065TIP3   OH266609   1.066   0.999  14.887  0.2601  0.5672 -0.3283
15065TIP3    H166610   1.152   1.011  14.928  0.1186 -0.6872  0.3749
15065TIP3    H266611   1.086   0.979  14.795  1.0047 -3.5245  0.5588
15066TIP3   OH266612   6.498   6.707   2.068 -0.2113  0.1896  0.4656
15066TIP3    H166613   6.484   6.651   1.992  0.4639 -1.2244  1.3416
15066TIP3    H266614   6.411   6.740   2.090 -0.6185 -0.5010 -0.0714
15067TIP3   OH266615   2.497   3.441  12.489  0.1059 -0.6199  0.2440
15067TIP3    H166616   2.558   3.486  12.548 -1.7161  1.6581  0.5454
15067TIP3    H266617   2.451   3.379  12.546 -0.1088 -0.0106  0.7469
15068TIP3   OH266618   4.682   6.058   4.316 -0.2402  0.3531  0.1656
15068TIP3    H166619   4.756   6.109   4.350  0.9685 -1.7727  0.9080
15068TIP3    H266620   4.651   6.109   4.240  1.4327  1.7319  0.3408
15069TIP3   OH266621   5.517   6.016  13.080  0.3722  0.3747  0.4785
15069TIP3    H166622   5.445   6.077  13.093  1.7317  2.1290  0.1781
15069TIP3    H266623   5.490   5.936  13.126 -0.6360  1.8473  2.5910
15070TIP3   OH266624   1.894   1.443  12.837 -0.2544  0.2404 -0.0094
15070TIP3    H166625   1.925   1.485  12.756  0.9572 -1.3268 -0.4179
15070TIP3    H266626   1.945   1.485  12.906 -1.4205  1.7148  0.0210
15071TIP3   OH266627   3.852   2.581  17.247 -1.2969  0.4976 -0.2638
15071TIP3    H166628   3.918   2.619  17.189 -1.2543 -0.2622 -0.7303
15071TIP3    H266629   3.784   2.648  17.253 -0.6998  1.0994 -0.1494
15072TIP3   OH266630   6.664   2.070  15.484 -0.4947  0.0782 -0.1438
15072TIP3    H166631   6.645   2.162  15.506 -1.5006  0.0167 -0.7105
15072TIP3    H266632   6.686   2.072  15.391 -0.5872 -0.2677 -0.1725
15073TIP3   OH266633   1.516   5.454   0.890 -0.1158  0.4014  0.4111
15073TIP3    H166634   1.513   5.441   0.985 -0.6254 -1.6600  0.1418
15073TIP3    H266635   1.433   5.497   0.870 -0.9043 -0.9340  0.6835
15074TIP3   OH266636   1.779   2.767  16.052  0.1554  0.1369 -0.0381
15074TIP3    H166637   1.780   2.688  15.998 -1.1722 -1.9981  2.8010
15074TIP3    H266638   1.695   2.809  16.032  1.0069  1.1354 -1.7971
15075TIP3   OH266639   5.761   1.564  16.433 -0.6456  0.0124 -0.4393
15075TIP3    H166640   5.727   1.523  16.513  0.0624  2.2292  1.1026
15075TIP3    H266641   5.707   1.642  16.421 -0.5210 -0.1001 -1.9743
15076TIP3   OH266642   0.130   0.088  11.976 -0.3540 -0.0926  0.6603
15076TIP3    H166643   0.084   0.157  11.929 -0.3443 -0.6783 -0.2305
15076TIP3    H266644   0.091   0.087  12.063 -0.1813  1.1979  0.7710
15077TIP3   OH266645   0.077   5.492   6.252 -0.0160 -0.1282  0.0159
15077TIP3    H166646   0.024   5.457   6.323  0.8098 -1.1342  0.1624
15077TIP3    H266647   0.023   5.481   6.174 -0.5314  0.0707  0.3411
15078TIP3   OH266648   6.323   3.578  15.206 -0.0750 -0.0974  0.1140
15078TIP3    H166649   6.363   3.497  15.173 -0.4092  0.1807 -1.0223
15078TIP3    H266650   6.274   3.613  15.131  1.3022  1.9639  0.0811
15079TIP3   OH266651   6.690   6.769  11.158  0.3695 -0.0920  0.3442
15079TIP3    H166652   6.758   6.744  11.095  2.3081  0.7180  1.9895
15079TIP3    H266653   6.724   6.849  11.198 -2.3978  1.3226  0.0709
15080TIP3   OH266654   1.370   4.130   6.218  0.1849  0.2465  0.5623
15080TIP3    H166655   1.400   4.076   6.291  1.0924  0.0625  0.0751
15080TIP3    H266656   1.449   4.176   6.189 -0.3057  0.8221  0.1306
15081TIP3   OH266657   3.424   5.418  12.987 -0.3937 -0.4249 -0.1260
15081TIP3    H166658   3.427   5.468  13.069 -1.0827  0.6134 -0.7107
15081TIP3    H266659   3.412   5.485  12.919  0.6062 -1.2297 -1.1241
15082TIP3   OH266660   6.246   4.753   1.126 -0.0771  0.4770 -0.0273
15082TIP3    H166661   6.293   4.703   1.193 -1.2497 -1.5489 -0.6203
15082TIP3    H266662   6.307   4.821   1.099  1.4846 -0.4171  1.0812
15083TIP3   OH266663   6.313   3.642  16.985  0.8154 -0.2770 -0.3404
15083TIP3    H166664   6.226   3.601  16.979 -0.4702  2.2254 -0.3469
15083TIP3    H266665   6.335   3.637  17.078 -1.1795  2.2948  0.4117
15084TIP3   OH266666   3.154   2.848   2.125  0.1508 -0.3120  0.0592
15084TIP3    H166667   3.098   2.867   2.200  0.4700 -0.9254  0.4553
15084TIP3    H266668   3.111   2.892   2.052 -0.7751 -0.6640  0.3801
15085TIP3   OH266669   2.984   0.518  16.417  0.4378  0.4549  0.4143
15085TIP3    H166670   2.905   0.534  16.365  0.7924  0.8209 -0.0118
15085TIP3    H266671   2.953   0.466  16.491 -0.1456  0.3004  0.0672
15086TIP3   OH266672   5.456   6.387   2.066 -0.1373 -0.4159 -0.1434
15086TIP3    H166673   5.541   6.348   2.084  0.4822  0.0527 -1.9443
15086TIP3    H266674   5.434   6.433   2.147  0.8403 -1.3629  0.6915
15087TIP3   OH266675   4.645   2.603  16.034  0.8324  0.2769  0.9309
15087TIP3    H166676   4.573   2.667  16.035  1.4594  1.0229  2.6205
15087TIP3    H266677   4.618   2.537  16.098  0.4118 -0.9412 -0.4564
15088TIP3   OH266678   3.345   5.292  12.310  0.1231  0.2145  0.0290
15088TIP3    H166679   3.370   5.382  12.289  1.3040 -0.2649 -0.7410
15088TIP3    H266680   3.363   5.282  12.403 -0.1417  0.8096  0.1440
15089TIP3   OH266681   5.381   5.570  14.937 -0.4062  0.6092 -0.1157
15089TIP3    H166682   5.384   5.645  14.878  0.1230 -0.0461 -0.9382
15089TIP3    H266683   5.288   5.558  14.956 -0.6789  0.2537 -1.5764
15090TIP3   OH266684   5.928   6.154   4.215 -0.5807  0.0499 -0.2278
15090TIP3    H166685   5.858   6.193   4.163 -0.9211 -1.5366 -1.0261
15090TIP3    H266686   5.883   6.096   4.276 -0.2217  2.1506  2.1782
15091TIP3   OH266687   5.863   2.112  15.553 -0.0079 -0.2376 -1.0664
15091TIP3    H166688   5.904   2.050  15.493 -0.7481  0.5358 -2.4182
15091TIP3    H266689   5.899   2.089  15.639  0.9273 -1.5048 -1.7553
15092TIP3   OH266690   5.993   1.857  17.148  0.0909  0.3683 -0.0161
15092TIP3    H166691   5.972   1.809  17.228 -0.4718  1.8805  0.7813
15092TIP3    H266692   5.942   1.813  17.080 -2.3348  1.2549  1.1220
15093TIP3   OH266693   0.645   6.511   5.086  0.1382  0.5983 -0.3317
15093TIP3    H166694   0.613   6.464   5.009 -0.3917 -0.2136  0.3529
15093TIP3    H266695   0.723   6.557   5.057  1.2914 -1.5359 -0.8223
15094TIP3   OH266696   5.206   2.729  15.898 -0.1005 -0.4835 -0.7576
15094TIP3    H166697   5.198   2.719  15.803  0.7252 -1.1627 -0.7577
15094TIP3    H266698   5.124   2.693  15.932 -1.4928  1.9169 -1.3078
15095TIP3   OH266699   5.059   3.990   0.818  0.0305  0.9512  0.1075
15095TIP3    H166700   5.129   4.035   0.865  0.2852 -0.2906  0.9683
15095TIP3    H266701   5.017   3.935   0.885 -1.0151  0.7928 -0.6482
15096TIP3   OH266702   4.847   5.415   4.713  0.0061  0.4398  0.6182
15096TIP3    H166703   4.839   5.327   4.677 -1.6920  1.2492 -1.1677
15096TIP3    H266704   4.913   5.457   4.658  0.2471  0.5316  0.9723
15097TIP3   OH266705   1.450   2.352   0.718 -0.2175 -0.6665 -0.1089
15097TIP3    H166706   1.386   2.291   0.754  0.2070 -0.8744  0.2944
15097TIP3    H266707   1.400   2.402   0.653 -0.3700 -1.9856 -1.0415
15098TIP3   OH266708   5.374   0.037  10.952 -0.0676  0.2871 -0.2078
15098TIP3    H166709   5.405   0.127  10.941  0.8997 -0.0388 -0.2360
15098TIP3    H266710   5.324   0.019  10.873 -2.3093  1.5845  0.8347
15099TIP3   OH266711   4.937   5.464   5.636 -0.1652 -0.0282 -0.3659
15099TIP3    H166712   4.984   5.385   5.662 -1.3675 -0.3159  1.0548
15099TIP3    H266713   4.987   5.536   5.676 -0.4964 -0.2792  0.5254
15100TIP3   OH266714   4.110   6.581   4.807  0.2494  0.0105 -0.0592
15100TIP3    H166715   4.107   6.577   4.903  0.0371 -0.0293 -0.0667
15100TIP3    H266716   4.179   6.519   4.783  0.7203  0.4616  0.0964
15101TIP3   OH266717   3.712   3.720  12.834  0.1272 -0.7677 -0.4428
15101TIP3    H166718   3.685   3.657  12.767 -0.1533 -1.9456  0.7486
15101TIP3    H266719   3.679   3.685  12.916  1.6675 -0.0855  0.5193
15102TIP3   OH266720   1.552   5.577  16.494 -0.0580 -0.5161  0.0543
15102TIP3    H166721   1.457   5.565  16.503 -0.5039  0.4249 -2.4998
15102TIP3    H266722   1.563   5.671  16.486  1.1854 -0.5748  0.8721
15103TIP3   OH266723   5.414   3.173  10.560  0.0451 -0.1110  0.1493
15103TIP3    H166724   5.359   3.250  10.543 -0.6604 -0.5407  0.4163
15103TIP3    H266725   5.352   3.100  10.563  0.8216 -0.8419 -1.0851
15104TIP3   OH266726   3.696   5.577  13.415  0.3177  0.6677  0.0248
15104TIP3    H166727   3.615   5.588  13.364  0.3759  2.3448  0.2594
15104TIP3    H266728   3.670   5.523  13.489 -0.6166  1.2644  0.1444
15105TIP3   OH266729   1.919   3.233  12.874  0.1118  0.5764 -0.1234
15105TIP3    H166730   1.943   3.318  12.909 -0.1005 -0.0854  1.7335
15105TIP3    H266731   1.996   3.178  12.889 -0.9620 -0.4555  2.0310
15106TIP3   OH266732   6.110   3.996   2.178 -0.3553 -0.0546 -0.3887
15106TIP3    H166733   6.138   4.086   2.195  3.1123 -1.0975  0.0976
15106TIP3    H266734   6.157   3.971   2.099 -1.2805 -1.4861 -0.5250
15107TIP3   OH266735   0.742   1.665   1.193  0.4566 -0.1350  0.4895
15107TIP3    H166736   0.710   1.747   1.230  4.2774  1.9462 -0.2818
15107TIP3    H266737   0.736   1.678   1.098 -2.5100 -2.4985  0.1926
15108TIP3   OH266738   4.036   5.449   5.521  0.2982  0.6263 -0.0972
15108TIP3    H166739   4.073   5.361   5.516  1.8978  1.2093  0.6637
15108TIP3    H266740   3.951   5.437   5.564 -0.1817 -0.6961 -1.3565
15109TIP3   OH266741   6.204   3.441  12.469 -0.1711  0.4318 -0.2447
15109TIP3    H166742   6.124   3.395  12.495  0.9221 -1.4005  0.0569
15109TIP3    H266743   6.173   3.518  12.421 -2.0842 -1.2491 -1.8612
15110TIP3   OH266744   2.498   4.030  14.981  0.1419  0.2044 -0.4071
15110TIP3    H166745   2.437   4.102  14.996  2.1976  1.9096  0.2276
15110TIP3    H266746   2.575   4.071  14.943  1.3274 -1.7029 -0.2222
15111TIP3   OH266747   1.956   5.668   5.768 -0.4831  0.1092  0.3748
15111TIP3    H166748   2.007   5.664   5.849 -0.2380 -1.5456  0.1699
15111TIP3    H266749   1.875   5.712   5.794  0.7596  2.3018  0.8252
15112TIP3   OH266750   4.599   3.450  16.686  0.3133 -0.4054  0.0340
15112TIP3    H166751   4.513   3.426  16.651  0.7704 -0.6801 -0.9329
15112TIP3    H266752   4.651   3.370  16.679  0.4778 -0.4188  1.2038
15113TIP3   OH266753   1.270   4.840   3.110 -0.5866  0.1355  0.0218
15113TIP3    H166754   1.356   4.835   3.069 -1.5353  1.4992 -2.3884
15113TIP3    H266755   1.244   4.749   3.122  1.6487 -0.3283  2.0206
15114TIP3   OH266756   1.384   4.412  15.169  0.2701  0.1413 -0.0310
15114TIP3    H166757   1.349   4.453  15.090  1.4655  0.0087 -0.6531
15114TIP3    H266758   1.466   4.371  15.140  0.9984  0.5387  1.3874
15115TIP3   OH266759   4.900   5.811   0.339 -0.1587 -0.0254  0.0586
15115TIP3    H166760   4.927   5.845   0.254  0.6370 -1.6430 -0.3978
15115TIP3    H266761   4.981   5.779   0.379 -0.6468 -0.0670  1.0636
15116TIP3   OH266762   6.494   1.037  13.611 -0.4179  0.3833  0.1132
15116TIP3    H166763   6.564   1.016  13.673  0.4261  0.0838 -0.9007
15116TIP3    H266764   6.511   1.128  13.584 -0.4906  0.3523 -0.0428
15117TIP3   OH266765   0.320   4.639   5.843 -0.1309  0.1470  0.6074
15117TIP3    H166766   0.306   4.579   5.770  1.9636 -0.3235  0.5112
15117TIP3    H266767   0.249   4.620   5.904 -0.2661 -1.5351 -0.0100
15118TIP3   OH266768   3.150   3.006  13.296 -0.1130 -0.5608 -0.1630
15118TIP3    H166769   3.137   3.018  13.390 -2.2006 -0.4850 -0.4304
15118TIP3    H266770   3.103   2.926  13.275 -0.1129 -0.2953 -1.2368
15119TIP3   OH266771   0.502   0.633   3.534  0.0488 -0.3881  0.0624
15119TIP3    H166772   0.500   0.537   3.532 -0.3581 -0.3787 -1.3349
15119TIP3    H266773   0.413   0.658   3.557 -0.2114 -0.3651 -0.8894
15120TIP3   OH266774   0.991   6.102  16.706 -0.5225 -0.2835 -0.3622
15120TIP3    H166775   0.986   6.177  16.764  0.4298 -1.3761  1.1907
15120TIP3    H266776   0.909   6.105  16.656 -1.9642  0.0185  1.8808
15121TIP3   OH266777   3.416   6.479   5.082  0.1930  0.4561 -0.1612
15121TIP3    H166778   3.463   6.456   5.162 -2.6122 -0.0499  1.4872
15121TIP3    H266779   3.352   6.544   5.111 -0.1776  1.0905 -2.2592
15122TIP3   OH266780   0.045   4.335  14.886  0.2237 -0.1357 -1.5097
15122TIP3    H166781  -0.038   4.301  14.852  0.4342 -2.2842 -0.0384
15122TIP3    H266782   0.108   4.321  14.816 -0.0975 -1.1538 -1.6135
15123TIP3   OH266783   5.172   4.478  15.709 -0.0907  1.0903 -0.6542
15123TIP3    H166784   5.252   4.426  15.703 -1.1016 -0.3746 -2.1166
15123TIP3    H266785   5.183   4.546  15.643  0.1081  1.1260 -0.5861
15124TIP3   OH266786   0.473   0.823   2.220 -0.3209  0.0181 -0.1273
15124TIP3    H166787   0.523   0.758   2.269 -0.8669 -1.5213 -1.5130
15124TIP3    H266788   0.512   0.907   2.245  1.1732 -0.9118  0.8399
15125TIP3   OH266789   3.905   0.038  10.870 -0.2714 -0.4707 -0.0626
15125TIP3    H166790   3.882   0.129  10.887  1.1459 -0.2866  1.0673
15125TIP3    H266791   3.896  -0.006  10.955  0.5502 -1.0328 -0.2519
15126TIP3   OH266792   2.396   5.833  14.695  0.4750  0.6459 -0.2427
15126TIP3    H166793   2.386   5.918  14.738  3.4357  0.0493  1.9967
15126TIP3    H266794   2.481   5.838  14.653 -0.1751 -0.5843 -1.7779
15127TIP3   OH266795   3.290   5.362  15.747 -0.4288 -0.7984 -0.2481
15127TIP3    H166796   3.266   5.270  15.753 -0.7318 -0.6929  0.2532
15127TIP3    H266797   3.216   5.409  15.786  0.6806 -0.4817  1.5881
15128TIP3   OH266798   2.223   4.112   3.787 -0.2952 -0.6070  0.0209
15128TIP3    H166799   2.194   4.027   3.756  0.4235 -0.8016 -0.1418
15128TIP3    H266800   2.236   4.163   3.707 -1.9531  0.0891  0.1552
15129TIP3   OH266801   1.220   3.485  16.380 -0.2918 -0.0351 -0.5156
15129TIP3    H166802   1.162   3.457  16.452  0.6125  0.1538  0.3057
15129TIP3    H266803   1.305   3.445  16.401  1.2892  3.6915  1.1071
15130TIP3   OH266804   2.166   2.216   5.434 -0.0527  0.2612 -0.2454
15130TIP3    H166805   2.155   2.212   5.529 -0.1039 -0.5522 -0.2771
15130TIP3    H266806   2.222   2.141   5.413  2.2621  1.9407 -0.5503
15131TIP3   OH266807   1.484   1.705   5.133 -0.5503 -0.0361  0.6552
15131TIP3    H166808   1.436   1.658   5.202  0.3932  0.4174  1.6493
15131TIP3    H266809   1.573   1.712   5.166  0.8096 -2.5747 -1.9584
15132TIP3   OH266810   6.160   6.302   1.268  0.1422 -0.9200 -0.4400
15132TIP3    H166811   6.237   6.263   1.307  1.4935  0.4897 -1.5598
15132TIP3    H266812   6.137   6.244   1.195 -0.8797 -2.1967  0.8354
15133TIP3   OH266813   0.500   5.386  11.628  0.3030 -0.3858 -0.9582
15133TIP3    H166814   0.577   5.337  11.602  1.7490  1.1945  0.1438
15133TIP3    H266815   0.525   5.478  11.617 -1.6696  0.1769 -1.2047
15134TIP3   OH266816   5.609   5.850   4.877  0.1897  0.2364 -0.2423
15134TIP3    H166817   5.605   5.933   4.925 -0.3445  0.2119 -0.2300
15134TIP3    H266818   5.555   5.865   4.799 -0.8846 -0.4586  0.3387
15135TIP3   OH266819   0.295   1.494   5.687  0.2468 -0.2627 -0.3043
15135TIP3    H166820   0.367   1.513   5.747  0.6407  0.5346 -1.0254
15135TIP3    H266821   0.257   1.579   5.667 -3.8883 -0.7335  3.6012
15136TIP3   OH266822   6.712   2.251  10.882  0.3591 -0.0950  0.2534
15136TIP3    H166823   6.796   2.297  10.887  0.0358  0.4208  1.0440
15136TIP3    H266824   6.731   2.162  10.912  1.3047 -1.0034 -2.6338
15137TIP3   OH266825   3.271   5.468  11.457  0.4725 -0.1439 -0.0288
15137TIP3    H166826   3.239   5.543  11.506  1.4536 -0.3172  0.9305
15137TIP3    H266827   3.293   5.502  11.371  2.5633  1.1216  0.9156
15138TIP3   OH266828   6.395   1.725   5.609 -0.2660 -0.5458 -0.9810
15138TIP3    H166829   6.484   1.719   5.575 -0.5293 -2.0079 -1.4974
15138TIP3    H266830   6.364   1.811   5.580  2.1857  1.7753  2.4616
15139TIP3   OH266831   2.921   5.251   5.020 -0.4047  0.0985 -0.5923
15139TIP3    H166832   2.931   5.187   4.950  1.7606 -1.1029  0.6983
15139TIP3    H266833   2.874   5.203   5.089  0.5375  0.1189  0.0824
15140TIP3   OH266834   2.917   0.147  13.668 -0.4637  0.4398 -0.3949
15140TIP3    H166835   2.964   0.225  13.698 -0.9316  0.0099  1.5566
15140TIP3    H266836   2.826   0.162  13.695 -0.4844 -0.9441  0.4027
15141TIP3   OH266837   3.342   0.286  12.571  0.1507 -0.3477 -0.0529
15141TIP3    H166838   3.348   0.207  12.517  0.3190 -0.0753 -0.4336
15141TIP3    H266839   3.426   0.330  12.559  0.3237 -0.4640  0.7080
15142TIP3   OH266840   6.549   1.501   2.436 -1.0015  1.0720 -1.1253
15142TIP3    H166841   6.619   1.523   2.374 -0.6933  2.7122 -0.2468
15142TIP3    H266842   6.553   1.405   2.442 -0.1527  0.9754 -2.5888
15143TIP3   OH266843   5.642   3.510  16.691 -0.3064  0.2530 -0.0886
15143TIP3    H166844   5.582   3.511  16.766 -0.4622 -1.0862 -0.1831
15143TIP3    H266845   5.608   3.442  16.633 -0.0017  1.0413 -1.2504
15144TIP3   OH266846   2.037   2.995  12.793 -0.2181 -0.3654 -0.8545
15144TIP3    H166847   2.116   2.966  12.748  0.7229 -1.5097  1.3652
15144TIP3    H266848   1.990   3.047  12.728  3.6794  2.8296 -1.5708
15145TIP3   OH266849   6.408   1.097  16.356 -0.1584  0.1634  0.2731
15145TIP3    H166850   6.504   1.091  16.354 -0.2426 -3.1303 -1.6926
15145TIP3    H266851   6.386   1.093  16.450  1.5868  1.5887  0.7934
15146TIP3   OH266852   0.017   1.054   3.090 -0.0357 -0.3642 -0.4345
15146TIP3    H166853  -0.053   1.111   3.123 -1.1316 -1.9790  0.1779
15146TIP3    H266854   0.060   1.105   3.022 -0.6496  1.3611  0.4152
15147TIP3   OH266855   0.776   1.040  13.784  0.1674  0.1753 -0.1073
15147TIP3    H166856   0.828   0.987  13.725  0.3477 -0.0141  0.2176
15147TIP3    H266857   0.840   1.087  13.838  0.0978 -2.3292  2.3689
15148TIP3   OH266858   1.916   6.079   2.101  0.0620  0.1897  0.1713
15148TIP3    H166859   2.011   6.091   2.098  0.2749 -0.5185  2.2129
15148TIP3    H266860   1.904   5.986   2.121 -0.9154  0.7439  2.5086
15149TIP3   OH266861   0.754   6.654   3.891  0.2515  0.3171  0.3043
15149TIP3    H166862   0.720   6.681   3.976 -0.5418  0.1025  0.0590
15149TIP3    H266863   0.760   6.735   3.840  3.0309  0.8685  1.3068
15150TIP3   OH266864   6.044   2.688   5.558  0.4613 -0.1910 -0.8064
15150TIP3    H166865   6.032   2.776   5.522 -0.1961 -0.0237 -0.1882
15150TIP3    H266866   5.964   2.670   5.607  1.0986 -0.6423  0.1020
15151TIP3   OH266867   2.710   4.366  16.134  0.0901 -0.2269  0.5515
15151TIP3    H166868   2.697   4.447  16.183 -1.3662 -0.4991  0.6537
15151TIP3    H266869   2.724   4.394  16.044 -0.1053  0.1539  0.6383
15152TIP3   OH266870   0.088   6.275   4.438 -0.4896 -0.3700  0.3805
15152TIP3    H166871   0.174   6.294   4.477 -0.6925  0.6043  0.3917
15152TIP3    H266872   0.026   6.325   4.491 -0.5674  2.7519 -2.3357
15153TIP3   OH266873   5.309   0.641  16.776  0.3945  0.0617 -0.9661
15153TIP3    H166874   5.384   0.587  16.751  0.6808 -0.0902  0.1553
15153TIP3    H266875   5.233   0.592  16.748  0.6977  0.6718 -3.0368
15154TIP3   OH266876   5.186   6.517   6.547  0.4746 -0.0630  0.1012
15154TIP3    H166877   5.177   6.585   6.480  0.8923  0.8696  0.9673
15154TIP3    H266878   5.271   6.534   6.587  0.0180 -0.2869  1.2119
15155TIP3   OH266879   0.825   4.306   5.129 -0.1550  0.2057 -0.1037
15155TIP3    H166880   0.736   4.332   5.105 -0.6090 -0.1869  1.0531
15155TIP3    H266881   0.853   4.248   5.059 -1.0860 -0.2296 -0.1269
15156TIP3   OH266882   5.568   4.999   3.893 -0.1089  0.4154  0.4122
15156TIP3    H166883   5.587   5.024   3.984  2.4237 -2.3645  0.8200
15156TIP3    H266884   5.644   5.029   3.844 -1.8389  2.6748 -1.1163
15157TIP3   OH266885   5.436   2.845   4.463 -0.2193 -0.0192  0.1137
15157TIP3    H166886   5.396   2.930   4.441 -0.4266 -0.0105  0.5145
15157TIP3    H266887   5.373   2.780   4.429 -0.4200 -0.0066  0.4545
15158TIP3   OH266888   3.742   3.196   6.349  0.0382 -0.4139 -0.1909
15158TIP3    H166889   3.790   3.232   6.274  0.5186 -1.8748 -0.6249
15158TIP3    H266890   3.671   3.258   6.364  0.8316  0.7006 -0.8743
15159TIP3   OH266891   3.036   3.078   3.334 -0.1483 -0.3721  0.1217
15159TIP3    H166892   2.984   3.061   3.256 -0.9372  2.0146  0.0522
15159TIP3    H266893   3.124   3.049   3.311 -0.5863 -0.6851 -1.2608
15160TIP3   OH266894   6.080   2.446  14.616  0.0783 -0.5969  0.3037
15160TIP3    H166895   6.027   2.494  14.680 -0.2280  1.5632 -1.4731
15160TIP3    H266896   6.170   2.466  14.640 -0.0500  0.9039 -0.4249
15161TIP3   OH266897   3.589   1.650  11.816  0.4377  0.0027  0.0915
15161TIP3    H166898   3.634   1.707  11.878 -3.4288  2.8468  0.6641
15161TIP3    H266899   3.564   1.573  11.867  0.3028  0.7207  1.1394
15162TIP3   OH266900   0.082   6.591   4.411  0.2217 -0.3980  0.1595
15162TIP3    H166901   0.038   6.674   4.427 -0.9637 -0.9634 -0.0530
15162TIP3    H266902   0.130   6.574   4.492  2.6662  1.7436 -0.7237
15163TIP3   OH266903   6.202   6.270   3.740 -0.0372 -0.0054 -0.1473
15163TIP3    H166904   6.290   6.252   3.706  0.1356 -0.9144  0.7255
15163TIP3    H266905   6.216   6.296   3.831 -0.7263 -1.4071  0.3987
15164TIP3   OH266906   3.897   5.530  15.179 -0.6161  0.2485 -0.5095
15164TIP3    H166907   3.815   5.513  15.226  0.0934  0.8439  1.0143
15164TIP3    H266908   3.897   5.468  15.106 -1.5838 -1.0151  0.5340
15165TIP3   OH266909   3.305   0.186   6.097 -0.3278  0.3524  0.2798
15165TIP3    H166910   3.227   0.216   6.142  0.0330  1.3859  0.2541
15165TIP3    H266911   3.353   0.135   6.162 -0.7648  0.1692  0.4575
15166TIP3   OH266912   3.795   2.742  12.643 -0.5728  0.7586  0.4476
15166TIP3    H166913   3.818   2.665  12.695 -2.3580  1.4198  2.3767
15166TIP3    H266914   3.875   2.795  12.641  0.3594 -0.6311  0.0014
15167TIP3   OH266915   3.994   2.875   2.523 -0.0707  0.3759 -0.4299
15167TIP3    H166916   4.035   2.899   2.606  0.0370  1.9179 -0.9084
15167TIP3    H266917   3.982   2.780   2.529  0.9716  0.3016  0.8726
15168TIP3   OH266918   1.188   1.767   4.443  0.0369  0.4950  0.0057
15168TIP3    H166919   1.205   1.700   4.377 -1.0226  0.6940 -0.4853
15168TIP3    H266920   1.249   1.746   4.514 -1.1090 -1.7565  0.4201
15169TIP3   OH266921   1.876   4.224  13.921  0.1992  0.0445 -0.4528
15169TIP3    H166922   1.958   4.242  13.968 -0.3188  1.3374 -0.0045
15169TIP3    H266923   1.875   4.129  13.910  1.6778 -0.0007 -0.3229
15170TIP3   OH266924   6.047   2.799  14.226 -0.1931 -0.1486 -0.3081
15170TIP3    H166925   6.013   2.729  14.281 -2.1812  1.6514  0.9157
15170TIP3    H266926   6.121   2.835  14.276  0.7476 -1.2351 -0.8793
15171TIP3   OH266927   2.354   5.461  13.773  0.3360 -0.6392 -0.7671
15171TIP3    H166928   2.431   5.452  13.830  0.8743 -3.3146 -1.7462
15171TIP3    H266929   2.387   5.503  13.694  0.1167  0.8275 -0.1115
15172TIP3   OH266930   5.954   2.971  13.698  0.2733  0.3547 -0.0135
15172TIP3    H166931   6.045   3.002  13.702  0.4396  0.0012 -0.8771
15172TIP3    H266932   5.948   2.905  13.767  1.7301 -2.2764 -2.2238
15173TIP3   OH266933   3.984   5.800   5.112  0.5053  0.0111 -0.0788
15173TIP3    H166934   4.068   5.820   5.152  0.0739 -0.7459  1.2467
15173TIP3    H266935   3.945   5.734   5.169 -1.0913  0.5138 -0.5384
15174TIP3   OH266936   6.632   4.732   4.334 -0.0354  0.0136 -0.2581
15174TIP3    H166937   6.609   4.746   4.242 -0.5128  3.3352  0.2420
15174TIP3    H266938   6.726   4.712   4.333 -0.3731 -1.7608 -1.5128
15175TIP3   OH266939   0.433   1.802   2.708 -0.0661  0.3877 -0.4663
15175TIP3    H166940   0.444   1.879   2.763 -0.1104  0.3420 -0.3941
15175TIP3    H266941   0.519   1.787   2.670  0.2763 -0.3418  0.5856
15176TIP3   OH266942   2.773   5.579  16.512  0.2925 -0.3344 -0.1016
15176TIP3    H166943   2.846   5.641  16.519  0.7738 -1.0320  2.0976
15176TIP3    H266944   2.792   5.528  16.434 -1.1614  3.4157 -3.2613
15177TIP3   OH266945   5.165   4.815   0.377  0.7883  0.2366  0.2880
15177TIP3    H166946   5.126   4.889   0.424 -1.1136 -0.9128  0.6077
15177TIP3    H266947   5.255   4.810   0.410 -0.1482  0.1343  3.0629
15178TIP3   OH266948   3.170   2.463  16.644 -0.0183  0.2999 -0.1938
15178TIP3    H166949   3.141   2.379  16.679  0.7585 -0.4487 -1.2711
15178TIP3    H266950   3.156   2.525  16.716 -0.0812 -0.8462  0.8179
15179TIP3   OH266951   3.652   3.400  11.809 -0.5988 -0.0935  0.3991
15179TIP3    H166952   3.670   3.379  11.901 -1.4556 -2.2076  0.1380
15179TIP3    H266953   3.738   3.423  11.773  0.0723 -1.0559  1.3088
15180TIP3   OH266954   4.092   4.118  14.173  0.1346 -0.0993 -0.2703
15180TIP3    H166955   4.087   4.130  14.268  0.7567 -0.0189 -0.2396
15180TIP3    H266956   4.147   4.041  14.162  0.3742  0.1099 -0.5697
15181TIP3   OH266957   0.437   3.334  14.232  0.0985 -0.5563  0.3497
15181TIP3    H166958   0.475   3.399  14.291  1.4257  0.3041 -1.3448
15181TIP3    H266959   0.342   3.351  14.236  0.3483  0.9441  0.5761
15182TIP3   OH266960   2.778   2.709   5.399  0.2821  0.4630  0.1599
15182TIP3    H166961   2.833   2.667   5.333 -0.0998 -0.5105  0.4380
15182TIP3    H266962   2.824   2.789   5.422  1.4165 -0.1641  0.1322
15183TIP3   OH266963   2.013   6.698  13.455 -0.4876  0.5820 -0.2485
15183TIP3    H166964   1.924   6.732  13.463  0.1968  2.1382  1.4106
15183TIP3    H266965   2.042   6.686  13.545  0.4231 -1.5668 -0.7733
15184TIP3   OH266966   0.511   3.730  12.066  0.0536 -0.3305  0.3295
15184TIP3    H166967   0.431   3.713  12.016 -0.2736  0.2413  0.6418
15184TIP3    H266968   0.567   3.655  12.048 -1.0560 -1.3811  1.1230
15185TIP3   OH266969   3.814   1.543  16.855  0.3534  0.2099 -0.1969
15185TIP3    H166970   3.863   1.625  16.862 -0.8494  0.9259  0.4043
15185TIP3    H266971   3.726   1.570  16.829  0.1020 -0.9644 -0.6408
15186TIP3   OH266972   4.209   5.208   2.034 -0.3448 -0.2380 -0.0059
15186TIP3    H166973   4.167   5.265   2.098  0.6865  0.8817 -0.2764
15186TIP3    H266974   4.176   5.240   1.949  0.6034  0.2990 -0.1859
15187TIP3   OH266975   1.916   4.561   1.418 -0.0902 -0.6522  0.1672
15187TIP3    H166976   1.940   4.647   1.452 -1.4015 -0.5810  0.9703
15187TIP3    H266977   1.968   4.551   1.338  0.7929  0.4658  0.5811
15188TIP3   OH266978   2.196   3.253   1.763 -0.1128  0.0514 -0.2152
15188TIP3    H166979   2.142   3.279   1.837  3.0771 -1.4122  2.9463
15188TIP3    H266980   2.243   3.333   1.738  1.9439 -0.1784  2.4302
15189TIP3   OH266981   6.451   2.575   1.269 -0.1020 -0.2231  0.2454
15189TIP3    H166982   6.427   2.489   1.234  0.9379 -0.9335  1.2160
15189TIP3    H266983   6.370   2.609   1.307 -0.4535 -0.9155  0.1226
15190TIP3   OH266984   4.608   1.031   0.733 -0.1679  0.6235 -0.0829
15190TIP3    H166985   4.585   0.963   0.797  0.8646  0.3933  0.0541
15190TIP3    H266986   4.534   1.031   0.672 -1.0436  0.6457  0.9357
15191TIP3   OH266987   5.018   4.730   2.155 -0.0317  0.6447  0.2192
15191TIP3    H166988   4.979   4.666   2.095 -1.4224  1.2318  0.4659
15191TIP3    H266989   5.112   4.723   2.139 -0.3785  1.5314 -2.8427
15192TIP3   OH266990   0.096   4.747  16.370 -0.3736  0.2724  0.5603
15192TIP3    H166991   0.111   4.741  16.276 -2.6113  0.3865  0.1438
15192TIP3    H266992   0.160   4.811  16.401  0.8375 -0.2656 -0.7533
15193TIP3   OH266993   2.203   2.977  14.095  0.4454  0.3195  0.1533
15193TIP3    H166994   2.185   3.021  14.011  1.5003 -0.6011 -0.5840
15193TIP3    H266995   2.297   2.991  14.109  0.9920 -2.2215 -0.4719
15194TIP3   OH266996   6.194   1.383  12.387  0.2199 -0.5424 -0.3692
15194TIP3    H166997   6.233   1.418  12.467  0.5169 -1.8584  0.0893
15194TIP3    H266998   6.100   1.390  12.402  0.2140  1.6431 -1.0313
15195TIP3   OH266999   2.630   2.504   0.456  0.7037 -0.3139  0.2983
15195TIP3    H167000   2.589   2.433   0.407  1.2715 -0.1821 -0.3866
15195TIP3    H267001   2.713   2.468   0.487  0.4628 -0.3144  0.9586
15196TIP3   OH267002   5.486   2.123   0.553 -0.3625  0.1150 -0.0638
15196TIP3    H167003   5.431   2.117   0.475 -1.9194  0.0077  1.0171
15196TIP3    H267004   5.510   2.215   0.558 -0.2968  0.1353 -0.6112
15197TIP3   OH267005   1.454   3.112  16.477 -0.5242  0.1039 -0.5640
15197TIP3    H167006   1.446   3.048  16.406  0.1569 -1.2042  0.4931
15197TIP3    H267007   1.424   3.065  16.555  1.0746  0.6828  0.4439
15198TIP3   OH267008   4.667   5.562   0.522  0.5196 -0.2622 -0.1012
15198TIP3    H167009   4.580   5.602   0.523  1.6134  2.2940  0.4832
15198TIP3    H267010   4.668   5.508   0.444 -0.7543  1.7535 -1.5973
15199TIP3   OH267011   4.507   4.882   4.561 -0.3755 -0.0919 -0.5074
15199TIP3    H167012   4.455   4.813   4.518  1.1810 -2.2386  0.8164
15199TIP3    H267013   4.573   4.905   4.496 -1.3695  0.7754 -1.2468
15200TIP3   OH267014   6.339   6.431   2.059  0.1573  0.7591  0.2098
15200TIP3    H167015   6.251   6.468   2.060  0.4867  1.5546 -0.1615
15200TIP3    H267016   6.371   6.443   2.148 -0.1809  0.2862  0.3981
15201TIP3   OH267017   2.137   5.995  11.137  0.3640 -0.2306 -0.4885
15201TIP3    H167018   2.068   5.931  11.154 -0.9044  1.2961  0.3192
15201TIP3    H267019   2.185   6.001  11.219  0.7143 -0.4240 -0.6793
15202TIP3   OH267020   3.654   2.218  11.380  0.1886  0.1089  0.5753
15202TIP3    H167021   3.749   2.216  11.395  0.6391  1.9678 -1.5510
15202TIP3    H267022   3.623   2.134  11.414  2.6503 -0.7203  0.9722
15203TIP3   OH267023   2.113   0.843  15.339 -0.0252  0.2901 -0.2429
15203TIP3    H167024   2.158   0.817  15.258 -0.0144  0.2061 -0.2098
15203TIP3    H267025   2.175   0.899  15.385  1.0440 -1.7975  0.9860
15204TIP3   OH267026   3.264   5.499  16.863  0.7455 -0.3727 -0.1804
15204TIP3    H167027   3.237   5.540  16.781 -2.5496  1.0308  1.4315
15204TIP3    H267028   3.211   5.420  16.870  1.7713 -1.0635  0.1495
15205TIP3   OH267029   4.282   2.678   5.071  0.8970  0.3231  0.2997
15205TIP3    H167030   4.308   2.749   5.012 -1.3787  0.6067 -0.4552
15205TIP3    H267031   4.216   2.717   5.128  1.6911 -0.4637  1.8038
15206TIP3   OH267032   4.407   6.112  14.844 -0.8169 -0.7988 -0.1910
15206TIP3    H167033   4.468   6.059  14.794 -1.4583 -0.4792 -1.3333
15206TIP3    H267034   4.386   6.058  14.921  0.2291 -1.2562 -0.2063
15207TIP3   OH267035   4.862   5.994  16.349 -0.3644 -0.2972 -0.0032
15207TIP3    H167036   4.880   5.900  16.356  0.7761 -0.1559 -0.7560
15207TIP3    H267037   4.772   5.999  16.319 -1.1718 -1.0964  2.1461
15208TIP3   OH267038   2.834   2.599  16.666 -0.7004  0.0154 -0.0285
15208TIP3    H167039   2.794   2.618  16.581 -2.4531  1.6742  1.1022
15208TIP3    H267040   2.885   2.677  16.686  1.1102 -1.0380 -0.2442
15209TIP3   OH267041   4.552   4.011   3.495  0.1610  0.0194  0.1683
15209TIP3    H167042   4.542   4.046   3.584  0.8056 -1.8120  1.0055
15209TIP3    H267043   4.469   3.967   3.477 -0.2638  1.0543 -0.4722
15210TIP3   OH267044   2.346   2.472  13.426  0.1570  0.2051  0.0726
15210TIP3    H167045   2.398   2.444  13.351 -0.1861  1.2784 -0.5958
15210TIP3    H267046   2.257   2.442  13.406  0.3975 -1.2120  0.9903
15211TIP3   OH267047   0.249   5.367  14.346 -0.0234 -0.4400  0.1257
15211TIP3    H167048   0.154   5.375  14.333  0.1857 -0.8253 -1.9106
15211TIP3    H267049   0.287   5.416  14.273  1.3479 -0.4366  0.8250
15212TIP3   OH267050   4.591   0.483  12.925 -0.2112  0.0443 -0.0818
15212TIP3    H167051   4.621   0.573  12.915  0.9221 -0.1179  1.4679
15212TIP3    H267052   4.671   0.433  12.940 -0.9918 -0.8840  1.1768
15213TIP3   OH267053   5.393   0.351  13.590 -0.6471 -0.7909 -0.2833
15213TIP3    H167054   5.474   0.331  13.542 -1.7715 -0.2178 -2.5728
15213TIP3    H267055   5.363   0.266  13.622  1.0933 -0.9521  1.1283
15214TIP3   OH267056   5.934   1.464  16.672 -0.6143 -0.1797 -0.3408
15214TIP3    H167057   5.996   1.444  16.743  0.0141  0.6886 -0.6257
15214TIP3    H267058   5.982   1.524  16.615 -1.4879 -0.0375 -0.9431
15215TIP3   OH267059   3.322   0.365  15.115 -0.4511 -0.2166  0.4972
15215TIP3    H167060   3.317   0.290  15.174 -0.3835 -0.7785 -0.1899
15215TIP3    H267061   3.398   0.346  15.059 -0.9268 -0.0371 -0.2210
15216TIP3   OH267062   1.549   6.555  13.679 -0.3287 -0.1135  0.0670
15216TIP3    H167063   1.467   6.601  13.663 -1.6010 -1.9650  0.8380
15216TIP3    H267064   1.603   6.573  13.602 -1.0972  1.8326 -0.0775
15217TIP3   OH267065   6.446   1.623   0.340 -0.3997 -0.0532 -0.8216
15217TIP3    H167066   6.425   1.711   0.309 -2.7417 -0.5638 -0.8478
15217TIP3    H267067   6.366   1.572   0.325  0.6866 -2.0468 -0.2426
15218TIP3   OH267068   0.263   3.632  13.500  0.5537  0.5048  0.0539
15218TIP3    H167069   0.326   3.681  13.553  2.0152 -1.1513 -0.0483
15218TIP3    H267070   0.297   3.637  13.411 -0.3624  0.9264 -0.2860
15219TIP3   OH267071   6.643   3.743  12.859 -0.2129 -0.5279  0.0596
15219TIP3    H167072   6.696   3.803  12.912 -1.0277  0.5538 -0.3221
15219TIP3    H267073   6.559   3.787  12.848 -0.5651 -1.3846 -0.9141
15220TIP3   OH267074   4.228   1.785   3.348 -0.4414  0.4596 -0.2958
15220TIP3    H167075   4.272   1.776   3.433 -1.0786 -0.3687 -0.0345
15220TIP3    H267076   4.250   1.704   3.302 -3.0897 -0.8335  0.5335
15221TIP3   OH267077   3.679   1.524   5.069  0.0339  0.8834 -0.7766
15221TIP3    H167078   3.730   1.605   5.060  0.4275  0.6317 -0.8586
15221TIP3    H267079   3.699   1.494   5.158 -0.0624  0.8443 -0.7684
15222TIP3   OH267080   3.969   5.714  13.495 -0.2038  0.1909  0.2380
15222TIP3    H167081   3.986   5.670  13.579  0.3807  0.5909  0.3381
15222TIP3    H267082   3.957   5.643  13.432  2.2747 -0.1610  0.0786
15223TIP3   OH267083   2.266   6.678  11.810 -0.0056  1.3309 -0.3016
15223TIP3    H167084   2.298   6.590  11.831 -1.6171  0.6397 -0.5340
15223TIP3    H267085   2.258   6.722  11.895  1.2011  1.4093 -0.2198
15224TIP3   OH267086   0.465   1.265   0.412  0.2112 -0.1006 -0.1319
15224TIP3    H167087   0.502   1.235   0.495 -1.0257  1.8780  1.2056
15224TIP3    H267088   0.384   1.214   0.403  0.4739 -0.4995 -0.2665
15225TIP3   OH267089   2.810   6.510  12.952 -0.1437  0.6022  0.5272
15225TIP3    H167090   2.833   6.438  12.893 -0.6826  0.5597  0.3730
15225TIP3    H267091   2.753   6.470  13.017 -2.4484  1.3738 -0.9245
15226TIP3   OH267092   5.288   3.540  16.581  0.1229  0.0505 -0.4235
15226TIP3    H167093   5.271   3.450  16.552  0.0003  0.0947 -0.4897
15226TIP3    H267094   5.340   3.530  16.660 -0.6325 -0.0992  0.0584
15227TIP3   OH267095   6.008   4.620  13.648  0.0100 -0.0135 -0.3598
15227TIP3    H167096   5.958   4.616  13.729 -1.9403  1.2729 -1.4278
15227TIP3    H267097   6.054   4.704  13.652  0.7751 -0.4371 -0.1237
15228TIP3   OH267098   6.458   3.379   1.667  0.2126 -0.2756  0.3584
15228TIP3    H167099   6.514   3.355   1.593  1.1425  1.4441  0.4653
15228TIP3    H267100   6.416   3.461   1.640 -1.1597 -0.7769  0.8704
15229TIP3   OH267101   6.662   0.793   5.028  0.5307  0.3519  0.0605
15229TIP3    H167102   6.756   0.801   5.045  0.7567  0.9047 -1.3044
15229TIP3    H267103   6.655   0.721   4.965  0.0915  0.5686 -0.1467
15230TIP3   OH267104   4.491   0.717   0.446  0.8964  0.4582  0.4516
15230TIP3    H167105   4.496   0.683   0.535 -1.0020  1.1770  0.8855
15230TIP3    H267106   4.513   0.642   0.391 -1.9133 -1.2730  1.4313
15231TIP3   OH267107   4.193   4.178  16.170 -0.6977 -0.5729 -0.5005
15231TIP3    H167108   4.099   4.160  16.175 -1.0684  0.8511 -1.6375
15231TIP3    H267109   4.205   4.259  16.220  0.1504 -1.3522  0.6276
15232TIP3   OH267110   1.780   1.428  12.061 -0.9607  0.2968  0.3184
15232TIP3    H167111   1.795   1.442  11.968  2.1150 -0.0059  0.6669
15232TIP3    H267112   1.853   1.472  12.105 -2.3440  0.5003  2.6358
15233TIP3   OH267113   2.186   6.158   2.116  0.0539 -0.3405 -0.6083
15233TIP3    H167114   2.210   6.232   2.060 -0.3055 -0.5178 -1.0048
15233TIP3    H267115   2.233   6.084   2.079  1.2583 -0.1305  0.4228
15234TIP3   OH267116   5.664   0.696   3.023  0.4356  0.0467 -0.7934
15234TIP3    H167117   5.580   0.728   3.054  1.3347  1.5077  0.2763
15234TIP3    H267118   5.645   0.652   2.940 -1.4114 -0.0111 -0.3628
15235TIP3   OH267119   5.862   1.853  11.100 -0.3527  0.0619 -0.1678
15235TIP3    H167120   5.794   1.786  11.097 -0.3636 -0.0669  1.6609
15235TIP3    H267121   5.856   1.890  11.188  1.2524  0.7856 -0.3131
15236TIP3   OH267122   3.475   6.192   5.633 -0.0274 -0.1338 -0.5566
15236TIP3    H167123   3.512   6.280   5.640  0.5445 -0.4612  1.0066
15236TIP3    H267124   3.435   6.177   5.719 -1.4501 -0.8372 -1.3008
15237TIP3   OH267125   4.632   2.240   4.174  0.5034 -0.2181  0.2287
15237TIP3    H167126   4.691   2.182   4.223  2.2253  2.1629  1.1723
15237TIP3    H267127   4.637   2.208   4.084  2.5006 -0.7342  0.4680
15238TIP3   OH267128   1.987   3.395   3.659 -0.3683  0.3343 -0.5352
15238TIP3    H167129   2.069   3.421   3.702 -0.1890 -0.5643 -0.3195
15238TIP3    H267130   1.923   3.391   3.730  0.5097 -3.7770  0.2484
15239TIP3   OH267131   1.145   0.443  16.545  0.2684 -0.4706  0.2578
15239TIP3    H167132   1.169   0.464  16.455  2.0311 -0.3433  0.7165
15239TIP3    H267133   1.176   0.353  16.557 -0.9929 -0.8987  0.4031
15240TIP3   OH267134   6.384   0.387  11.573 -0.2475 -0.0662 -0.4931
15240TIP3    H167135   6.453   0.356  11.631 -1.6046  0.3751  1.4411
15240TIP3    H267136   6.408   0.477  11.552 -0.3049  0.1458  0.3218
15241TIP3   OH267137   5.731   1.905   1.879  0.5333 -0.7177  0.0036
15241TIP3    H167138   5.683   1.823   1.867  2.2927 -1.5710 -1.7355
15241TIP3    H267139   5.697   1.963   1.811 -0.4095 -0.1157  0.9623
15242TIP3   OH267140   5.281   4.144   0.895  0.1637 -0.2398  0.2175
15242TIP3    H167141   5.324   4.218   0.938 -0.4171  0.7222 -0.8086
15242TIP3    H267142   5.352   4.094   0.855  0.8597 -1.7901  3.1192
15243TIP3   OH267143   1.994   0.756   3.475  0.2295  0.1377 -0.2470
15243TIP3    H167144   2.034   0.696   3.412 -0.4665 -1.3796  0.7016
15243TIP3    H267145   2.063   0.772   3.539  0.8757  1.5273 -1.2469
15244TIP3   OH267146   3.175   2.064   2.995  0.4158  0.1128  0.1221
15244TIP3    H167147   3.179   2.097   2.906 -1.4918 -0.4065 -0.1866
15244TIP3    H267148   3.163   1.969   2.985 -0.6434  0.1517  0.9023
15245TIP3   OH267149   6.628   1.597   2.682  0.6210 -0.0950 -0.0596
15245TIP3    H167150   6.642   1.518   2.734  1.7629 -0.8627 -1.4477
15245TIP3    H267151   6.603   1.564   2.595 -2.3379  1.1359  0.1892
15246TIP3   OH267152   1.625   3.649   1.109 -0.0384 -0.0215 -0.2907
15246TIP3    H167153   1.574   3.649   1.191 -0.0651  0.4681 -0.3082
15246TIP3    H267154   1.689   3.719   1.121  1.1227 -1.1066  0.0260
15247TIP3   OH267155   5.822   5.784   5.543  0.1828  0.1595 -0.5584
15247TIP3    H167156   5.909   5.807   5.511  0.2371  1.3748  0.4066
15247TIP3    H267157   5.771   5.765   5.464  1.0535  0.3833 -1.1823
15248TIP3   OH267158   0.506   5.977   3.036  0.2900  0.5078 -0.2938
15248TIP3    H167159   0.598   5.959   3.057  0.4534 -2.3091 -2.7883
15248TIP3    H267160   0.509   6.018   2.950 -0.7782  0.8200 -0.1901
15249TIP3   OH267161   6.442   2.649  12.497 -0.4245  0.5239 -0.5105
15249TIP3    H167162   6.360   2.644  12.448 -2.7835 -1.6831  3.1999
15249TIP3    H267163   6.428   2.721  12.559  0.9058  0.7876 -0.4902
15250TIP3   OH267164   1.801   1.507   2.021  0.0517 -0.6112 -0.2060
15250TIP3    H167165   1.811   1.554   1.938  0.6997 -1.1981 -0.4663
15250TIP3    H267166   1.773   1.574   2.083 -0.2498 -0.1275 -0.8505
15251TIP3   OH267167   5.665   4.037   0.486 -0.1686 -0.1816  0.8403
15251TIP3    H167168   5.637   4.080   0.405  1.2673  0.3145  0.5823
15251TIP3    H267169   5.594   4.057   0.548 -0.0051  1.8053  0.4720
15252TIP3   OH267170   1.628   3.038  13.780  0.1136  0.4106 -0.1015
15252TIP3    H167171   1.668   3.109  13.830 -0.7113  0.1052  1.0328
15252TIP3    H267172   1.694   2.970  13.777  0.7080  1.0061 -0.7140
15253TIP3   OH267173   4.530   0.587  13.394  0.4566 -0.0290 -0.0258
15253TIP3    H167174   4.528   0.663  13.452 -0.0904 -1.4357  1.8862
15253TIP3    H267175   4.438   0.567  13.377  0.6021  0.2796 -1.3458
15254TIP3   OH267176   0.748   0.421   1.526  0.0280  0.2333 -0.1926
15254TIP3    H167177   0.704   0.335   1.523 -0.6440  0.5681 -0.1257
15254TIP3    H267178   0.736   0.457   1.438 -1.6689  1.2158  0.4012
15255TIP3   OH267179   3.944   1.716  10.175  0.1075 -0.3226 -0.1992
15255TIP3    H167180   3.937   1.808  10.149 -2.4096 -0.1286  0.8550
15255TIP3    H267181   3.856   1.681  10.161  0.6958 -2.2529  0.6183
15256TIP3   OH267182   0.944   2.888  11.740 -0.1141 -0.3354  0.1213
15256TIP3    H167183   0.974   2.818  11.798 -1.2796 -1.7030 -0.8761
15256TIP3    H267184   0.848   2.881  11.740 -0.2569  1.1288 -0.1865
15257TIP3   OH267185   4.150   0.476  15.166 -0.2989 -0.0806  0.0242
15257TIP3    H167186   4.165   0.567  15.138  2.8364 -0.8692 -1.2964
15257TIP3    H267187   4.073   0.448  15.116 -0.3576  1.3742 -0.7530
15258TIP3   OH267188   0.363   3.371   0.370  0.4176 -0.0583  0.1378
15258TIP3    H167189   0.369   3.459   0.334 -2.2030 -0.8567 -2.6916
15258TIP3    H267190   0.292   3.377   0.435  0.8068  0.0780  0.5524
15259TIP3   OH267191   4.820   0.966   0.573 -0.1615 -0.2552 -0.4069
15259TIP3    H167192   4.750   1.029   0.554  0.1651 -0.2863 -1.8679
15259TIP3    H267193   4.784   0.910   0.641 -1.6545 -0.3829 -1.2543
15260TIP3   OH267194   2.316   4.578   5.351 -0.1290 -0.4889  0.5356
15260TIP3    H167195   2.282   4.518   5.417  0.4308 -1.8832 -0.3925
15260TIP3    H267196   2.261   4.563   5.274  0.8898 -0.8736 -0.1493
15261TIP3   OH267197   5.652   1.805   2.980 -0.4202 -0.4566 -0.4845
15261TIP3    H167198   5.665   1.874   3.044 -0.8860 -1.1720  0.4047
15261TIP3    H267199   5.572   1.828   2.935 -0.8015 -0.6225  0.0976
15262TIP3   OH267200   1.465   6.130  11.372  0.0670  0.0909  0.2523
15262TIP3    H167201   1.464   6.109  11.279 -1.8526 -0.6507  0.3872
15262TIP3    H267202   1.374   6.117  11.400  0.2446  1.9009  1.8820
15263TIP3   OH267203   1.224   2.345   4.531  0.4064 -0.1242 -0.7072
15263TIP3    H167204   1.189   2.403   4.463 -0.4123  0.4721  0.2161
15263TIP3    H267205   1.300   2.304   4.489  0.9319  1.4897 -1.4449
15264TIP3   OH267206   1.353   0.282  10.926  0.1394  1.1130  0.2769
15264TIP3    H167207   1.437   0.329  10.930 -0.2110  1.9660 -1.4541
15264TIP3    H267208   1.287   0.350  10.938 -0.3390  0.7495 -0.2857
15265TIP3   OH267209   3.234   6.762  14.568  0.2184  0.3759  0.1200
15265TIP3    H167210   3.143   6.733  14.564 -0.2131  1.0697  2.8904
15265TIP3    H267211   3.232   6.842  14.620  2.5979 -0.5189  1.7503
15266TIP3   OH267212   6.695   0.012  15.997 -0.1015 -0.2890 -0.5499
15266TIP3    H167213   6.758   0.041  15.931  1.5227 -0.9753  0.6430
15266TIP3    H267214   6.704   0.075  16.068  0.9863 -1.6804  0.6117
15267TIP3   OH267215   2.349   0.673   4.963  0.2703  0.0191 -0.3015
15267TIP3    H167216   2.396   0.756   4.973 -0.4458  0.4275 -0.2685
15267TIP3    H267217   2.401   0.610   5.013  0.8911  0.4159 -0.4342
15268TIP3   OH267218   5.763   4.228  15.568 -0.5630  0.1739 -0.1322
15268TIP3    H167219   5.806   4.143  15.575  1.7629  1.3784  1.5169
15268TIP3    H267220   5.673   4.212  15.596  0.5050 -1.2907  2.8794
15269TIP3   OH267221   0.667   3.855  12.728 -0.0704  0.6901 -0.1911
15269TIP3    H167222   0.580   3.889  12.707  0.6284  2.0629 -0.9949
15269TIP3    H267223   0.687   3.893  12.814 -0.2608  0.3928 -0.0167
15270TIP3   OH267224   3.600   5.913  15.292 -0.5287  0.1431  0.6806
15270TIP3    H167225   3.688   5.890  15.260 -0.0673  1.5374  0.8983
15270TIP3    H267226   3.578   5.995  15.248 -0.8329  0.9016  2.1664
15271TIP3   OH267227   2.973   5.168   4.530 -0.6527 -0.0594  0.2655
15271TIP3    H167228   2.962   5.163   4.435  1.2795 -1.1216  0.0500
15271TIP3    H267229   2.906   5.231   4.558 -1.3281  0.2207 -1.7681
15272TIP3   OH267230   2.976   3.533  12.481  0.0135 -0.1720 -0.0803
15272TIP3    H167231   2.951   3.483  12.403  0.8839 -1.8911  0.6892
15272TIP3    H267232   2.894   3.548  12.527 -0.6384  1.6244 -1.7055
15273TIP3   OH267233   4.008   5.088  16.087 -0.1370  0.5241  0.7754
15273TIP3    H167234   4.059   5.031  16.030  0.8891  0.3165  1.8573
15273TIP3    H267235   4.066   5.161  16.106 -0.4726  0.6146  1.5075
15274TIP3   OH267236   1.785   5.714   3.284 -0.0786  0.0060 -0.5724
15274TIP3    H167237   1.815   5.677   3.368  0.7785  1.1366 -0.3428
15274TIP3    H267238   1.857   5.696   3.224 -0.3021 -0.0064 -0.8337
15275TIP3   OH267239   2.053   1.118   5.145  0.6617  0.1296  0.2011
15275TIP3    H167240   2.024   1.154   5.061 -1.4064 -3.6729 -0.9322
15275TIP3    H267241   2.123   1.057   5.123  0.3368 -0.6632  1.2616
15276TIP3   OH267242   1.109   4.076   1.293  0.2081  0.3728  0.4918
15276TIP3    H167243   1.063   4.083   1.377 -1.4166  1.6851 -0.4428
15276TIP3    H267244   1.046   4.033   1.235 -0.1525  2.7157 -0.9716
15277TIP3   OH267245   4.645   2.165  13.152 -0.0948 -0.7311 -0.4345
15277TIP3    H167246   4.630   2.259  13.164 -0.7884 -0.7510 -1.0595
15277TIP3    H267247   4.707   2.160  13.079  0.0677 -0.7587 -0.2958
15278TIP3   OH267248   1.872   6.393  12.283  0.0511 -0.5807  0.3331
15278TIP3    H167249   1.850   6.441  12.203 -1.6804 -1.2539  0.3628
15278TIP3    H267250   1.948   6.340  12.259 -1.9530 -2.7724 -1.7467
15279TIP3   OH267251   4.591   4.853   4.094  0.4751  0.2825 -0.5519
15279TIP3    H167252   4.678   4.816   4.080  0.2001 -0.1563 -1.1871
15279TIP3    H267253   4.605   4.948   4.093  1.3505  0.2671  2.1444
15280TIP3   OH267254   6.686   3.831   2.973  0.0068  0.2717  0.5394
15280TIP3    H167255   6.710   3.786   2.891  0.5575  1.0248  0.2794
15280TIP3    H267256   6.591   3.839   2.968 -0.1617 -1.2164  0.7817
15281TIP3   OH267257   0.745   1.249   3.866  0.0596  0.2057 -0.7647
15281TIP3    H167258   0.724   1.342   3.864  0.4109  0.3491  0.8710
15281TIP3    H267259   0.836   1.244   3.836 -0.0586  0.3397 -1.1550
15282TIP3   OH267260   5.242   5.138   1.228 -0.0310  0.5262 -0.1489
15282TIP3    H167261   5.305   5.066   1.224  1.2362  1.4730  1.4079
15282TIP3    H267262   5.209   5.147   1.139  0.0405 -1.7322 -0.4575
15283TIP3   OH267263   0.238   2.694   5.472 -0.5353 -0.1020 -0.4828
15283TIP3    H167264   0.246   2.599   5.466 -1.8874 -0.3137  0.6213
15283TIP3    H267265   0.146   2.710   5.492 -0.7965  1.5756 -2.6856
15284TIP3   OH267266   3.018   0.334   0.560 -0.7357  0.0426 -0.8251
15284TIP3    H167267   3.012   0.247   0.520  1.2061 -0.6778  0.2798
15284TIP3    H267268   3.109   0.339   0.591 -0.8176  2.4726 -0.8416
15285TIP3   OH267269   0.044   0.114  12.849  0.8539 -0.3268  0.0695
15285TIP3    H167270   0.042   0.191  12.906  0.8892  0.3004 -0.7563
15285TIP3    H267271   0.089   0.144  12.770 -0.2691 -0.8144 -0.7892
15286TIP3   OH267272   6.132   1.658   5.631  0.1451 -0.3224  0.6020
15286TIP3    H167273   6.145   1.613   5.715  0.8803 -1.0267  0.1232
15286TIP3    H267274   6.215   1.702   5.614  0.5966 -1.5506 -0.5434
15287TIP3   OH267275   0.828   3.256   4.813 -0.2671 -0.1277 -0.2785
15287TIP3    H167276   0.825   3.200   4.891  1.2799 -0.2434 -0.2691
15287TIP3    H267277   0.742   3.296   4.809 -1.1756 -1.9248  0.1520
15288TIP3   OH267278   4.163   3.861   5.730  0.3261  0.2381  0.4073
15288TIP3    H167279   4.178   3.767   5.740  2.7272  0.5673  0.4229
15288TIP3    H267280   4.129   3.889   5.815 -1.5459 -0.7589  0.0387
15289TIP3   OH267281   1.395   4.227  11.313 -0.5769  0.0183 -0.0694
15289TIP3    H167282   1.407   4.322  11.311 -3.8741  0.5588  0.7495
15289TIP3    H267283   1.432   4.200  11.397 -1.5829  0.9805  0.7222
15290TIP3   OH267284   1.986   3.277   2.934 -0.6504 -0.0188  0.0332
15290TIP3    H167285   2.018   3.367   2.928 -0.4145  0.0142  1.4767
15290TIP3    H267286   1.897   3.286   2.969 -0.7979 -0.3163 -0.2683
15291TIP3   OH267287   5.126   4.121  12.467  0.5222 -0.7303 -0.0657
15291TIP3    H167288   5.127   4.091  12.558  1.6978  0.9742  0.5403
15291TIP3    H267289   5.034   4.117  12.440 -0.0886  0.2752  1.7489
15292TIP3   OH267290   6.392   6.106   6.039 -0.0403  0.5155  0.3707
15292TIP3    H167291   6.386   6.198   6.061 -0.5335  0.3171  1.0898
15292TIP3    H267292   6.304   6.071   6.055 -0.2333  0.1929 -1.1736
15293TIP3   OH267293   6.277   5.145   1.179 -0.7005 -0.4293  0.0779
15293TIP3    H167294   6.334   5.095   1.237 -0.6538  0.0562  0.4495
15293TIP3    H267295   6.194   5.096   1.179  0.6506 -3.1237 -3.1429
15294TIP3   OH267296   2.265   6.700  14.572 -0.2921 -0.2230 -0.2611
15294TIP3    H167297   2.301   6.731  14.655  1.6675 -1.5576 -0.5520
15294TIP3    H267298   2.210   6.772  14.542  1.1770  1.4553  0.8412
15295TIP3   OH267299   2.993   5.288  16.489 -0.1604  0.4603 -0.6473
15295TIP3    H167300   3.085   5.284  16.461  0.0079 -0.0726 -0.0532
15295TIP3    H267301   2.992   5.353  16.558 -0.2640  0.5929 -0.7739
15296TIP3   OH267302   2.815   5.412  13.859  0.3945  0.0087 -0.2491
15296TIP3    H167303   2.800   5.389  13.767 -0.7121 -0.4164  0.0153
15296TIP3    H267304   2.816   5.328  13.905 -2.2262  0.2852  0.5243
15297TIP3   OH267305   3.855   2.986  12.950  0.3588  0.0479  0.0385
15297TIP3    H167306   3.840   2.892  12.940  0.9680 -0.2059  1.3144
15297TIP3    H267307   3.773   3.019  12.987  0.2935 -0.0404 -0.0266
15298TIP3   OH267308   4.568   2.090  14.394  0.1091  0.1940 -0.1761
15298TIP3    H167309   4.617   2.077  14.312  0.3297  1.4904 -0.2799
15298TIP3    H267310   4.515   2.011  14.403  0.6115 -0.2873 -1.2031
15299TIP3   OH267311   1.588   3.193  10.222 -0.3662  0.6581  0.3398
15299TIP3    H167312   1.508   3.228  10.182 -1.4567 -0.5897  1.3390
15299TIP3    H267313   1.556   3.136  10.292  1.4047 -0.2828  0.4145
15300TIP3   OH267314   5.985   6.535  12.435 -0.4824  0.5249 -0.4611
15300TIP3    H167315   5.963   6.556  12.525  0.5123  1.6785 -0.4643
15300TIP3    H267316   6.002   6.619  12.393 -0.8881  0.0119 -1.7270
15301TIP3   OH267317   4.424   6.184  12.426 -0.0828  0.3269  0.2508
15301TIP3    H167318   4.402   6.201  12.335 -2.5319 -2.3409  0.2083
15301TIP3    H267319   4.470   6.100  12.426  2.2283  1.4851  1.3283
15302TIP3   OH267320   3.664   2.797  15.996 -0.1768  0.2429  0.4143
15302TIP3    H167321   3.694   2.706  16.002  1.2075  0.6830  0.2815
15302TIP3    H267322   3.659   2.826  16.087  1.8555  0.8087  0.3775
15303TIP3   OH267323   0.837   5.424  14.337 -0.5434 -0.3896  0.0186
15303TIP3    H167324   0.870   5.456  14.421  0.9299  1.2868 -1.1328
15303TIP3    H267325   0.820   5.503  14.286  0.2542 -1.3627 -1.8651
15304TIP3   OH267326   4.692   0.200  13.905 -0.1888  0.4432 -0.2968
15304TIP3    H167327   4.637   0.267  13.945  0.2756 -0.0696  1.2693
15304TIP3    H267328   4.690   0.220  13.812 -1.5834  1.4902 -0.0729
15305TIP3   OH267329   2.443   2.551  17.061  0.1087  0.1834  0.0050
15305TIP3    H167330   2.440   2.477  17.122  1.4996  0.3820  0.3561
15305TIP3    H267331   2.468   2.512  16.977  1.0424  0.2524  0.2350
15306TIP3   OH267332   0.210   2.839  12.242  0.0907 -0.5672  0.2584
15306TIP3    H167333   0.285   2.784  12.216 -0.9983 -2.2281  0.4275
15306TIP3    H267334   0.177   2.798  12.321 -0.3273  0.8307  0.8335
15307TIP3   OH267335   2.883   6.185  15.658  0.5852 -0.2964  0.1202
15307TIP3    H167336   2.960   6.242  15.656 -0.3776  1.1099  1.2734
15307TIP3    H267337   2.861   6.176  15.750  0.6072 -2.4622 -0.0407
15308TIP3   OH267338   0.849   6.035   0.786  0.0271  0.3339 -0.1401
15308TIP3    H167339   0.868   6.081   0.868  0.8774  2.1060 -1.2660
15308TIP3    H267340   0.754   6.025   0.786 -0.0467  0.8901  0.7828
15309TIP3   OH267341   5.257   4.539  15.976  0.2781  0.5461 -0.1745
15309TIP3    H167342   5.225   4.497  15.896  0.1755  1.3090 -0.5490
15309TIP3    H267343   5.347   4.510  15.984 -0.3317 -1.2595  0.6324
15310TIP3   OH267344   6.412   2.982   2.736 -0.2311 -0.3547 -0.3149
15310TIP3    H167345   6.470   3.050   2.771  0.6862 -1.7917  1.1030
15310TIP3    H267346   6.328   2.998   2.778  0.1449 -0.4399  0.4950
15311TIP3   OH267347   2.387   1.120  17.278  0.3233 -0.1464 -0.3925
15311TIP3    H167348   2.389   1.183  17.207  0.3196 -2.0481 -2.1702
15311TIP3    H267349   2.470   1.074  17.271  1.5116  1.2940  2.5323
15312TIP3   OH267350   2.947   2.803   2.737 -0.3222 -0.5664  0.0467
15312TIP3    H167351   2.893   2.754   2.800  0.8066 -1.4221  0.3735
15312TIP3    H267352   3.015   2.741   2.711  1.1290  0.8253  0.4373
15313TIP3   OH267353   6.191   0.864   2.706  0.0303 -0.0066 -0.1037
15313TIP3    H167354   6.095   0.865   2.712 -0.0760  0.4299 -1.4155
15313TIP3    H267355   6.211   0.787   2.652  0.4906 -0.6281  0.9353
15314TIP3   OH267356   0.174   5.405  12.067  0.0392  0.1057 -0.0906
15314TIP3    H167357   0.092   5.429  12.110 -0.2247  1.0330 -1.0838
15314TIP3    H267358   0.242   5.435  12.128 -0.3409 -0.7386  0.7733
15315TIP3   OH267359   2.625   6.597  15.196 -0.8911 -0.1548  0.4347
15315TIP3    H167360   2.673   6.624  15.118  1.3805 -1.2856  1.3539
15315TIP3    H267361   2.637   6.670  15.257 -1.4143  0.0853  0.2604
15316TIP3   OH267362   2.981   4.955  16.158 -0.4175  0.2809  0.0994
15316TIP3    H167363   2.907   5.012  16.181 -0.9760 -0.3071 -0.2033
15316TIP3    H267364   3.058   5.001  16.190 -0.8535  1.2348 -0.2008
15317TIP3   OH267365   5.356   5.063   5.583 -0.1007  0.1683 -0.0682
15317TIP3    H167366   5.400   4.979   5.570 -1.6358 -1.0923  2.1347
15317TIP3    H267367   5.354   5.103   5.497  1.5404 -1.6223 -0.9997
15318TIP3   OH267368   5.298   1.419  13.519 -0.4257 -0.9360  0.0744
15318TIP3    H167369   5.383   1.393  13.482  0.4913 -0.2170  1.5553
15318TIP3    H267370   5.262   1.480  13.454  0.9858  0.0448  0.1636
15319TIP3   OH267371   2.729   2.108   5.048 -0.2718  0.5239  0.1022
15319TIP3    H167372   2.796   2.110   5.116 -0.8359  1.0131  0.6625
15319TIP3    H267373   2.727   2.198   5.014  0.2716  0.1904 -0.8299
15320TIP3   OH267374   1.948   5.750   4.684 -0.2864 -0.7155  0.3151
15320TIP3    H167375   2.013   5.805   4.641 -2.5126  1.0112 -1.0538
15320TIP3    H267376   1.950   5.778   4.776  0.4341 -0.2390  0.1611
15321TIP3   OH267377   6.042   0.853  16.273 -0.0937 -0.3925  0.0155
15321TIP3    H167378   6.010   0.883  16.187  2.4153 -2.2862 -1.6951
15321TIP3    H267379   6.001   0.768  16.285 -0.4657 -0.1193  0.7738
15322TIP3   OH267380   2.880   5.658   3.616  0.2124  0.0186  0.1482
15322TIP3    H167381   2.909   5.676   3.705  0.2539  2.5038 -0.2923
15322TIP3    H267382   2.785   5.663   3.620  0.0620 -2.1667  0.4396
15323TIP3   OH267383   3.324   4.290  13.343 -0.2772 -0.0183 -0.7509
15323TIP3    H167384   3.390   4.354  13.368  0.6565 -0.5738 -1.7217
15323TIP3    H267385   3.269   4.335  13.278 -0.4108  0.2109 -0.4779
15324TIP3   OH267386   6.339   4.361  16.633 -0.1334 -0.4840  0.0014
15324TIP3    H167387   6.415   4.343  16.688  1.6328 -0.0909 -2.1679
15324TIP3    H267388   6.304   4.275  16.609 -0.0813 -0.6752  0.6043
15325TIP3   OH267389   2.075   0.764   5.050 -0.2014  0.3135  0.0477
15325TIP3    H167390   2.160   0.722   5.044  0.4077  1.1273  2.0402
15325TIP3    H267391   2.013   0.692   5.059  0.4602 -0.2426  0.2481
15326TIP3   OH267392   5.449   4.556  12.633  0.3181 -0.0818  0.4091
15326TIP3    H167393   5.537   4.526  12.610 -0.2148 -2.6197  1.3865
15326TIP3    H267394   5.391   4.487  12.601 -1.1347  0.4926  1.6887
15327TIP3   OH267395   5.663   1.361   1.664 -0.0096 -0.1523 -0.7197
15327TIP3    H167396   5.722   1.422   1.621 -0.2242  2.1657  1.9509
15327TIP3    H267397   5.718   1.285   1.684  1.1128  0.4470 -1.4244
15328TIP3   OH267398   6.580   5.680  11.919  0.3577 -0.3498  0.3897
15328TIP3    H167399   6.496   5.721  11.901 -0.0390 -0.7531  1.2270
15328TIP3    H267400   6.627   5.683  11.836  0.9046  2.9558  0.6867
15329TIP3   OH267401   3.564   0.733   4.156  0.4697  0.1421  0.0243
15329TIP3    H167402   3.612   0.666   4.108 -0.1664  0.2974 -0.8701
15329TIP3    H267403   3.621   0.810   4.154  1.6410 -0.6051  1.9113
15330TIP3   OH267404   3.030   5.423   2.611  0.1210 -0.0911 -0.8293
15330TIP3    H167405   3.088   5.485   2.567  0.7734  0.8500  1.2500
15330TIP3    H267406   3.074   5.402   2.693 -1.3563 -1.2405 -0.2811
15331TIP3   OH267407   5.721   6.126   1.950 -0.1456 -0.3184 -0.0050
15331TIP3    H167408   5.661   6.161   2.016 -0.1612  0.3090 -0.3349
15331TIP3    H267409   5.787   6.078   1.999  0.7313  1.4340  0.6313
15332TIP3   OH267410   6.146   5.609  16.454  0.4063  0.0077  0.1642
15332TIP3    H167411   6.133   5.670  16.382  0.2398  0.1728  0.3321
15332TIP3    H267412   6.084   5.638  16.521 -1.3488 -1.7234 -0.6194
15333TIP3   OH267413   5.689   5.846   3.604 -0.1694  0.9206  0.6051
15333TIP3    H167414   5.637   5.766   3.597  0.9804  0.2797 -2.1848
15333TIP3    H267415   5.639   5.911   3.555  1.6072  0.2071 -2.4011
15334TIP3   OH267416   4.816   5.887  10.916 -0.1285  0.6636  0.5422
15334TIP3    H167417   4.777   5.802  10.897  1.4879 -0.0750  0.3560
15334TIP3    H267418   4.801   5.939  10.837  0.2491  0.0244  0.0427
15335TIP3   OH267419   3.260   4.852  14.777 -0.2036  0.9408 -0.6535
15335TIP3    H167420   3.193   4.787  14.800 -0.4409  1.0384 -1.0500
15335TIP3    H267421   3.327   4.802  14.731  0.0891  0.8112 -0.0948
15336TIP3   OH267422   1.986   1.573   0.847  0.4917 -0.6740  0.5040
15336TIP3    H167423   1.912   1.553   0.790 -1.1917  0.1557  2.2722
15336TIP3    H267424   2.037   1.638   0.798  1.2466 -2.6837 -1.5805
15337TIP3   OH267425   5.551   4.573  16.817 -0.4158  0.9999 -0.4470
15337TIP3    H167426   5.627   4.616  16.778  0.4569 -1.4156 -1.6716
15337TIP3    H267427   5.589   4.515  16.884 -1.3218  0.8787 -0.0308
15338TIP3   OH267428   2.228   2.586  16.523  0.4244  0.0337 -0.1827
15338TIP3    H167429   2.146   2.539  16.539  1.2312 -0.5665  2.8589
15338TIP3    H267430   2.296   2.522  16.543  1.6293  1.1178 -0.6646
15339TIP3   OH267431   2.375   5.772  13.755  0.0466  0.2973 -0.0707
15339TIP3    H167432   2.321   5.730  13.822 -1.3877 -0.9974 -1.9355
15339TIP3    H267433   2.457   5.722  13.756 -0.4374 -0.5189 -0.1019
15340TIP3   OH267434   3.213   5.794   1.515 -0.0985 -0.0217 -0.1461
15340TIP3    H167435   3.129   5.759   1.484  0.5783  0.6087 -3.0033
15340TIP3    H267436   3.224   5.876   1.467  1.9728  0.1135  0.4552
15341TIP3   OH267437   2.620   1.891   2.786  0.3575 -0.0530  0.4216
15341TIP3    H167438   2.556   1.932   2.728 -1.0030 -2.8765 -0.2374
15341TIP3    H267439   2.596   1.922   2.873 -2.0335 -1.0928  0.2055
15342TIP3   OH267440   5.723   2.064   3.045  0.2923  0.3707 -0.2436
15342TIP3    H167441   5.657   2.090   3.110 -0.7860 -3.1396  0.2853
15342TIP3    H267442   5.805   2.063   3.093  0.1852  1.5190 -0.0053
15343TIP3   OH267443   0.692   4.251   6.107  0.3544 -0.5842  0.0566
15343TIP3    H167444   0.717   4.184   6.170  1.3938  0.6905  1.0552
15343TIP3    H267445   0.627   4.304   6.153 -1.0350 -1.3031 -0.9920
15344TIP3   OH267446   3.933   0.413  16.915 -0.8115  0.0292 -0.2029
15344TIP3    H167447   4.001   0.463  16.870  1.2063 -0.0008  2.5217
15344TIP3    H267448   3.921   0.334  16.862  1.0248  0.2321 -0.9822
15345TIP3   OH267449   5.878   1.158  12.776 -0.3452  0.4663  0.3865
15345TIP3    H167450   5.837   1.081  12.735  0.7131 -0.1848  0.5164
15345TIP3    H267451   5.840   1.233  12.730 -0.6686 -0.1724 -0.4108
15346TIP3   OH267452   0.911   2.177   3.954  0.0421 -0.4795 -0.1030
15346TIP3    H167453   0.984   2.166   3.892  1.6785  0.1176  1.6088
15346TIP3    H267454   0.887   2.088   3.979 -0.1407 -0.6976 -1.0169
15347TIP3   OH267455   6.279   0.777   3.696  0.0232 -0.3804  0.0506
15347TIP3    H167456   6.277   0.778   3.792 -0.1595 -0.9041  0.0540
15347TIP3    H267457   6.212   0.840   3.670  2.4758  2.5586  0.2543
15348TIP3   OH267458   4.063   5.029  10.973 -0.0325 -0.0668  0.4157
15348TIP3    H167459   3.977   4.988  10.982  0.1028 -0.2171  1.0884
15348TIP3    H267460   4.104   4.983  10.900 -0.3620 -0.2832  0.3651
15349TIP3   OH267461   1.155   1.363   5.011 -0.0363  0.2188 -0.4748
15349TIP3    H167462   1.202   1.337   5.090  0.5278  2.8889  0.1553
15349TIP3    H267463   1.181   1.298   4.945  1.5453 -0.5378  0.8384
15350TIP3   OH267464   5.348   4.020  13.970  0.5980  0.5811 -0.0515
15350TIP3    H167465   5.314   3.931  13.986  1.8340  0.0264 -0.4233
15350TIP3    H267466   5.426   4.007  13.917  1.9054  1.7444  1.4771
15351TIP3   OH267467   0.728   6.186   2.390 -0.3155 -0.0539  0.6939
15351TIP3    H167468   0.641   6.225   2.375 -0.3728 -0.0852  0.9490
15351TIP3    H267469   0.783   6.261   2.414 -0.4840 -0.1581  1.4376
15352TIP3   OH267470   6.565   5.118  14.106 -0.7406 -0.1645  0.4032
15352TIP3    H167471   6.637   5.056  14.110 -1.5263 -1.1045  0.3689
15352TIP3    H267472   6.493   5.075  14.153 -1.7421  0.1017 -0.8245
15353TIP3   OH267473   5.701   0.702  12.140  0.1471  0.3084  0.4485
15353TIP3    H167474   5.644   0.642  12.091 -1.1387  1.6587  0.2368
15353TIP3    H267475   5.740   0.758  12.073 -0.0123  0.8310  0.7921
15354TIP3   OH267476   5.015   5.971   1.102 -0.4081 -0.5036  0.0253
15354TIP3    H167477   4.959   5.950   1.028  1.0428 -1.0968 -0.9584
15354TIP3    H267478   5.060   6.052   1.077 -1.5126  0.5195  1.2230
15355TIP3   OH267479   2.537   0.102  15.836  0.0661 -0.2343  0.1669
15355TIP3    H167480   2.452   0.069  15.863  0.4394  0.1756  1.9799
15355TIP3    H267481   2.518   0.166  15.767 -1.0058 -0.8428 -0.1139
15356TIP3   OH267482   4.840   1.531   0.468 -0.2895  0.0456 -0.2489
15356TIP3    H167483   4.887   1.476   0.531  1.7713  0.8972 -0.9239
15356TIP3    H267484   4.812   1.470   0.400  1.0679 -0.3562 -0.4889
15357TIP3   OH267485   3.700   0.121   2.459  0.1748  0.0372  0.3804
15357TIP3    H167486   3.647   0.088   2.387  0.6760 -0.2600  0.1443
15357TIP3    H267487   3.639   0.170   2.513 -0.1492  0.4895 -0.3848
15358TIP3   OH267488   1.850   1.820  15.517 -0.4800  0.2315 -0.5908
15358TIP3    H167489   1.888   1.756  15.455  0.6158 -0.5102  0.7826
15358TIP3    H267490   1.764   1.783  15.539  0.0394 -0.6810 -0.0018
15359TIP3   OH267491   4.168   1.998   0.643 -0.0828  0.2771 -0.1172
15359TIP3    H167492   4.137   1.917   0.604  0.2304  0.3701 -0.5594
15359TIP3    H267493   4.132   2.067   0.587  1.1405  0.3822 -0.8133
15360TIP3   OH267494   6.084   5.410   2.499 -0.1479 -0.0243 -0.1928
15360TIP3    H167495   6.094   5.493   2.545 -3.3163  0.8039 -0.7249
15360TIP3    H267496   6.098   5.432   2.407  1.0673 -0.5744 -0.1585
15361TIP3   OH267497   0.684   5.549  11.492 -0.1242 -0.0152 -0.2759
15361TIP3    H167498   0.780   5.542  11.497 -0.1061  0.1434 -0.4184
15361TIP3    H267499   0.662   5.513  11.406 -0.1338  0.5781 -0.5228
15362TIP3   OH267500   5.548   5.605   4.633  0.4390  0.3460  0.1547
15362TIP3    H167501   5.539   5.700   4.634  1.9832  0.5221  0.1838
15362TIP3    H267502   5.571   5.581   4.723  2.2018  0.2336 -0.2787
15363TIP3   OH267503   4.934   2.004   0.819 -0.3709  0.4450 -0.2688
15363TIP3    H167504   4.905   1.918   0.848 -0.5739  1.0633  1.4893
15363TIP3    H267505   4.922   2.003   0.724 -1.5243 -1.0271 -0.1413
15364TIP3   OH267506   4.598   2.817   5.763  0.6335  0.6591 -0.1977
15364TIP3    H167507   4.644   2.812   5.847  1.5702 -1.3857 -0.7543
15364TIP3    H267508   4.665   2.844   5.701 -0.1113  2.3868 -0.2907
15365TIP3   OH267509   3.390   2.810  11.226  0.1602 -0.0607 -0.4610
15365TIP3    H167510   3.367   2.890  11.179 -2.0950 -1.2484 -1.5258
15365TIP3    H267511   3.410   2.839  11.315 -3.1645  1.5000 -0.0722
15366TIP3   OH267512   3.217   1.783  13.304  0.5425 -0.4143  0.3200
15366TIP3    H167513   3.202   1.876  13.323 -1.9523 -0.6538 -0.1231
15366TIP3    H267514   3.306   1.766  13.334  0.5019  1.7446  1.8730
15367TIP3   OH267515   1.466   5.615  14.908 -0.0158 -0.1109 -0.2570
15367TIP3    H167516   1.468   5.583  14.998  1.8039 -0.6017 -0.4455
15367TIP3    H267517   1.557   5.618  14.881 -0.4564  1.0187 -1.7590
15368TIP3   OH267518   0.686   5.463   5.452  0.4203 -0.3429  0.0957
15368TIP3    H167519   0.711   5.370   5.448 -0.7022 -0.6400 -0.4721
15368TIP3    H267520   0.688   5.484   5.545  1.4116 -0.7139  0.1759
15369TIP3   OH267521   3.284   1.108  13.454 -0.1009  0.4694  0.1020
15369TIP3    H167522   3.342   1.138  13.384 -1.1893 -0.6424 -1.3223
15369TIP3    H267523   3.278   1.013  13.442 -0.6908  0.3206  1.4140
15370TIP3   OH267524   1.702   5.014  15.541 -0.2673  0.1338  0.1853
15370TIP3    H167525   1.779   5.046  15.494 -0.4894 -1.7421 -1.6424
15370TIP3    H267526   1.629   5.064  15.504 -0.5337 -1.7938 -2.1806
15371TIP3   OH267527   0.986   6.411  12.707  0.3254  0.3370 -0.2093
15371TIP3    H167528   1.063   6.462  12.734 -0.6342  0.7348  2.0395
15371TIP3    H267529   0.917   6.439  12.768 -1.0425 -1.5249 -0.8278
15372TIP3   OH267530   1.997   5.132   6.688 -0.0502  0.0562 -0.1518
15372TIP3    H167531   1.920   5.124   6.744  0.0395 -0.2332 -0.0649
15372TIP3    H267532   2.007   5.226   6.674 -0.8161  0.0610 -0.7218
15373TIP3   OH267533   1.023   3.915   5.098 -0.2904  0.3988 -0.4168
15373TIP3    H167534   0.935   3.945   5.076 -1.0358  0.4885  2.2507
15373TIP3    H267535   1.015   3.885   5.189  1.5624 -3.2539 -1.2849
15374TIP3   OH267536   0.076   2.936   3.389 -0.3792  0.0722 -0.3362
15374TIP3    H167537   0.032   2.946   3.474 -1.4797 -4.2154 -0.1509
15374TIP3    H267538   0.164   2.971   3.404 -0.2874 -1.1182  2.8696
15375TIP3   OH267539   1.867   3.316   4.090 -0.0453 -0.4330 -0.5330
15375TIP3    H167540   1.957   3.295   4.115  0.0096  0.0627 -0.3080
15375TIP3    H267541   1.873   3.404   4.053 -0.8490  0.7148  1.9278
15376TIP3   OH267542   2.058   2.970  14.507 -0.1791  0.1014  0.7446
15376TIP3    H167543   2.134   2.938  14.459  1.0717  0.0803  2.6483
15376TIP3    H267544   1.983   2.941  14.455  1.0777 -0.4387 -0.8475
15377TIP3   OH267545   4.070   6.771   2.238  0.0701 -0.1524 -0.2634
15377TIP3    H167546   4.058   6.866   2.234 -1.3651  0.0089  3.4624
15377TIP3    H267547   4.154   6.760   2.283 -0.2886 -0.5797  0.3136
15378TIP3   OH267548   6.420   6.617  15.028  0.2436 -0.1806  0.1254
15378TIP3    H167549   6.442   6.590  15.117 -1.9596 -0.4555  0.6343
15378TIP3    H267550   6.495   6.670  15.000  0.4744  0.9129  2.5901
15379TIP3   OH267551   3.725   6.002  15.523 -0.4960 -0.0623  0.2537
15379TIP3    H167552   3.792   5.935  15.536 -0.8267 -0.3373  0.5612
15379TIP3    H267553   3.676   5.973  15.446  0.6437  0.8940 -0.8749
15380TIP3   OH267554   0.910   0.114   3.330  1.0439 -0.1509 -0.0699
15380TIP3    H167555   0.946   0.128   3.417 -2.0533  0.7325  1.2224
15380TIP3    H267556   0.874   0.200   3.305 -1.0315 -1.1508 -0.7223
15381TIP3   OH267557   5.816   4.027  12.427 -0.4555 -0.3262 -0.2682
15381TIP3    H167558   5.784   4.116  12.442 -0.1594 -0.3605  0.6545
15381TIP3    H267559   5.738   3.976  12.410 -0.8689 -0.2884  1.3204
15382TIP3   OH267560   3.636   2.200  15.173  0.0135 -0.0666 -0.6332
15382TIP3    H167561   3.551   2.218  15.212  0.3331 -0.3020  0.1900
15382TIP3    H267562   3.619   2.192  15.079 -0.6876  1.0193 -0.6120
15383TIP3   OH267563   4.505   1.551  15.223 -0.3982  0.3579  0.1353
15383TIP3    H167564   4.555   1.608  15.281 -0.8164 -0.0133  0.8704
15383TIP3    H267565   4.570   1.491  15.187 -0.5828 -1.6690  2.8935
15384TIP3   OH267566   5.944   2.060  16.530 -1.3384  0.5756 -0.7497
15384TIP3    H167567   5.878   2.002  16.492  0.2499 -1.4514 -0.5999
15384TIP3    H267568   5.953   2.030  16.620  0.0374  0.5219 -0.8822
15385TIP3   OH267569   6.221   0.394   1.557  0.0263  0.4019  0.1599
15385TIP3    H167570   6.250   0.397   1.466 -2.1899 -1.1218 -0.6801
15385TIP3    H267571   6.150   0.458   1.561  0.6921  1.1177  1.1053
15386TIP3   OH267572   3.363   3.679  12.796  0.1954  0.0059 -0.1554
15386TIP3    H167573   3.376   3.769  12.765  1.4427 -0.5081 -1.2119
15386TIP3    H267574   3.446   3.636  12.779 -1.4719 -2.4082 -3.2920
15387TIP3   OH267575   0.939   1.501  11.174  0.2293  0.3906 -0.7088
15387TIP3    H167576   1.007   1.458  11.122  1.8995 -1.1580  2.4355
15387TIP3    H267577   0.986   1.571  11.220  0.2201 -1.5889  2.5989
15388TIP3   OH267578   1.633   4.395   1.906  0.0489  0.6717 -0.0168
15388TIP3    H167579   1.674   4.310   1.889  0.3473  0.8998 -0.4279
15388TIP3    H267580   1.544   4.373   1.934  0.1955  0.2125  0.0959
15389TIP3   OH267581   2.464   3.776  14.154  0.0665  0.6557  0.3457
15389TIP3    H167582   2.541   3.827  14.130 -1.0938  1.7700 -1.1829
15389TIP3    H267583   2.431   3.740  14.072  0.7859 -2.6226  1.3390
15390TIP3   OH267584   0.654   0.593   1.286 -0.4061  0.9388 -0.1010
15390TIP3    H167585   0.663   0.684   1.255  0.5381  1.0501  0.4620
15390TIP3    H267586   0.715   0.544   1.231 -1.8961  0.3833 -1.3397
15391TIP3   OH267587   0.485   4.727   5.654 -0.2462 -0.5075  0.3442
15391TIP3    H167588   0.427   4.762   5.587  1.8889  0.7428 -0.9571
15391TIP3    H267589   0.444   4.753   5.737 -0.1116  2.9466 -0.5188
15392TIP3   OH267590   3.699   1.972  15.365 -0.0707  0.1723  0.2832
15392TIP3    H167591   3.785   1.986  15.326 -0.7311 -1.1433 -1.8302
15392TIP3    H267592   3.671   2.058  15.395  1.6433  0.7486  0.3164
15393TIP3   OH267593   5.865   6.168   3.334  0.1612  0.2625  0.2063
15393TIP3    H167594   5.946   6.120   3.353  1.1371  1.6112 -0.3946
15393TIP3    H267595   5.848   6.150   3.242 -0.7848 -0.7757  0.5551
15394TIP3   OH267596   2.140   6.301  14.262  0.0152 -0.0767 -0.2077
15394TIP3    H167597   2.124   6.365  14.332  0.7573  0.5284 -0.5763
15394TIP3    H267598   2.174   6.224  14.308 -0.2767  0.0254  0.1842
15395TIP3   OH267599   6.137   0.602   3.043 -0.0519  0.1725 -0.1520
15395TIP3    H167600   6.058   0.644   3.008 -0.7034 -0.9009 -0.0125
15395TIP3    H267601   6.108   0.560   3.124  0.5305 -0.7124 -0.3884
15396TIP3   OH267602   3.820   1.741  12.500 -0.4328  0.1846 -0.2063
15396TIP3    H167603   3.809   1.781  12.586 -0.3304  0.1380 -0.1706
15396TIP3    H267604   3.830   1.647  12.518  0.2745  0.2508 -0.2089
15397TIP3   OH267605   3.359   1.859  17.280 -0.1242  0.2094 -0.1399
15397TIP3    H167606   3.445   1.833  17.248 -0.1442  0.6322 -0.5515
15397TIP3    H267607   3.356   1.954  17.268  0.3930  0.6112  2.4041
15398TIP3   OH267608   4.770   4.030  13.531 -0.1842  0.1846 -0.0713
15398TIP3    H167609   4.796   4.122  13.538 -0.7534  0.2505  1.4431
15398TIP3    H267610   4.815   3.987  13.603  0.8852 -0.9502 -1.3727
15399TIP3   OH267611   0.271   5.708   3.616 -0.1386  0.5596  0.0030
15399TIP3    H167612   0.225   5.626   3.601 -0.1682  0.4806  0.4984
15399TIP3    H267613   0.201   5.773   3.626 -0.2328  0.1776  2.3143
15400TIP3   OH267614   2.168   1.545  13.681 -0.3502 -0.4446 -0.2942
15400TIP3    H167615   2.164   1.457  13.717  1.5399 -0.3686  0.2018
15400TIP3    H267616   2.207   1.535  13.594  1.7337  0.0307  0.5215
15401TIP3   OH267617   3.924   4.552   5.067 -0.2234  0.2459 -0.1253
15401TIP3    H167618   3.922   4.645   5.091  2.7418  0.3667 -0.0507
15401TIP3    H267619   3.846   4.515   5.109 -0.4179  2.3131  1.5024
15402TIP3   OH267620   2.619   5.260   5.447  0.4960 -0.1749  0.1056
15402TIP3    H167621   2.662   5.182   5.483 -0.8424 -1.4883 -0.9763
15402TIP3    H267622   2.565   5.293   5.519  1.2297 -0.1125  0.6363
15403TIP3   OH267623   1.495   1.484   3.762 -0.7414  0.2832 -0.0789
15403TIP3    H167624   1.417   1.513   3.809 -0.7271 -1.2130  0.9705
15403TIP3    H267625   1.473   1.396   3.732  0.7328 -0.4135  0.7744
15404TIP3   OH267626   0.584   5.750   2.896  0.1215  0.0181 -0.4433
15404TIP3    H167627   0.549   5.699   2.969  1.2059 -1.3978 -0.8588
15404TIP3    H267628   0.638   5.818   2.937  0.7246 -0.7694  0.0925
15405TIP3   OH267629   0.126   0.344   3.471  0.8991 -0.3258 -0.1801
15405TIP3    H167630   0.039   0.311   3.446  1.4880 -0.4525 -2.2135
15405TIP3    H267631   0.179   0.265   3.482  1.2118 -0.1944 -0.7327
15406TIP3   OH267632   1.185   4.408  11.442 -0.5144 -0.4752  0.4778
15406TIP3    H167633   1.163   4.360  11.361 -1.1823  0.9902 -0.2468
15406TIP3    H267634   1.140   4.359  11.511 -1.4708 -0.7171 -0.2843
15407TIP3   OH267635   4.591   1.320   3.917 -0.0577  0.3307  0.1748
15407TIP3    H167636   4.565   1.412   3.916 -1.9636 -0.1433 -1.8658
15407TIP3    H267637   4.682   1.320   3.889  0.3057  1.6609  1.3054
15408TIP3   OH267638   3.632   4.211   4.117 -0.6411 -0.3324  0.2320
15408TIP3    H167639   3.692   4.252   4.054 -1.4666 -1.1775 -1.1287
15408TIP3    H267640   3.689   4.183   4.189  0.2686  0.9444  0.0517
15409TIP3   OH267641   2.843   1.466   0.868  0.0406  0.1804 -0.0870
15409TIP3    H167642   2.875   1.439   0.955  0.6917  3.8943  0.9739
15409TIP3    H267643   2.756   1.501   0.884 -0.7024 -0.9844 -1.3625
15410TIP3   OH267644   6.645   6.555  13.983  0.5638 -0.6886  0.4232
15410TIP3    H167645   6.658   6.565  13.889 -0.0371  0.5212  0.4493
15410TIP3    H267646   6.579   6.621  14.006  1.6251 -0.0532  1.8964
15411TIP3   OH267647   4.027   2.470  15.251  0.1805 -0.3606  0.0695
15411TIP3    H167648   3.968   2.395  15.243  0.4332 -0.4167 -1.5197
15411TIP3    H267649   4.101   2.438  15.302 -0.2921 -0.8317  0.4632
15412TIP3   OH267650   4.499   6.678  16.400 -0.4781  0.0240 -0.2315
15412TIP3    H167651   4.521   6.585  16.393  0.0904  0.2620 -2.0692
15412TIP3    H267652   4.405   6.682  16.382 -0.5630 -0.2088  0.1387
15413TIP3   OH267653   5.830   6.333   5.686 -0.0492  0.1304  0.8948
15413TIP3    H167654   5.766   6.382   5.738  0.3617  0.7333  0.8443
15413TIP3    H267655   5.779   6.293   5.616 -0.4443  0.2026  1.1375
15414TIP3   OH267656   0.576   4.516   2.428 -0.1995  0.3688  0.2457
15414TIP3    H167657   0.487   4.545   2.408 -0.6993  0.3316  2.2133
15414TIP3    H267658   0.592   4.549   2.516  0.5753 -2.2246  1.1372
15415TIP3   OH267659   1.178   6.364   2.952 -0.4880  0.4510  0.3578
15415TIP3    H167660   1.224   6.371   2.869 -0.4266 -0.7226  0.2719
15415TIP3    H267661   1.248   6.362   3.018 -0.5424  1.5459  0.4645
15416TIP3   OH267662   1.735   3.506   4.984 -0.0175  0.6813 -0.2547
15416TIP3    H167663   1.820   3.494   5.026  0.4114  2.5826 -0.4768
15416TIP3    H267664   1.746   3.584   4.929 -2.1506  1.5297  0.4065
15417TIP3   OH267665   3.543   4.566   3.039  0.4056  0.0594  0.2204
15417TIP3    H167666   3.606   4.637   3.038  0.4948  0.0456  2.0914
15417TIP3    H267667   3.589   4.493   3.079  0.0543 -0.8199 -0.9211
15418TIP3   OH267668   0.990   0.387  17.233  0.3592 -0.2478 -0.4703
15418TIP3    H167669   0.979   0.464  17.178  0.2999  0.9790  1.1617
15418TIP3    H267670   0.969   0.313  17.176 -0.4729  0.9921 -1.8430
15419TIP3   OH267671   4.679   2.957   5.254 -0.0175 -0.0572 -0.4260
15419TIP3    H167672   4.756   2.981   5.305 -0.6549 -0.7521  0.9105
15419TIP3    H267673   4.714   2.929   5.169  1.1360  0.2181 -0.0542
15420TIP3   OH267674   4.540   0.492  15.152 -0.2589 -0.6676 -0.1130
15420TIP3    H167675   4.618   0.447  15.183  0.6189 -1.0919 -2.7099
15420TIP3    H267676   4.549   0.581  15.185  0.9307 -0.9074  0.2523
15421TIP3   OH267677   0.041   3.759  15.356 -0.0502  0.5199  0.1912
15421TIP3    H167678   0.037   3.746  15.451  0.0538  1.2481  0.2982
15421TIP3    H267679  -0.016   3.691  15.321  1.6029 -1.1928  0.6327
15422TIP3   OH267680   4.721   1.506  12.804  0.2698  0.1539  0.0258
15422TIP3    H167681   4.768   1.433  12.846  1.0190  0.4705 -0.2494
15422TIP3    H267682   4.767   1.584  12.833 -0.7999  0.5725  0.6789
15423TIP3   OH267683   0.744   6.406  11.789  0.1692  0.5756  0.2792
15423TIP3    H167684   0.710   6.451  11.866 -1.7530 -0.1118 -0.1236
15423TIP3    H267685   0.678   6.340  11.768  1.6359 -0.6226 -0.7495
15424TIP3   OH267686   4.189   2.546   3.536 -0.0149 -0.4225 -0.7399
15424TIP3    H167687   4.138   2.624   3.559 -2.1142 -2.3339  1.5964
15424TIP3    H267688   4.256   2.540   3.604  0.6251 -0.2978 -1.3430
15425TIP3   OH267689   6.088   6.096   3.018 -0.0461  0.3822  0.5214
15425TIP3    H167690   5.992   6.092   3.011 -0.0191  0.0209  0.3096
15425TIP3    H267691   6.113   6.012   3.057  0.3922 -0.8308 -2.1250
15426TIP3   OH267692   0.989   4.284  16.674  0.1259 -0.3644  0.1726
15426TIP3    H167693   1.004   4.359  16.730  3.3232 -1.0233  0.3769
15426TIP3    H267694   0.953   4.321  16.593  1.6692  1.4296  0.2451
15427TIP3   OH267695   4.478   2.909  11.479  0.2020 -0.3740  0.6784
15427TIP3    H167696   4.415   2.921  11.408  1.1826 -0.8499 -0.3107
15427TIP3    H267697   4.524   2.992  11.484 -0.1392 -0.2042  1.0420
15428TIP3   OH267698   2.520   6.414   1.330  0.1011 -0.1759  0.5687
15428TIP3    H167699   2.525   6.319   1.339  1.5950  0.0258  2.6365
15428TIP3    H267700   2.610   6.444   1.344 -0.3812  1.5601  0.1791
15429TIP3   OH267701   1.542   0.262   0.933  0.5780 -0.9952 -0.0483
15429TIP3    H167702   1.454   0.233   0.958  1.7699 -4.9155  0.1858
15429TIP3    H267703   1.587   0.277   1.016  1.4714 -3.9328  0.1264
15430TIP3   OH267704   0.185   2.840   1.493  0.4826 -0.4179  0.3161
15430TIP3    H167705   0.125   2.897   1.540  2.4591  0.1131  2.3621
15430TIP3    H267706   0.211   2.892   1.416 -0.2083  0.0906  0.4157
15431TIP3   OH267707   4.432   0.280   3.271  0.1004  0.2456 -0.2700
15431TIP3    H167708   4.483   0.311   3.346 -0.2768  0.9585 -0.2997
15431TIP3    H267709   4.350   0.249   3.309 -0.6579  1.8742 -0.4926
15432TIP3   OH267710   2.660   3.890  11.626 -0.1349  0.0236 -0.4054
15432TIP3    H167711   2.650   3.968  11.571 -2.0543 -0.8038 -1.3379
15432TIP3    H267712   2.708   3.828  11.572  0.7851  0.3032  0.0780
15433TIP3   OH267713   1.249   6.320  12.001  0.1750 -0.1511  0.1556
15433TIP3    H167714   1.265   6.240  11.951 -0.7648  1.0397 -2.2022
15433TIP3    H267715   1.158   6.313  12.031 -0.0268  0.1756 -0.3673
15434TIP3   OH267716   5.363   1.456   5.196  0.3146  0.2241  0.3825
15434TIP3    H167717   5.394   1.470   5.107 -1.2131 -0.5115 -0.2972
15434TIP3    H267718   5.381   1.363   5.213  0.9974  0.4599  1.0292
15435TIP3   OH267719   4.092   4.970   4.893 -0.1605 -0.0882 -0.1211
15435TIP3    H167720   4.177   4.942   4.860 -0.4263 -1.8577  0.5587
15435TIP3    H267721   4.109   4.999   4.983 -0.1462  0.4091 -0.2808
15436TIP3   OH267722   5.151   0.297  16.452 -0.4010 -0.3328  1.1170
15436TIP3    H167723   5.057   0.299  16.438 -0.6594 -0.3705  2.6882
15436TIP3    H267724   5.177   0.207  16.430 -0.4897  0.0158 -0.5516
15437TIP3   OH267725   0.776   0.959  14.340 -0.0811 -0.2672  0.0166
15437TIP3    H167726   0.863   0.989  14.366  0.2199 -1.3243  0.2789
15437TIP3    H267727   0.717   1.001  14.403  0.3697 -0.5374  0.6328
15438TIP3   OH267728   5.120   5.084  12.505  0.5857 -0.2492  0.0309
15438TIP3    H167729   5.176   5.121  12.573 -1.2644  0.6301  1.1582
15438TIP3    H267730   5.071   5.014  12.549  0.2750 -0.5368 -0.7394
15439TIP3   OH267731   1.066   5.681  11.821  0.0192 -0.3511 -0.2302
15439TIP3    H167732   0.994   5.705  11.764  1.8257  2.9666 -1.3690
15439TIP3    H267733   1.046   5.724  11.904 -0.0607 -0.7482 -0.0422
15440TIP3   OH267734   1.140   5.578   3.363  0.0443 -0.1458  0.5323
15440TIP3    H167735   1.143   5.535   3.277 -1.0976 -1.7759  1.2464
15440TIP3    H267736   1.232   5.593   3.386  0.3726 -0.0710 -0.7844
15441TIP3   OH267737   0.351   6.628   0.239 -0.1408 -0.4004 -0.4462
15441TIP3    H167738   0.347   6.565   0.166  2.4036 -1.0502 -0.1007
15441TIP3    H267739   0.359   6.573   0.317 -1.4394  0.3327  0.2418
15442TIP3   OH267740   5.835   2.432  16.091  0.7106  0.2796  0.2543
15442TIP3    H167741   5.930   2.421  16.095  0.6334 -0.0508  1.5082
15442TIP3    H267742   5.800   2.355  16.136 -0.0539  1.8021  2.4481
15443TIP3   OH267743   0.324   2.515   3.353 -0.2640  0.0468  0.2009
15443TIP3    H167744   0.250   2.576   3.353  0.6980  1.2588 -1.3806
15443TIP3    H267745   0.316   2.466   3.271  1.3908  1.1358 -0.6721
15444TIP3   OH267746   5.805   5.925  16.382 -0.3263 -0.7212  0.4643
15444TIP3    H167747   5.713   5.952  16.375 -0.3081 -0.2916  1.5759
15444TIP3    H267748   5.803   5.846  16.436 -0.0254 -0.5941  0.6638
15445TIP3   OH267749   0.766   1.308  15.008 -0.3737  0.6324  0.1347
15445TIP3    H167750   0.840   1.311  15.068  1.0977 -1.2189 -1.4612
15445TIP3    H267751   0.767   1.393  14.964  1.2953  0.4089 -0.3474
15446TIP3   OH267752   0.526   2.780  13.310  0.0256  0.2175  0.1770
15446TIP3    H167753   0.594   2.714  13.319  0.2150  0.1863 -1.3198
15446TIP3    H267754   0.535   2.835  13.389  0.5946 -0.8436  0.8653
15447TIP3   OH267755   0.062   4.245   0.445  0.1416 -0.0968  0.1768
15447TIP3    H167756   0.091   4.289   0.365  1.3349  1.1848  1.2652
15447TIP3    H267757   0.143   4.216   0.487 -0.5348 -2.0727  0.2485
15448TIP3   OH267758   1.583   4.293  15.557 -0.4004  0.6898 -0.1094
15448TIP3    H167759   1.652   4.229  15.568 -0.3671  0.6731 -0.3985
15448TIP3    H267760   1.626   4.378  15.569 -0.5808  0.6418  0.9651
15449TIP3   OH267761   1.262   1.276   4.004  0.2054  0.3359  0.6059
15449TIP3    H167762   1.237   1.355   4.052  0.0501 -1.3480  3.5354
15449TIP3    H267763   1.330   1.235   4.059  1.6210 -0.6758 -1.7468
15450TIP3   OH267764   2.182   5.677  11.814 -0.3908  0.8035  0.5102
15450TIP3    H167765   2.110   5.662  11.876 -1.4392  0.1880 -0.7966
15450TIP3    H267766   2.139   5.716  11.737 -0.1059 -3.0278 -1.8639
15451TIP3   OH267767   1.239   5.718  12.729  0.1749 -0.6027  0.2986
15451TIP3    H167768   1.260   5.715  12.822  0.7082 -0.2936  0.1874
15451TIP3    H267769   1.238   5.811  12.707  3.0287 -0.7163 -0.6690
15452TIP3   OH267770   2.855   4.196   1.730 -0.1414 -0.3641 -0.6227
15452TIP3    H167771   2.826   4.115   1.772  0.2699  0.0935  0.5886
15452TIP3    H267772   2.781   4.224   1.677 -0.8099 -0.7857  0.0766
15453TIP3   OH267773   6.177   2.544  11.790  0.2029  0.0707 -0.4666
15453TIP3    H167774   6.208   2.619  11.840  1.0514 -1.5924  1.6364
15453TIP3    H267775   6.249   2.523  11.731  0.1112  0.6697 -0.7973
15454TIP3   OH267776   1.449   1.642   5.883  0.5529  0.1006 -0.6258
15454TIP3    H167777   1.528   1.589   5.891  1.5090  1.3219 -1.5250
15454TIP3    H267778   1.478   1.721   5.838 -0.9294  1.1374  0.1407
15455TIP3   OH267779   4.908   2.612  15.918  0.6483  0.0043 -0.4260
15455TIP3    H167780   4.836   2.623  15.981  1.0726  3.0544 -0.3172
15455TIP3    H267781   4.865   2.600  15.834  0.0192  0.5401 -0.1876
15456TIP3   OH267782   1.343   0.628   1.943 -0.1172 -0.0847  0.0501
15456TIP3    H167783   1.363   0.710   1.898 -0.2893  0.6903  1.3340
15456TIP3    H267784   1.346   0.561   1.875 -0.3636  1.0480 -1.0901
15457TIP3   OH267785   5.440   2.250  15.018  0.7532  0.5695 -0.2385
15457TIP3    H167786   5.475   2.239  15.107 -1.0298 -0.5254  0.3865
15457TIP3    H267787   5.345   2.253  15.030  0.4080 -0.7227 -2.1914
15458TIP3   OH267788   2.156   3.152  13.875  0.2745  0.0514  0.7360
15458TIP3    H167789   2.226   3.106  13.829 -0.6427 -1.3230  0.6430
15458TIP3    H267790   2.177   3.245  13.865  2.9732 -0.3211  2.1615
15459TIP3   OH267791   0.270   6.314  11.810 -0.7760  0.0936 -0.3575
15459TIP3    H167792   0.208   6.251  11.773  1.0029 -1.7919 -0.2856
15459TIP3    H267793   0.238   6.329  11.899 -0.8574 -1.3138 -0.1156
15460TIP3   OH267794   0.831   0.126   5.562  0.4731 -0.0511  0.4390
15460TIP3    H167795   0.759   0.182   5.532  0.2904 -1.4943 -2.1194
15460TIP3    H267796   0.834   0.140   5.656 -3.2783  0.0082  0.7288
15461TIP3   OH267797   5.068   4.958  17.191 -0.4435  0.2456  0.3037
15461TIP3    H167798   5.069   5.034  17.132 -1.9898  0.4844  0.5415
15461TIP3    H267799   5.158   4.927  17.191 -0.3752  0.1776 -2.2837
15462TIP3   OH267800   6.047   4.865  13.196  0.0397 -0.0949  0.0294
15462TIP3    H167801   6.108   4.843  13.267  0.2370  0.2201 -0.0381
15462TIP3    H267802   6.095   4.845  13.116  0.6129  1.4722 -0.0683
15463TIP3   OH267803   2.076   3.848  17.279 -0.0730  0.0791  0.4038
15463TIP3    H167804   2.118   3.781  17.333  0.7285  0.3957  0.1885
15463TIP3    H267805   1.990   3.812  17.258 -0.2242 -0.2434  1.5176
15464TIP3   OH267806   3.040   1.465  16.721 -0.4072  0.4712  0.3132
15464TIP3    H167807   3.050   1.540  16.662 -1.1248 -0.6668 -1.3202
15464TIP3    H267808   2.946   1.452  16.727 -0.2768 -0.7228 -0.0189
15465TIP3   OH267809   5.425   1.847  12.946 -0.2456 -0.0620 -0.5001
15465TIP3    H167810   5.417   1.940  12.964  1.2523 -0.3179  1.9031
15465TIP3    H267811   5.516   1.826  12.968 -0.1427 -1.8381 -2.3533
15466TIP3   OH267812   5.774   4.438   1.232  0.0019 -0.3143 -0.2055
15466TIP3    H167813   5.806   4.396   1.152 -0.8797 -1.4199  0.0117
15466TIP3    H267814   5.729   4.517   1.202 -1.0876 -1.1804 -0.8829
15467TIP3   OH267815   5.677   3.020   0.589 -0.0433  0.5409 -0.0056
15467TIP3    H167816   5.739   3.021   0.661  1.1051 -0.7049 -0.9268
15467TIP3    H267817   5.664   3.112   0.567  4.6722  0.9416 -2.3817
15468TIP3   OH267818   0.819   4.933  10.652 -0.0149 -0.2945  0.4533
15468TIP3    H167819   0.736   4.899  10.620  0.6852 -1.8429  0.1933
15468TIP3    H267820   0.795   5.006  10.709 -1.4411  0.5208 -1.1028
15469TIP3   OH267821   6.446   5.361  16.255 -0.0089  0.0323  0.4950
15469TIP3    H167822   6.417   5.399  16.338  0.6548  1.3205  0.1448
15469TIP3    H267823   6.396   5.408  16.189 -1.9165 -2.2154  0.1705
15470TIP3   OH267824   5.802   1.870   6.485  0.4080 -0.2789  0.3177
15470TIP3    H167825   5.773   1.807   6.552 -0.9096  1.0085  1.0224
15470TIP3    H267826   5.865   1.926   6.531  0.7258 -0.3847  0.0137
15471TIP3   OH267827   0.174   3.005  15.590 -0.2395  0.2149  0.3696
15471TIP3    H167828   0.241   3.060  15.630 -0.5060  1.1251 -0.3766
15471TIP3    H267829   0.139   3.059  15.519 -0.8816 -0.7302 -0.0533
15472TIP3   OH267830   1.673   0.291   4.700 -0.4380 -0.5840  0.2231
15472TIP3    H167831   1.768   0.306   4.695 -0.3058 -1.4866 -0.3150
15472TIP3    H267832   1.636   0.356   4.640 -0.1247 -0.4847  0.1317
15473TIP3   OH267833   4.467   4.156   3.167  0.2754 -0.4665 -0.4041
15473TIP3    H167834   4.375   4.151   3.141  0.2940  3.7919 -2.0935
15473TIP3    H267835   4.467   4.216   3.242  1.6085 -1.4646  0.4383
15474TIP3   OH267836   1.619   3.555   4.073  0.1074  0.3159  0.0736
15474TIP3    H167837   1.630   3.521   4.162 -0.1169  0.3642  0.1203
15474TIP3    H267838   1.539   3.607   4.077 -0.9200 -1.1314 -0.5887
15475TIP3   OH267839   4.529   2.627   0.849 -0.4749 -0.0961  0.2513
15475TIP3    H167840   4.484   2.553   0.891 -1.1757  0.6330  0.8028
15475TIP3    H267841   4.496   2.704   0.894  0.0664  0.5801 -0.4898
15476TIP3   OH267842   0.423   4.307  16.225 -0.3359  0.2970 -0.1264
15476TIP3    H167843   0.430   4.212  16.217 -2.5929  0.1500 -0.8697
15476TIP3    H267844   0.452   4.325  16.315  0.9240 -0.9555 -0.2349
15477TIP3   OH267845   0.109   2.710   4.483 -0.2710  0.0969  0.2916
15477TIP3    H167846   0.153   2.743   4.562  0.8156  2.2902 -1.1495
15477TIP3    H267847   0.151   2.756   4.411 -0.8079 -2.2735 -1.6836
15478TIP3   OH267848   3.310   1.433  16.138  0.2949 -0.5027 -0.2118
15478TIP3    H167849   3.365   1.383  16.198  0.5583 -0.2797 -0.2670
15478TIP3    H267850   3.355   1.517  16.129  0.4386 -0.6589 -0.9855
15479TIP3   OH267851   3.355   6.716   3.713 -0.1856  0.1177 -0.2258
15479TIP3    H167852   3.326   6.658   3.642 -0.5814  0.7345 -0.5792
15479TIP3    H267853   3.417   6.663   3.763 -0.5094 -0.5967 -0.5628
15480TIP3   OH267854   3.921   2.990  16.333 -0.5052  0.4890  0.7475
15480TIP3    H167855   3.934   3.085  16.327  0.9976  0.3016  0.6823
15480TIP3    H267856   3.933   2.958  16.244 -0.0254  0.1365  0.9349
15481TIP3   OH267857   1.641   0.607   3.936 -0.4068 -0.0068  0.4792
15481TIP3    H167858   1.703   0.606   3.863 -1.1840 -2.8982 -0.2662
15481TIP3    H267859   1.555   0.609   3.893 -0.8652 -0.7945  1.3360
15482TIP3   OH267860   6.688   2.649   4.823 -0.4734 -0.1488 -0.2475
15482TIP3    H167861   6.624   2.671   4.892 -1.3003 -0.8194 -0.7707
15482TIP3    H267862   6.639   2.661   4.741 -0.0923 -1.1655 -0.6394
15483TIP3   OH267863   1.866   0.177  16.884 -0.4169  0.7259  0.0614
15483TIP3    H167864   1.920   0.250  16.854 -0.2992  0.4219 -0.4830
15483TIP3    H267865   1.819   0.212  16.960 -0.9327  1.5931 -0.6405
15484TIP3   OH267866   4.984   0.347   4.371 -0.2913 -0.2524  0.0951
15484TIP3    H167867   4.994   0.442   4.364 -0.2965 -0.2913 -0.4570
15484TIP3    H267868   5.074   0.313   4.369 -0.0966 -0.1345  2.6046
15485TIP3   OH267869   5.626   4.920  11.438 -0.8760 -0.2725 -0.1456
15485TIP3    H167870   5.710   4.947  11.399  0.3581  0.2728  2.6133
15485TIP3    H267871   5.562   4.981  11.402  0.6473  1.8698  0.5900
15486TIP3   OH267872   4.659   5.898   0.490  0.5997 -0.0459 -0.8450
15486TIP3    H167873   4.742   5.855   0.466  0.6425  0.5373 -1.8352
15486TIP3    H267874   4.593   5.853   0.438  0.5293  0.4900 -1.2420
15487TIP3   OH267875   1.502   0.255  11.200  0.3636 -0.2282  0.4469
15487TIP3    H167876   1.483   0.164  11.225 -0.8689 -1.7077 -4.6244
15487TIP3    H267877   1.416   0.296  11.190  0.8799  1.2087  1.5269
15488TIP3   OH267878   0.036   5.641   5.157 -0.1651 -0.2394  0.2859
15488TIP3    H167879  -0.049   5.685   5.160  0.3523  0.9910 -1.4021
15488TIP3    H267880   0.033   5.590   5.075  1.1858  0.8963 -0.5109
15489TIP3   OH267881   5.450   2.876  15.919  0.1144 -0.7909  0.2788
15489TIP3    H167882   5.375   2.818  15.922 -1.3364  0.9591 -0.3511
15489TIP3    H267883   5.420   2.953  15.871  1.2491  1.4127  2.8023
15490TIP3   OH267884   4.436   4.723   3.414 -0.0946  0.0297 -0.0046
15490TIP3    H167885   4.509   4.705   3.354 -0.4754  1.1635 -0.8480
15490TIP3    H267886   4.433   4.647   3.472  0.2608 -1.1393 -1.4624
15491TIP3   OH267887   2.732   1.133   4.522  0.2162  0.6741  0.1286
15491TIP3    H167888   2.824   1.114   4.539  0.0262 -1.2190 -0.7113
15491TIP3    H267889   2.712   1.085   4.441 -1.0920  2.3987 -0.6483
15492TIP3   OH267890   5.076   5.251  13.089 -0.1482 -0.5411  0.5096
15492TIP3    H167891   5.159   5.293  13.113  0.7531 -0.9964 -1.6081
15492TIP3    H267892   5.081   5.163  13.126  0.5325 -0.7128  0.0318
15493TIP3   OH267893   6.624   4.152  13.009 -0.1195 -0.3482  0.0077
15493TIP3    H167894   6.666   4.151  13.095 -0.2590  0.4230  0.0863
15493TIP3    H267895   6.676   4.090  12.957  0.4798 -0.1902  0.4072
15494TIP3   OH267896   0.565   6.175   6.069 -0.2617 -0.6155 -0.5304
15494TIP3    H167897   0.587   6.094   6.114  1.6813 -0.7820 -1.6475
15494TIP3    H267898   0.599   6.245   6.126  1.6262 -0.7994 -1.3444
15495TIP3   OH267899   6.073   0.611  12.480  0.1722  0.4202  0.4078
15495TIP3    H167900   5.982   0.641  12.479 -0.1892 -0.6517 -0.3065
15495TIP3    H267901   6.124   0.690  12.466 -0.6839  0.9258  0.0531
15496TIP3   OH267902   4.144   4.014  11.409 -0.6720  0.7060  0.3942
15496TIP3    H167903   4.137   4.050  11.497 -1.0381 -0.4448  0.8513
15496TIP3    H267904   4.092   3.934  11.411 -0.6917  0.6629 -0.8723
15497TIP3   OH267905   2.366   4.709  14.238  0.3012 -0.7003 -0.1333
15497TIP3    H167906   2.357   4.634  14.180 -0.6142  0.0564 -1.0070
15497TIP3    H267907   2.318   4.780  14.194  1.2766  0.4492  0.5827
15498TIP3   OH267908   0.518   5.485  16.357 -0.1012  0.1633 -0.6779
15498TIP3    H167909   0.600   5.474  16.309  0.0630  0.3234 -0.4423
15498TIP3    H267910   0.462   5.534  16.297  0.3011  0.8640 -0.5020
15499TIP3   OH267911   2.170   5.365   0.581 -0.1054 -0.5591 -0.8891
15499TIP3    H167912   2.212   5.338   0.499 -1.2309  0.3386 -1.8055
15499TIP3    H267913   2.080   5.331   0.573 -0.5796  0.5954 -0.5914
15500TIP3   OH267914   5.790   2.467  17.260  0.5184 -0.2346  0.1013
15500TIP3    H167915   5.872   2.496  17.299  0.0578 -0.6068  1.3853
15500TIP3    H267916   5.723   2.522  17.300  0.2585  1.3880 -2.3164
15501TIP3   OH267917   4.692   3.416  12.393 -0.2632  0.1673  0.3254
15501TIP3    H167918   4.659   3.406  12.482 -3.2761  2.7871 -0.3064
15501TIP3    H267919   4.764   3.479  12.401 -0.8679  0.8149  0.9179
15502TIP3   OH267920   2.443   2.335  13.181 -0.1756 -0.1981  0.4129
15502TIP3    H167921   2.465   2.267  13.117 -0.3577 -0.9772  1.1630
15502TIP3    H267922   2.359   2.369  13.152 -0.6000 -1.0416  0.6214
15503TIP3   OH267923   0.401   0.808   3.996  0.3795 -0.2616 -0.0370
15503TIP3    H167924   0.435   0.743   3.934  0.3471 -1.6221  1.3099
15503TIP3    H267925   0.312   0.780   4.013  0.1091  0.5969 -0.0139
15504TIP3   OH267926   6.547   0.967   1.794  0.0406  0.1829 -0.2211
15504TIP3    H167927   6.454   0.982   1.810  0.3003  1.1018  0.5292
15504TIP3    H267928   6.551   0.880   1.755 -1.1002 -0.0232  0.0865
15505TIP3   OH267929   4.504   5.926  12.358 -0.0979 -0.0777 -0.0599
15505TIP3    H167930   4.510   5.935  12.263  1.1373 -0.6358 -0.0511
15505TIP3    H267931   4.477   5.835  12.372 -0.1887 -0.0230  0.1221
15506TIP3   OH267932   2.851   4.780  10.623  0.2365  0.3692 -0.2297
15506TIP3    H167933   2.945   4.796  10.636  0.2153  0.5939 -0.3516
15506TIP3    H267934   2.831   4.708  10.682  0.2603  1.0318  0.6084
15507TIP3   OH267935   2.145   0.393  16.495  0.5774 -0.3239 -0.3475
15507TIP3    H167936   2.061   0.350  16.506 -0.0913  0.8998 -0.4553
15507TIP3    H267937   2.198   0.364  16.570 -0.4071 -0.0620  0.4705
15508TIP3   OH267938   2.650   6.160  12.799  0.2805  0.4697 -0.3301
15508TIP3    H167939   2.704   6.239  12.793 -0.7153  1.3303  1.3160
15508TIP3    H267940   2.567   6.185  12.760  0.6401 -0.4754 -1.7671
15509TIP3   OH267941   3.020   0.314   4.599 -0.7241  0.3488 -0.5379
15509TIP3    H167942   3.105   0.350   4.621  0.2498 -0.7564 -2.2463
15509TIP3    H267943   2.983   0.375   4.535 -0.6147  0.1169 -0.8217
15510TIP3   OH267944   1.136   6.222  14.335  0.5096 -0.4141 -0.2526
15510TIP3    H167945   1.064   6.213  14.398  1.8021  0.2361  1.4035
15510TIP3    H267946   1.116   6.303  14.288 -0.6480 -1.0834 -0.9624
15511TIP3   OH267947   2.142   4.491   5.133 -0.3769 -0.1734 -0.2802
15511TIP3    H167948   2.051   4.502   5.105 -0.2091 -0.3560 -0.9191
15511TIP3    H267949   2.162   4.399   5.112 -0.6667 -0.7399  1.7071
15512TIP3   OH267950   4.021   0.760  12.555 -0.3474 -0.1318 -0.1789
15512TIP3    H167951   4.061   0.788  12.637 -2.0255 -0.7185  0.8865
15512TIP3    H267952   4.062   0.815  12.488 -0.0867  1.4848  1.2398
15513TIP3   OH267953   6.387   5.528  17.175 -0.5638  0.3450 -0.0902
15513TIP3    H167954   6.399   5.458  17.239  0.1373  0.2262 -0.3419
15513TIP3    H267955   6.307   5.505  17.129  0.0411 -0.6868 -0.6522
15514TIP3   OH267956   4.241   6.418  13.658  0.4572  0.2093 -0.3526
15514TIP3    H167957   4.164   6.413  13.715  0.7155  0.3609  0.0159
15514TIP3    H267958   4.210   6.387  13.573 -0.3101  1.3642 -0.5195
15515TIP3   OH267959   3.374   5.982  15.494 -0.0284 -0.0183  0.1811
15515TIP3    H167960   3.386   6.000  15.401  0.9573 -0.0528  0.2884
15515TIP3    H267961   3.368   5.887  15.500 -1.4965  0.0384  0.0197
15516TIP3   OH267962   3.508   1.741   0.309  0.1256 -0.5454  0.4047
15516TIP3    H167963   3.478   1.679   0.376 -0.2254 -1.5325 -0.6380
15516TIP3    H267964   3.456   1.820   0.324  0.7749 -0.3609  1.9369
15517TIP3   OH267965   2.580   4.666   0.797 -0.5416  0.7793  0.4693
15517TIP3    H167966   2.565   4.760   0.796 -2.8705  0.5150 -1.6701
15517TIP3    H267967   2.600   4.644   0.706 -1.3618 -0.9103  0.6557
15518TIP3   OH267968   0.405   0.449   1.890  0.0934 -0.2800  0.1791
15518TIP3    H167969   0.368   0.441   1.978  0.9573  1.3379  0.7399
15518TIP3    H267970   0.462   0.373   1.880 -0.8865 -1.0834  0.5549
15519TIP3   OH267971   5.289   2.347  12.922 -0.7755  0.3092  0.4680
15519TIP3    H167972   5.204   2.379  12.952 -1.6838  0.3226 -1.9124
15519TIP3    H267973   5.350   2.417  12.944 -2.1395  2.2463 -1.5056
15520TIP3   OH267974   0.684   5.330  13.767  0.3585 -0.2554 -1.0736
15520TIP3    H167975   0.723   5.287  13.843  1.9696  3.6055  0.5610
15520TIP3    H267976   0.693   5.267  13.696  2.1836 -2.6467  1.0996
15521TIP3   OH267977   3.712   2.011   4.803 -0.2789 -0.0537  0.6135
15521TIP3    H167978   3.657   2.033   4.728 -1.4765 -0.9584  1.1824
15521TIP3    H267979   3.719   1.916   4.801  1.5329  0.0660  0.4070
15522TIP3   OH267980   0.467   1.760  17.086 -0.1081 -0.5760  0.2906
15522TIP3    H167981   0.492   1.802  17.168 -1.6411  0.6341  0.1761
15522TIP3    H267982   0.540   1.701  17.066  0.9566  0.1859  1.7513
15523TIP3   OH267983   5.323   2.576   3.173  0.4900 -0.5725 -0.5663
15523TIP3    H167984   5.323   2.574   3.269  1.9795  0.4696 -0.5005
15523TIP3    H267985   5.291   2.490   3.147  0.2842 -0.9569  0.8708
15524TIP3   OH267986   0.218   1.151  15.649  0.4513  0.6405 -0.1944
15524TIP3    H167987   0.278   1.116  15.715  0.3530  0.5366 -0.1600
15524TIP3    H267988   0.227   1.246  15.657  1.5046  0.6236 -1.0051
15525TIP3   OH267989   2.939   5.926   3.397 -0.0270  0.0586  0.0810
15525TIP3    H167990   2.948   5.835   3.368  0.6998  0.3837 -0.7480
15525TIP3    H267991   2.874   5.922   3.467  0.1685 -1.1347  0.2205
15526TIP3   OH267992   2.754   3.811   4.865  0.0585  0.0313 -0.0576
15526TIP3    H167993   2.697   3.828   4.791 -0.6229  3.4001  1.0567
15526TIP3    H267994   2.718   3.732   4.906 -1.0496 -0.4462 -1.8424
15527TIP3   OH267995   2.989   0.386   2.507 -0.5638 -0.0808 -0.2442
15527TIP3    H167996   2.897   0.364   2.493  0.0280 -2.0054 -1.3507
15527TIP3    H267997   3.020   0.416   2.421  0.2163 -0.9552 -0.2866
15528TIP3   OH267998   2.177   1.374  12.124  0.2916  0.2639  0.4008
15528TIP3    H167999   2.200   1.290  12.086 -0.8392 -0.2863  0.9014
15528TIP3    H268000   2.130   1.420  12.054  0.7002  0.3974  0.2081
15529TIP3   OH268001   4.237   0.086  14.289 -0.0257 -0.3606 -0.0028
15529TIP3    H168002   4.176   0.020  14.257 -0.5805 -1.3127  2.7196
15529TIP3    H268003   4.316   0.074  14.237 -0.9248 -1.5461 -1.1677
15530TIP3   OH268004   1.189   5.714  11.166  0.5535  0.4802  0.3828
15530TIP3    H168005   1.158   5.624  11.178  0.5875  0.5054  0.6761
15530TIP3    H268006   1.230   5.736  11.250  0.3780  0.8377  0.3736
15531TIP3   OH268007   6.257   0.306  10.714 -0.5175 -0.3919  0.3862
15531TIP3    H168008   6.178   0.305  10.767 -1.3029 -1.8769 -0.7166
15531TIP3    H268009   6.231   0.349  10.633  0.0593 -0.0684  0.3654
15532TIP3   OH268010   6.545   0.958  14.941  0.5306 -0.3727 -0.5860
15532TIP3    H168011   6.507   1.043  14.961  0.6448 -0.7267  1.3585
15532TIP3    H268012   6.639   0.970  14.951  0.6134 -0.5194 -1.1601
15533TIP3   OH268013   6.109   2.478  11.317 -0.1862  0.5479 -0.0452
15533TIP3    H168014   6.196   2.506  11.345  1.1538 -2.0802 -1.2822
15533TIP3    H268015   6.075   2.553  11.269  2.0912  1.0846 -0.9650
15534TIP3   OH268016   5.600   3.450  11.968 -0.1017  0.1920  0.0502
15534TIP3    H168017   5.511   3.426  11.995 -0.1637  1.8958  1.5898
15534TIP3    H268018   5.654   3.374  11.989 -1.3500 -1.4983 -2.3476
15535TIP3   OH268019   4.401   0.887  11.673 -0.8924  0.0083 -0.4321
15535TIP3    H168020   4.403   0.814  11.611 -1.3616  0.6589 -1.2429
15535TIP3    H268021   4.484   0.933  11.658 -0.0065 -1.0318  0.9672
15536TIP3   OH268022   1.842   4.868   1.485  0.1478  0.2935 -0.4787
15536TIP3    H168023   1.840   4.803   1.556  1.6279 -0.0251 -0.6866
15536TIP3    H268024   1.890   4.942   1.521  0.5610  0.2928 -1.0112
15537TIP3   OH268025   2.699   1.347  11.015  0.6838  0.2468 -0.2585
15537TIP3    H168026   2.762   1.418  11.028  0.9447  0.1720 -1.0750
15537TIP3    H268027   2.753   1.270  10.997  0.3678  0.1065 -0.6089
15538TIP3   OH268028   5.085   4.871  14.292  0.3836 -0.3513  0.4182
15538TIP3    H168029   5.145   4.857  14.219  0.9248 -0.1996  0.8265
15538TIP3    H268030   5.141   4.898  14.365 -0.0025 -1.6191  1.2226
15539TIP3   OH268031   6.408   1.493   0.959  0.1534 -0.3137 -0.3255
15539TIP3    H168032   6.327   1.445   0.970  0.5324 -1.9019 -3.5501
15539TIP3    H268033   6.476   1.433   0.989  0.3231  0.1280  0.2018
15540TIP3   OH268034   4.248   6.243   0.519  0.3674  0.9231  0.6925
15540TIP3    H168035   4.301   6.281   0.590  1.2577  2.0700 -0.5343
15540TIP3    H268036   4.206   6.319   0.478 -0.5533  0.2194  0.3010
15541TIP3   OH268037   6.198   3.835   3.549  0.2671 -0.6438 -0.0169
15541TIP3    H168038   6.181   3.775   3.476  1.3179  0.9185 -1.6322
15541TIP3    H268039   6.206   3.921   3.507  2.1990  0.1304  1.7917
15542TIP3   OH268040   1.485   2.736  13.406  0.6276  0.4155 -0.2250
15542TIP3    H168041   1.512   2.826  13.429  0.6878  0.4131 -0.2848
15542TIP3    H268042   1.511   2.684  13.482 -0.0099  0.5537  0.0942
15543TIP3   OH268043   4.185   6.545  14.083  0.1566  0.1355 -0.8300
15543TIP3    H168044   4.128   6.477  14.118 -0.5697  1.3020  0.3575
15543TIP3    H268045   4.271   6.504  14.079  0.1792 -0.2899  1.8231
15544TIP3   OH268046   3.379   3.961  13.135 -0.2148 -0.0333  0.9975
15544TIP3    H168047   3.381   4.053  13.106 -0.1269  0.1643  1.6051
15544TIP3    H268048   3.463   3.949  13.180  0.2047 -0.7126  0.0462
15545TIP3   OH268049   5.028   4.851   3.284  0.4039 -0.0874 -0.1256
15545TIP3    H168050   4.974   4.835   3.361 -0.2150 -1.9323 -0.8786
15545TIP3    H268051   5.118   4.842   3.314  0.2137  0.3590  0.5943
15546TIP3   OH268052   3.133   0.124  16.837  0.1790  0.0529  0.0219
15546TIP3    H168053   3.054   0.097  16.790 -1.1355  2.1063  0.8927
15546TIP3    H268054   3.139   0.218  16.821 -0.1838  0.8423  3.5948
15547TIP3   OH268055   6.067   1.924   7.068 -0.0215  0.4703 -0.0243
15547TIP3    H168056   6.022   1.858   7.121  0.9479  0.9940  1.5283
15547TIP3    H268057   6.089   1.878   6.987 -1.8061 -0.2759 -0.1295
15548TIP3   OH268058   1.571   2.373  17.215 -0.1794 -0.1448  0.6170
15548TIP3    H168059   1.582   2.432  17.289  0.3335 -1.8488  1.9562
15548TIP3    H268060   1.660   2.350  17.189 -0.3787 -0.5484  0.2752
15549TIP3   OH268061   0.572   3.621   2.895 -0.0671  0.0824  0.3605
15549TIP3    H168062   0.526   3.705   2.896  1.7606  1.1504 -0.1925
15549TIP3    H268063   0.553   3.584   2.809  0.8467  0.9641 -0.2351
15550TIP3   OH268064   5.522   1.926   6.438  0.2696 -0.4717  0.1814
15550TIP3    H168065   5.617   1.911   6.438  0.4453  0.2614 -1.9819
15550TIP3    H268066   5.486   1.850   6.394 -0.0987 -0.4683  0.4704
15551TIP3   OH268067   6.515   1.569   2.978  0.1109 -0.1563  0.1018
15551TIP3    H168068   6.530   1.479   2.950 -1.4164  0.0631 -1.5998
15551TIP3    H268069   6.603   1.603   2.997  0.7392 -1.8852  0.4859
15552TIP3   OH268070   2.825   2.219   2.534  0.1354  0.0748  0.2148
15552TIP3    H168071   2.913   2.250   2.516 -0.0840 -0.1323 -1.3602
15552TIP3    H268072   2.826   2.127   2.507 -0.0317 -0.4866  2.0316
15553TIP3   OH268073   2.424   4.550   4.466 -0.0138  0.5346 -0.3570
15553TIP3    H168074   2.346   4.605   4.461 -1.0005 -0.7619  0.2716
15553TIP3    H268075   2.487   4.602   4.517 -1.3031  0.6978  1.1496
15554TIP3   OH268076   3.685   5.530  17.244 -0.3110  0.8349  0.0815
15554TIP3    H168077   3.621   5.601  17.236 -1.1746 -0.1221 -2.3386
15554TIP3    H268078   3.742   5.541  17.167  0.7766  0.0557  0.7509
15555TIP3   OH268079   5.462   4.227  10.476 -0.2924 -0.2448  0.3020
15555TIP3    H168080   5.400   4.161  10.444  0.6686 -1.0787  0.0980
15555TIP3    H268081   5.452   4.226  10.571 -1.4380  0.5053  0.2120
15556TIP3   OH268082   6.540   5.711  14.517  0.1665 -0.3768 -0.0040
15556TIP3    H168083   6.539   5.776  14.587 -1.9884  0.0040 -0.3243
15556TIP3    H268084   6.448   5.688  14.504  0.7905 -2.8199 -0.5416
15557TIP3   OH268085   3.957   2.316  15.784  0.4057  0.0480 -0.7563
15557TIP3    H168086   4.032   2.260  15.763  1.0048  0.4658  0.2054
15557TIP3    H268087   3.940   2.299  15.876 -2.1309 -1.7237 -1.4377
15558TIP3   OH268088   5.140   0.535  13.758 -0.0703  0.0519  0.4292
15558TIP3    H168089   5.227   0.504  13.786  1.4367  2.0874 -1.6557
15558TIP3    H268090   5.083   0.511  13.831  2.1264 -1.7428  1.7271
15559TIP3   OH268091   0.755   3.407  14.966  0.5786  0.1434  0.0729
15559TIP3    H168092   0.745   3.391  15.060  0.7330 -0.1759  0.0358
15559TIP3    H268093   0.741   3.322  14.925  0.5016  0.2838 -0.1948
15560TIP3   OH268094   4.759   0.063   6.433  0.2101  0.2247 -0.4798
15560TIP3    H168095   4.770   0.014   6.514 -0.8279  2.3833  1.0429
15560TIP3    H268096   4.667   0.054   6.411 -0.4435  2.7877  0.8075
15561TIP3   OH268097   1.712   0.738  14.617  0.1164 -0.0053  0.3168
15561TIP3    H168098   1.740   0.830  14.610  2.1198 -0.3613  2.4985
15561TIP3    H268099   1.762   0.693  14.549  2.2678 -0.0177  1.7763
15562TIP3   OH268100   3.831   1.159  14.093 -0.1213  0.4028  0.4428
15562TIP3    H168101   3.783   1.083  14.127 -0.8430  1.6280  2.3726
15562TIP3    H268102   3.767   1.207  14.041 -0.3131  0.7816  1.0145
15563TIP3   OH268103   3.623   3.959  13.275 -0.1396  0.2246 -0.3185
15563TIP3    H168104   3.668   4.036  13.310  1.1903 -0.5973 -0.1442
15563TIP3    H268105   3.581   3.919  13.351  1.2657 -0.5781  0.0715
15564TIP3   OH268106   1.646   1.602   3.292 -0.2388 -0.2310  0.0836
15564TIP3    H168107   1.554   1.613   3.317 -0.2951 -0.2582 -0.1156
15564TIP3    H268108   1.695   1.652   3.358 -0.2855 -1.6802  1.2963
15565TIP3   OH268109   6.687   5.652  15.145  0.0940 -0.0882 -0.0888
15565TIP3    H168110   6.678   5.743  15.115  0.2985 -0.0679 -0.0952
15565TIP3    H268111   6.620   5.641  15.212 -0.5342 -0.2069 -0.7297
15566TIP3   OH268112   2.614   4.407  16.980  0.0388  0.3078  0.0026
15566TIP3    H168113   2.556   4.441  17.047 -1.4455 -0.2676 -0.9497
15566TIP3    H268114   2.570   4.328  16.948  1.2071  0.0165 -0.9470
15567TIP3   OH268115   3.022   4.981  11.701  0.2893  0.1240 -0.1545
15567TIP3    H168116   3.080   4.908  11.678 -0.4859 -1.1676  1.7671
15567TIP3    H268117   3.077   5.041  11.752  0.1587 -0.7290  1.0221
15568TIP3   OH268118   3.655   0.995   0.372  0.1636  0.2958 -0.4304
15568TIP3    H168119   3.716   0.921   0.375 -0.5652 -0.3017  0.0161
15568TIP3    H268120   3.582   0.969   0.429 -0.1557  1.3165 -0.3413
15569TIP3   OH268121   4.739   5.894   2.304 -0.0305 -0.0846 -0.0932
15569TIP3    H168122   4.650   5.911   2.273 -0.3521 -1.0428  0.2569
15569TIP3    H268123   4.752   5.956   2.375 -1.2351 -1.3273  1.2834
15570TIP3   OH268124   1.687   0.439  16.446  0.4435 -0.3285 -0.1827
15570TIP3    H168125   1.681   0.471  16.356  1.3131 -1.1440 -0.5536
15570TIP3    H268126   1.680   0.344  16.438  0.1871 -0.3822  0.6468
15571TIP3   OH268127   3.392   4.843   4.799  0.7458 -0.0068 -0.6480
15571TIP3    H168128   3.301   4.854   4.772  0.2417 -2.0195  0.0691
15571TIP3    H268129   3.433   4.927   4.780 -1.5450  1.3788  0.1875
15572TIP3   OH268130   4.326   4.441   1.398 -0.2489  0.2918 -0.1096
15572TIP3    H168131   4.254   4.394   1.355 -0.0582  1.3130 -1.6551
15572TIP3    H268132   4.381   4.373   1.434  0.4695 -0.8133 -3.0076
15573TIP3   OH268133   3.655   2.221  16.422 -0.4116 -0.3091 -0.3735
15573TIP3    H168134   3.748   2.243  16.423 -0.5411  0.2460 -0.1722
15573TIP3    H268135   3.635   2.196  16.512 -0.7150  0.7145 -0.1415
15574TIP3   OH268136   0.352   2.146   1.224 -0.0717  0.0087  0.4176
15574TIP3    H168137   0.366   2.215   1.289  0.3867  0.4586 -0.1503
15574TIP3    H268138   0.440   2.120   1.197 -0.2486 -0.6482  0.4606
15575TIP3   OH268139   6.289   0.829   0.871 -0.1423  0.4210 -0.0200
15575TIP3    H168140   6.231   0.805   0.944  0.2193 -1.9093 -0.4258
15575TIP3    H268141   6.251   0.786   0.795  1.2453  0.1287 -0.5851
15576TIP3   OH268142   2.957   2.883  15.126 -0.2821  0.3363  0.2572
15576TIP3    H168143   2.921   2.796  15.108 -0.4264  0.6076 -0.7969
15576TIP3    H268144   3.051   2.873  15.110 -0.3495  0.4667 -0.2199
15577TIP3   OH268145   3.852   2.351   3.272 -0.0653 -0.0309  0.0142
15577TIP3    H168146   3.895   2.293   3.336  0.6272  0.5047  0.0420
15577TIP3    H268147   3.850   2.300   3.191 -1.5191 -0.9629  0.6015
15578TIP3   OH268148   1.434   0.121  13.192 -0.3044 -0.3219 -0.0323
15578TIP3    H168149   1.451   0.120  13.286  0.9929 -1.4194 -0.2497
15578TIP3    H268150   1.338   0.121  13.185 -0.4598  1.5961  1.2539
15579TIP3   OH268151   4.252   6.698  16.646  0.1844  0.2675  0.1702
15579TIP3    H168152   4.221   6.677  16.558  0.5769  0.9555 -0.1402
15579TIP3    H268153   4.260   6.613  16.690  0.4923 -0.1215 -0.6272
15580TIP3   OH268154   1.778   6.404   0.899 -0.5142 -0.5282  0.1963
15580TIP3    H168155   1.834   6.471   0.860 -0.0635 -0.2283  1.3068
15580TIP3    H268156   1.839   6.341   0.937 -0.8838  0.1092  1.9442
15581TIP3   OH268157   3.927   5.994   5.999 -0.3513 -0.4562  0.1540
15581TIP3    H168158   3.910   6.084   6.029 -0.3129 -0.2853 -0.3355
15581TIP3    H268159   3.845   5.947   6.017 -1.3416  0.3075 -1.9842
15582TIP3   OH268160   3.818   5.440   6.308 -0.2672 -0.0145 -0.2286
15582TIP3    H168161   3.863   5.377   6.365 -1.1992  0.2049  0.7896
15582TIP3    H268162   3.727   5.411   6.307 -0.3463  0.2414 -1.2759
15583TIP3   OH268163   0.098   2.290   3.690 -0.2586 -0.0714  0.5634
15583TIP3    H168164   0.093   2.382   3.664 -1.4851 -0.3163 -0.1410
15583TIP3    H268165   0.014   2.273   3.732 -0.5531 -1.1843 -0.4178
15584TIP3   OH268166   2.144   6.189  15.765 -0.3807  0.5392 -0.0527
15584TIP3    H168167   2.134   6.258  15.699 -1.2032  0.0774 -0.4369
15584TIP3    H268168   2.054   6.162  15.785 -0.0761 -1.6537 -1.2596
15585TIP3   OH268169   1.431   1.881  11.747 -0.0669  0.1365 -0.8626
15585TIP3    H168170   1.344   1.844  11.731 -0.3982  1.2529 -1.8191
15585TIP3    H268171   1.452   1.929  11.666  1.7034 -0.5952 -0.8822
15586TIP3   OH268172   0.747   2.389   4.046 -0.5628 -0.0981  0.0269
15586TIP3    H168173   0.818   2.346   3.999  0.0597  0.8454  0.0950
15586TIP3    H268174   0.746   2.347   4.132  0.6149  0.6073  0.4043
15587TIP3   OH268175   0.745   3.972  15.579 -1.0176 -0.3239  0.5039
15587TIP3    H168176   0.779   3.958  15.667  0.3676  2.1614  0.4737
15587TIP3    H268177   0.823   3.992  15.527 -1.6060 -3.1844 -1.6900
15588TIP3   OH268178   4.618   4.211  17.215  0.2748  0.0775 -0.1297
15588TIP3    H168179   4.664   4.156  17.152  1.9359  0.1616  0.9287
15588TIP3    H268180   4.596   4.291  17.167  2.5980  0.6600 -0.3574
15589TIP3   OH268181   5.320   4.639  15.030  0.0204 -0.3037  0.3587
15589TIP3    H168182   5.408   4.671  15.008 -0.4296 -0.0815 -1.3168
15589TIP3    H268183   5.326   4.609  15.120  1.4934  0.8704  0.6785
15590TIP3   OH268184   0.059   3.892   2.339  0.6123 -0.5282 -0.4000
15590TIP3    H168185   0.036   3.984   2.330 -2.1841 -1.1586 -0.5276
15590TIP3    H268186  -0.011   3.845   2.296  1.0022 -2.7983  1.2287
15591TIP3   OH268187   0.363   4.274   3.829  0.6453 -0.0048  0.2429
15591TIP3    H168188   0.447   4.236   3.854  0.9336  0.1073 -0.5180
15591TIP3    H268189   0.299   4.205   3.845  0.9942 -0.3729  0.0550
15592TIP3   OH268190   3.627   0.128  14.524 -0.0367 -0.2130  0.2345
15592TIP3    H168191   3.556   0.157  14.468 -0.2224 -2.4001 -0.7577
15592TIP3    H268192   3.706   0.159  14.480 -0.2237  3.2563  1.9310
15593TIP3   OH268193   4.391   5.660   0.570  0.2388  0.3019  0.3351
15593TIP3    H168194   4.333   5.593   0.534  0.1276 -0.4672  1.8977
15593TIP3    H268195   4.392   5.728   0.502  0.2368 -1.1697 -1.2162
15594TIP3   OH268196   1.478   2.107   5.816  0.0994 -0.5908 -0.4348
15594TIP3    H168197   1.415   2.098   5.888 -0.5132  0.3275 -0.8406
15594TIP3    H268198   1.426   2.092   5.737  1.0779 -3.2545 -0.6747
15595TIP3   OH268199   5.785   5.481   1.130 -0.1251 -0.1411 -0.1360
15595TIP3    H168200   5.748   5.554   1.180  0.0153 -1.9235  2.8601
15595TIP3    H268201   5.716   5.455   1.070 -1.1784  0.7754  0.6369
15596TIP3   OH268202   5.693   1.771   3.276  0.0891 -0.2751  0.5835
15596TIP3    H168203   5.631   1.727   3.219  0.1174  0.3612  0.0590
15596TIP3    H268204   5.775   1.775   3.226 -0.3449  1.8234 -0.0571
15597TIP3   OH268205   2.474   0.289   3.831  0.1987  0.6093 -0.4666
15597TIP3    H168206   2.436   0.244   3.907  0.2521  1.4830  0.1018
15597TIP3    H268207   2.553   0.239   3.810 -0.5231 -0.4251 -0.8039
15598TIP3   OH268208   0.366   2.848   0.999  0.1788 -0.1569  0.6601
15598TIP3    H168209   0.397   2.757   1.005  0.1426 -0.2959 -0.9426
15598TIP3    H268210   0.430   2.892   0.943 -0.6063  0.4466  0.2201
15599TIP3   OH268211   5.805   6.447  14.703  0.6064 -0.4749 -0.7799
15599TIP3    H168212   5.741   6.458  14.773  0.4085  0.7819 -1.1236
15599TIP3    H268213   5.752   6.438  14.623  0.7988  1.7299 -1.2231
15600TIP3   OH268214   5.546   5.825   6.024 -0.4521  0.2689 -0.5922
15600TIP3    H168215   5.479   5.867   6.077  0.8336  0.7184  0.7222
15600TIP3    H268216   5.597   5.773   6.085  1.1971  0.9534 -1.3146
15601TIP3   OH268217   4.886   5.140   6.131 -0.3917 -0.0604  0.1051
15601TIP3    H168218   4.938   5.106   6.203  0.8642 -0.8250 -1.1257
15601TIP3    H268219   4.893   5.074   6.062 -1.1497  0.8740 -0.9077
15602TIP3   OH268220   6.312   4.776   5.977  0.5282  0.2880 -0.0798
15602TIP3    H168221   6.259   4.698   5.995 -0.1477  0.9459  0.8563
15602TIP3    H268222   6.344   4.804   6.062  0.9205  0.9360 -0.4286
15603TIP3   OH268223   2.510   0.791   6.027 -0.0648  0.0586  0.6072
15603TIP3    H168224   2.420   0.825   6.032 -0.2428 -0.2877 -0.1053
15603TIP3    H268225   2.531   0.766   6.117 -1.0204 -0.6912  0.6378
15604TIP3   OH268226   5.697   2.356  13.493 -0.1811 -0.6611  0.1956
15604TIP3    H168227   5.663   2.399  13.571 -1.7980  0.5724 -1.1107
15604TIP3    H268228   5.776   2.311  13.522  1.4989  2.9343  1.7801
15605TIP3   OH268229   0.397   4.693  16.710 -0.1225 -0.7334  0.0015
15605TIP3    H168230   0.483   4.654  16.724 -0.0707 -0.5953  0.0691
15605TIP3    H268231   0.339   4.618  16.696  0.5568 -0.7699 -3.4027
15606TIP3   OH268232   4.585   5.324  15.807  0.0746  0.3137  0.0137
15606TIP3    H168233   4.583   5.335  15.712  1.0430 -0.1873 -0.0782
15606TIP3    H268234   4.548   5.237  15.822 -1.1246  0.8341  0.1985
15607TIP3   OH268235   3.821   5.702   6.334  0.1055  0.0882 -0.3980
15607TIP3    H168236   3.883   5.718   6.405 -1.6495  0.4729  1.1244
15607TIP3    H268237   3.816   5.606   6.328 -1.1313 -0.0145  1.3726
15608TIP3   OH268238   5.641   6.113  12.527 -0.8377 -0.0263 -0.7077
15608TIP3    H168239   5.608   6.106  12.617 -0.0660  1.8686 -0.2259
15608TIP3    H268240   5.590   6.185  12.489  0.4575  0.7638 -0.9925
15609TIP3   OH268241   5.294   3.683   0.555  0.1438  0.3744  0.5560
15609TIP3    H168242   5.284   3.664   0.649 -0.7511  0.7851  0.5523
15609TIP3    H268243   5.296   3.779   0.551  2.6252  0.3916  0.3803
15610TIP3   OH268244   5.393   2.998   5.694 -0.1490 -0.4488  0.3617
15610TIP3    H168245   5.304   3.001   5.658  0.6646 -3.1810 -2.2470
15610TIP3    H268246   5.388   2.935   5.766 -0.3070 -0.7877  0.0591
15611TIP3   OH268247   2.465   2.008   0.351  0.1940  0.2982  0.2910
15611TIP3    H168248   2.439   2.033   0.440 -2.7176 -2.0567  0.2783
15611TIP3    H268249   2.544   2.059   0.333  0.9959  0.7535  4.2689
15612TIP3   OH268250   4.872   5.553   2.562  0.1066 -0.2925  0.3039
15612TIP3    H168251   4.869   5.571   2.468 -0.8315 -1.0935  0.1519
15612TIP3    H268252   4.781   5.530   2.585  0.4281 -0.6528  1.2891
15613TIP3   OH268253   0.018   3.681   1.350 -0.1420 -0.3224  0.7546
15613TIP3    H168254   0.070   3.637   1.418 -0.3969 -1.1761  0.4119
15613TIP3    H268255  -0.046   3.733   1.398 -0.8735 -1.5884  1.1873
15614TIP3   OH268256   6.151   0.834  14.284  0.2067 -0.6171 -0.5929
15614TIP3    H168257   6.156   0.823  14.189  0.9660  0.7586 -0.7447
15614TIP3    H268258   6.084   0.902  14.297 -1.5697 -2.3889  0.0313
15615TIP3   OH268259   3.548   1.708  15.648 -0.1685 -0.0358  0.0005
15615TIP3    H168260   3.637   1.723  15.613 -0.2958  0.2488 -0.2121
15615TIP3    H268261   3.501   1.789  15.627 -0.4605 -0.1602  0.1740
15616TIP3   OH268262   0.238   1.676  15.593 -0.1605 -0.2293  0.7606
15616TIP3    H168263   0.200   1.645  15.511 -0.7992 -1.3873  1.4626
15616TIP3    H268264   0.239   1.771  15.585 -0.5288 -0.3141 -0.4442
15617TIP3   OH268265   0.208   1.880   1.805 -0.2994 -0.2924  0.5691
15617TIP3    H168266   0.145   1.812   1.783 -0.7533  0.6454 -1.2244
15617TIP3    H268267   0.219   1.873   1.899 -0.7197 -2.4961  0.5092
15618TIP3   OH268268   1.426   0.049   3.565 -0.3785 -0.0583  0.5594
15618TIP3    H168269   1.479   0.035   3.486 -0.8186  1.4466 -0.0447
15618TIP3    H268270   1.478   0.011   3.636 -0.3219 -2.1580 -0.5229
15619TIP3   OH268271   2.974   0.284  12.005  0.2979  0.0549  0.4518
15619TIP3    H168272   2.944   0.374  12.011 -1.4771 -0.5507  1.8969
15619TIP3    H268273   2.915   0.243  11.941  0.7086 -0.2051  0.2380
15620TIP3   OH268274   5.179   3.840  13.537 -0.0169 -0.5991  0.3578
15620TIP3    H168275   5.165   3.934  13.525  0.3024 -0.6089 -0.1470
15620TIP3    H268276   5.274   3.831  13.548  0.2172 -1.0438 -1.6194
15621TIP3   OH268277   3.345   6.158   4.113 -0.1919 -0.3845  0.1115
15621TIP3    H168278   3.377   6.153   4.203  1.2116  0.0201 -0.3358
15621TIP3    H268279   3.251   6.145   4.120  0.1515 -2.5696  1.4008
15622TIP3   OH268280   2.255   2.162   6.138  0.1969 -0.0689 -0.1471
15622TIP3    H168281   2.347   2.138   6.135  0.2654  0.0885 -3.1182
15622TIP3    H268282   2.211   2.091   6.090 -1.3613 -0.5356  1.8642
15623TIP3   OH268283   2.299   0.060  13.277 -0.0075  0.5160  0.0317
15623TIP3    H168284   2.238   0.129  13.253  0.1191  0.8279  0.5836
15623TIP3    H268285   2.262  -0.020  13.239  1.2732  1.2616 -3.0957
15624TIP3   OH268286   1.454   3.044   4.915 -0.4300 -0.6173 -0.0091
15624TIP3    H168287   1.508   3.005   4.983 -0.3664 -0.1587  0.2079
15624TIP3    H268288   1.482   3.136   4.912 -0.6198 -0.5713 -0.4652
15625TIP3   OH268289   1.653   5.257  13.915  0.3178 -0.2935  0.0482
15625TIP3    H168290   1.560   5.275  13.908  0.7205  2.3002  0.3599
15625TIP3    H268291   1.683   5.251  13.824  0.4933  3.3780 -0.2992
15626TIP3   OH268292   4.461   6.648   0.283  0.0155  0.0505 -0.0512
15626TIP3    H168293   4.378   6.685   0.252 -0.7417 -0.4272  1.3102
15626TIP3    H268294   4.481   6.697   0.362  0.7400 -0.2381 -0.0498
15627TIP3   OH268295   5.380   1.160  15.977  0.0712  0.0234  0.0790
15627TIP3    H168296   5.447   1.092  15.975 -0.7047 -0.8302  1.3031
15627TIP3    H268297   5.401   1.211  16.056 -0.3097  0.1840  0.0762
15628TIP3   OH268298   4.616   1.939  11.235  0.0008 -0.6724 -0.4076
15628TIP3    H168299   4.688   1.996  11.207  1.7771 -0.8859  3.1747
15628TIP3    H268300   4.554   1.999  11.277  1.0068 -1.0762  1.7546
15629TIP3   OH268301   5.732   5.013  15.352 -0.1102 -0.5273  0.2818
15629TIP3    H168302   5.820   5.027  15.387 -0.2533 -1.1114  0.8974
15629TIP3    H268303   5.683   4.976  15.425 -0.9677  0.1185  0.0376
15630TIP3   OH268304   5.176   2.842   3.144  0.5820  0.5783  0.2835
15630TIP3    H168305   5.248   2.790   3.108  0.1378 -0.0868  0.3386
15630TIP3    H268306   5.099   2.813   3.095 -0.0852 -0.5517  1.9409
15631TIP3   OH268307   3.699   2.385   5.612 -0.2887 -0.1380 -0.6646
15631TIP3    H168308   3.768   2.443   5.644  0.0912 -0.4440 -0.9185
15631TIP3    H268309   3.711   2.385   5.517  0.9474 -2.1214 -0.5730
15632TIP3   OH268310   6.731   0.543   6.843  0.0206 -0.1934  1.0110
15632TIP3    H168311   6.716   0.464   6.894  1.5217 -0.0609  1.6881
15632TIP3    H268312   6.654   0.598   6.860 -1.8299 -2.0872 -0.7073
15633TIP3   OH268313   6.272   0.827  12.577 -0.4293 -0.3325  0.2726
15633TIP3    H168314   6.324   0.899  12.542  1.1431 -1.1389  0.8288
15633TIP3    H268315   6.334   0.754  12.584 -1.1260 -0.7785  2.8060
15634TIP3   OH268316   5.769   2.942   6.589 -0.9870 -0.9319  0.5717
15634TIP3    H168317   5.821   2.908   6.661  1.6179 -2.2169 -1.7112
15634TIP3    H268318   5.729   2.864   6.549  0.3036 -0.7396 -1.2412
15635TIP3   OH268319   1.324   2.673  13.758 -0.5687 -0.3918  0.3477
15635TIP3    H168320   1.311   2.583  13.788 -1.3734 -0.1852  0.6290
15635TIP3    H268321   1.377   2.664  13.678  0.7061 -1.0100  1.2309
15636TIP3   OH268322   5.283   0.554   0.374  0.1385  0.9380 -0.0448
15636TIP3    H168323   5.362   0.504   0.352  0.0938  1.3606 -1.2504
15636TIP3    H268324   5.259   0.524   0.462  1.1286  0.1534 -0.0249
15637TIP3   OH268325   5.877   3.364   0.500 -0.2059 -0.2337 -0.8697
15637TIP3    H168326   5.795   3.325   0.470 -1.3877  1.6295 -0.2363
15637TIP3    H268327   5.853   3.413   0.579  1.9995 -1.5215  0.7172
15638TIP3   OH268328   4.946   0.579  12.434 -0.4878 -0.1423  0.1617
15638TIP3    H168329   5.038   0.586  12.456 -0.0612 -1.3000 -1.0913
15638TIP3    H268330   4.933   0.486  12.414 -1.5383  0.2479 -1.1870
15639TIP3   OH268331   1.477   3.441  17.305  0.1587  0.3924  0.1828
15639TIP3    H168332   1.516   3.451  17.392  1.3306 -1.9223  0.0101
15639TIP3    H268333   1.483   3.528  17.266 -2.1707  2.0448  3.0317
15640TIP3   OH268334   4.136   3.486  12.041 -0.2363  0.2959 -0.0665
15640TIP3    H168335   4.213   3.453  12.088  0.8840  3.5746  0.6551
15640TIP3    H268336   4.064   3.478  12.103 -0.0740 -0.9357 -0.0145
15641TIP3   OH268337   1.316   1.494  13.331  0.0053  0.1468  0.5578
15641TIP3    H168338   1.299   1.572  13.383 -0.2048  0.2580  0.3261
15641TIP3    H268339   1.349   1.527  13.248 -3.4185  0.2409 -0.9343
15642TIP3   OH268340   5.675   0.454   0.746 -0.2898  0.2807  0.1365
15642TIP3    H168341   5.637   0.372   0.716 -0.3573  0.5722 -0.5987
15642TIP3    H268342   5.616   0.521   0.714 -1.4226  0.5504  2.5398
15643TIP3   OH268343   0.477   2.495   4.669  0.0182 -0.8980 -0.4578
15643TIP3    H168344   0.501   2.564   4.607  1.0529  1.1901  2.0648
15643TIP3    H268345   0.558   2.447   4.686  0.5433  0.5237  1.4576
15644TIP3   OH268346   6.343   4.852   2.220 -0.2635 -0.4189  0.0720
15644TIP3    H168347   6.320   4.825   2.131  0.1028 -2.7762  0.6411
15644TIP3    H268348   6.429   4.894   2.210 -1.2750  1.5894 -0.9657
15645TIP3   OH268349   0.414   6.489   5.203  0.3505  0.0540 -0.1917
15645TIP3    H168350   0.493   6.523   5.161  0.7660  1.0514  1.3299
15645TIP3    H268351   0.342   6.526   5.151  0.8466 -0.4446 -1.2742
15646TIP3   OH268352   0.465   6.212  12.328  0.2353  0.2741 -0.0898
15646TIP3    H168353   0.553   6.203  12.292 -0.4327 -0.0709 -1.7361
15646TIP3    H268354   0.417   6.135  12.296  0.2312 -1.6259  3.8058
15647TIP3   OH268355   3.251   6.625   2.654  0.7624  0.2703  0.4223
15647TIP3    H168356   3.218   6.542   2.621  0.6194  0.2829  0.5323
15647TIP3    H268357   3.241   6.618   2.749  1.5000  0.0899  0.4904
15648TIP3   OH268358   2.523   6.670   0.013 -0.1570 -0.5729 -0.6920
15648TIP3    H168359   2.432   6.640   0.007 -0.7136  0.9131 -0.2309
15648TIP3    H268360   2.561   6.619   0.084 -1.0810 -0.1831  0.0996
15649TIP3   OH268361   2.121   2.085  16.913 -0.5823 -0.0317 -0.0165
15649TIP3    H168362   2.100   1.994  16.935 -0.4761 -0.0415  0.0436
15649TIP3    H268363   2.036   2.127  16.898 -0.6075 -0.3592 -0.8927
15650TIP3   OH268364   5.882   6.378  15.155  0.4830  0.3320  0.0735
15650TIP3    H168365   5.940   6.448  15.124  0.8615 -0.2796 -0.6208
15650TIP3    H268366   5.932   6.298  15.144  0.6951  0.0697  2.4370
15651TIP3   OH268367   6.757   5.575  16.794  0.2072 -0.3065 -0.2614
15651TIP3    H168368   6.768   5.624  16.875 -0.7358 -2.1250  1.0390
15651TIP3    H268369   6.678   5.522  16.808  1.7182 -2.9775 -1.1426
15652TIP3   OH268370   0.016   3.133  13.933  0.0214 -0.0319 -0.2697
15652TIP3    H168371  -0.046   3.166  13.997 -1.2438 -0.4577 -1.2227
15652TIP3    H268372   0.014   3.196  13.861  1.5461  0.5315  0.1434
15653TIP3   OH268373   2.562   2.025   4.373  0.2180  0.4116  0.1300
15653TIP3    H168374   2.640   2.009   4.426 -1.0066 -1.0999  1.5852
15653TIP3    H268375   2.591   2.011   4.283  1.6424 -0.0254  0.6313
15654TIP3   OH268376   0.123   4.573   4.362 -0.4671 -0.2932 -0.6542
15654TIP3    H168377   0.143   4.653   4.411 -0.9386 -1.0777  0.8831
15654TIP3    H268378   0.207   4.528   4.355 -0.4969 -0.4866  0.0649
15655TIP3   OH268379   2.991   2.886  16.362 -0.3479 -0.4888  0.8053
15655TIP3    H168380   3.002   2.862  16.270 -0.9011  0.5904  0.4339
15655TIP3    H268381   2.944   2.970  16.360 -0.0979 -0.2855  2.0600
15656TIP3   OH268382   0.761   5.699   3.772 -0.7960  0.2317 -0.2733
15656TIP3    H168383   0.693   5.759   3.742 -1.9017 -1.1425 -0.6001
15656TIP3    H268384   0.716   5.641   3.834 -0.0382 -0.9845 -0.8306
15657TIP3   OH268385   0.593   0.425   0.028  0.3858 -0.2069  0.1383
15657TIP3    H168386   0.561   0.457   0.112 -0.2070 -2.1570  0.7291
15657TIP3    H268387   0.660   0.488   0.002 -0.1369  1.0039  1.5605
15658TIP3   OH268388   1.664   3.779  14.451 -0.4100  0.7721  0.0426
15658TIP3    H168389   1.702   3.802  14.536  0.6124  0.0796 -0.2181
15658TIP3    H268390   1.569   3.790  14.464 -0.2373  1.0923  1.1405
15659TIP3   OH268391   1.770   5.471  16.760 -0.3553  0.3111 -0.1075
15659TIP3    H168392   1.730   5.542  16.709  0.6777  0.1379 -1.2093
15659TIP3    H268393   1.768   5.395  16.701  1.9226  0.3998 -0.3959
15660TIP3   OH268394   0.913   1.803  12.599 -0.3730  0.3174  0.4176
15660TIP3    H168395   0.920   1.743  12.673  1.4047 -1.1748 -0.8704
15660TIP3    H268396   0.941   1.751  12.524 -2.1205  1.7618 -1.3397
15661TIP3   OH268397   4.637   3.537  17.090 -0.0068  0.2058  0.7653
15661TIP3    H168398   4.576   3.471  17.122 -0.5703  0.2117 -0.2463
15661TIP3    H268399   4.701   3.488  17.038 -1.1789  0.5438 -1.0979
15662TIP3   OH268400   2.721   6.385   5.169  0.1927  0.5183  0.0014
15662TIP3    H168401   2.776   6.403   5.245 -0.7145  0.2499  0.7503
15662TIP3    H268402   2.747   6.297   5.140  0.5558  0.6303 -0.0142
15663TIP3   OH268403   2.486   4.512  16.728 -0.4734  0.1612 -0.6664
15663TIP3    H168404   2.410   4.456  16.746 -0.8587  1.1808  1.1982
15663TIP3    H268405   2.455   4.575  16.663  0.3505 -2.4514 -3.8231
15664TIP3   OH268406   3.668   5.046  15.535  0.1593  0.1855 -0.0316
15664TIP3    H168407   3.622   4.991  15.471 -0.2712 -1.2751  1.4507
15664TIP3    H268408   3.684   5.128  15.489 -1.3884 -0.2890 -1.5369
15665TIP3   OH268409   1.722   0.484   2.850 -0.5123 -0.0621  0.3836
15665TIP3    H168410   1.724   0.419   2.781  0.4605 -0.1376  0.4662
15665TIP3    H268411   1.658   0.549   2.821 -0.6320 -0.4581 -0.2415
15666TIP3   OH268412   6.406   4.005  11.986  0.2996  0.0832  0.8208
15666TIP3    H168413   6.342   4.046  11.928 -2.2268 -1.9244  1.9594
15666TIP3    H268414   6.489   4.047  11.964 -0.8263  0.7540 -2.8753
15667TIP3   OH268415   0.653   0.468   2.984 -0.0533  0.2743 -0.6105
15667TIP3    H168416   0.590   0.533   2.954 -0.3895 -0.9275 -2.7560
15667TIP3    H268417   0.707   0.513   3.048 -4.4141  0.8227  3.1822
15668TIP3   OH268418   5.305   1.853  13.994 -0.0651  0.4913  0.5204
15668TIP3    H168419   5.288   1.946  13.977 -0.5630  0.8857  2.8244
15668TIP3    H268420   5.390   1.836  13.953 -0.6770  1.5085 -1.2978
15669TIP3   OH268421   2.086   4.391   1.121 -0.6486 -0.0187 -0.9700
15669TIP3    H168422   2.027   4.398   1.046 -1.7091  1.0669 -0.0876
15669TIP3    H268423   2.102   4.482   1.146 -0.5190 -0.3657  0.2563
15670TIP3   OH268424   0.026   4.894   4.872  0.3522  0.5633 -0.0122
15670TIP3    H168425   0.050   4.802   4.883  0.6714  0.3525 -1.9834
15670TIP3    H268426  -0.062   4.900   4.908  0.0678 -0.6876 -0.4250
15671TIP3   OH268427   6.596   3.921   4.606  0.1112  0.4259 -0.0772
15671TIP3    H168428   6.592   4.010   4.569  0.0589  0.1840 -0.6695
15671TIP3    H268429   6.639   3.869   4.538  0.3629  0.0459  0.3679
15672TIP3   OH268430   1.162   4.440  14.003 -0.2581 -0.4056  0.6159
15672TIP3    H168431   1.185   4.347  13.996  1.8730  0.1239 -0.3515
15672TIP3    H268432   1.193   4.465  14.090  1.0827 -0.1856  0.1107
15673TIP3   OH268433   6.566   5.045   3.705  0.4680  0.1711 -0.7022
15673TIP3    H168434   6.574   4.949   3.708  1.2611  0.0763 -3.1729
15673TIP3    H268435   6.656   5.076   3.710  0.3085  0.7037 -1.0697
15674TIP3   OH268436   4.786   3.540   4.726 -0.4477  0.1720  0.3945
15674TIP3    H168437   4.709   3.498   4.766  0.6595 -0.6531  1.7544
15674TIP3    H268438   4.860   3.505   4.775  0.6735  2.5209  0.5049
15675TIP3   OH268439   6.711   1.988  16.251  0.1086 -0.3771  0.2045
15675TIP3    H168440   6.623   1.951  16.253  0.5883 -1.6630 -0.8965
15675TIP3    H268441   6.726   2.012  16.160  1.3114 -1.3083  0.1191
15676TIP3   OH268442   0.340   3.398   4.051  0.3030 -0.1422 -0.0964
15676TIP3    H168443   0.314   3.373   3.962  2.0596 -0.5132 -0.5549
15676TIP3    H268444   0.344   3.315   4.099 -0.6351  0.0580  0.3364
15677TIP3   OH268445   2.766   5.032  15.129 -0.1510 -0.3402  0.9237
15677TIP3    H168446   2.791   4.946  15.098  2.7754  0.9025 -0.5609
15677TIP3    H268447   2.815   5.044  15.210  1.9056  0.9832 -0.4343
15678TIP3   OH268448   5.335   1.800   1.325  0.4439 -0.3788 -0.1368
15678TIP3    H168449   5.406   1.809   1.261 -0.5969 -1.1112 -1.4340
15678TIP3    H268450   5.287   1.883   1.318  0.6087 -0.2680  0.0434
15679TIP3   OH268451   0.770   3.772   2.586 -0.4455 -0.0486 -0.6140
15679TIP3    H168452   0.852   3.802   2.546  0.1491 -0.8345 -0.0379
15679TIP3    H268453   0.788   3.681   2.611 -1.5245 -0.2551 -0.5377
15680TIP3   OH268454   2.090   4.056   4.797  0.3013 -0.3185 -0.4408
15680TIP3    H168455   2.152   3.987   4.818 -0.6733 -1.0152  0.2294
15680TIP3    H268456   2.086   4.057   4.701  1.5671 -0.0330 -0.5146
15681TIP3   OH268457   3.381   4.641  15.832  0.2899 -0.0203  0.6256
15681TIP3    H168458   3.464   4.620  15.789 -0.4884 -0.6277 -0.6281
15681TIP3    H268459   3.318   4.580  15.794 -0.4474 -0.6218  2.6902
15682TIP3   OH268460   2.646   5.933  13.370 -0.0048 -0.2718  0.2304
15682TIP3    H168461   2.560   5.970  13.347 -1.2930 -1.7867  2.3116
15682TIP3    H268462   2.676   5.892  13.289 -1.1249  0.4578 -0.6013
15683TIP3   OH268463   5.848   0.339   2.518  0.5954 -0.5518 -0.3469
15683TIP3    H168464   5.904   0.272   2.557  2.2128  0.6433 -0.4969
15683TIP3    H268465   5.766   0.294   2.499  0.7959 -1.8969  1.6715
15684TIP3   OH268466   1.059   4.060  15.061  0.2393 -0.4395  0.1007
15684TIP3    H168467   1.033   3.969  15.075  1.7428 -1.0621 -0.8745
15684TIP3    H268468   1.115   4.081  15.136  1.6644 -1.0767 -0.7416
15685TIP3   OH268469   5.542   0.934  11.120  0.4640 -0.1061  0.0863
15685TIP3    H168470   5.451   0.918  11.093  0.2376 -0.0817  0.8046
15685TIP3    H268471   5.549   0.892  11.206  0.3496  2.1168  1.2679
15686TIP3   OH268472   3.757   2.498  11.424 -0.4023  0.0894 -0.3212
15686TIP3    H168473   3.743   2.403  11.420 -1.3934  0.1513  1.1470
15686TIP3    H268474   3.825   2.509  11.490 -0.2089  0.4073 -0.5712
15687TIP3   OH268475   1.924   0.531   3.130  0.0344 -0.3461  0.2807
15687TIP3    H168476   1.950   0.489   3.048 -0.3357  0.3931 -0.2333
15687TIP3    H268477   1.876   0.609   3.102  1.3425  0.8214  1.2070
15688TIP3   OH268478   2.964   0.993   0.536  0.1504  0.0526 -0.1120
15688TIP3    H168479   2.964   0.898   0.549  1.5575 -0.1420 -1.2666
15688TIP3    H268480   2.966   1.029   0.625 -2.3807 -0.9107  0.4195
15689TIP3   OH268481   4.159   3.526  13.736  0.2003  0.0154 -0.3376
15689TIP3    H168482   4.099   3.456  13.711  1.2982 -1.0783 -0.0162
15689TIP3    H268483   4.226   3.526  13.668 -0.7231  2.0331 -1.3636
15690TIP3   OH268484   0.946   4.626  13.955  0.4152  0.2859  0.2401
15690TIP3    H168485   0.973   4.606  13.865  0.1503 -1.8279  0.5825
15690TIP3    H268486   1.015   4.587  14.009 -2.0370 -3.3391  1.0695
15691TIP3   OH268487   0.321   4.159  12.490 -0.1641 -0.0282 -0.4925
15691TIP3    H168488   0.293   4.129  12.403  0.0651  2.4012 -1.4695
15691TIP3    H268489   0.376   4.235  12.472 -1.7486  1.7937  1.8327
15692TIP3   OH268490   4.821   3.766  12.175 -0.0248 -0.2614 -0.1259
15692TIP3    H168491   4.752   3.816  12.219  0.1704  0.3786 -0.5300
15692TIP3    H268492   4.902   3.799  12.215  0.0834 -0.5846 -0.0752
15693TIP3   OH268493   2.346   0.908  16.532 -0.3908 -0.3543 -0.8430
15693TIP3    H168494   2.388   0.945  16.609  2.0117 -1.4221 -1.5416
15693TIP3    H268495   2.321   0.820  16.558 -2.3145  0.2510 -0.4495
15694TIP3   OH268496   0.388   5.490   5.728  0.2790  0.3841 -0.7505
15694TIP3    H168497   0.380   5.543   5.807  2.5832 -0.8914  0.4433
15694TIP3    H268498   0.319   5.424   5.736  0.0418  0.6963 -0.1637
15695TIP3   OH268499   3.614   0.044   6.018 -0.3186 -0.0123  0.0775
15695TIP3    H168500   3.598  -0.027   6.081 -0.9661  0.0721  0.0206
15695TIP3    H268501   3.709   0.045   6.007 -0.3936 -2.9676 -2.3048
15696TIP3   OH268502   3.917   1.163   4.210  0.0265 -0.0484 -0.6852
15696TIP3    H168503   3.972   1.205   4.145  0.9553 -0.6858 -0.3313
15696TIP3    H268504   3.916   1.224   4.284  1.1381 -0.4902 -0.2823
15697TIP3   OH268505   2.742   3.181  10.971 -0.3242 -0.0894 -0.7579
15697TIP3    H168506   2.699   3.111  11.020  1.9131 -3.3277 -3.0244
15697TIP3    H268507   2.816   3.207  11.028  1.0035 -2.3151 -1.3346
15698TIP3   OH268508   1.584   0.955  11.149  0.6890 -0.7974  0.3872
15698TIP3    H168509   1.573   0.973  11.242  0.8616 -1.1886  0.4896
15698TIP3    H268510   1.570   0.860  11.142  0.5946 -0.7554  0.0034
15699TIP3   OH268511   0.014   5.612  14.169  0.6564 -0.5470  0.0796
15699TIP3    H168512  -0.057   5.662  14.128  0.8877  1.3704  1.8459
15699TIP3    H268513  -0.021   5.586  14.254  1.3371 -1.5105  0.0856
15700TIP3   OH268514   1.069   4.050   5.697 -0.3692  0.8998 -0.4113
15700TIP3    H168515   0.978   4.078   5.687 -1.0043 -0.8069  0.2041
15700TIP3    H268516   1.098   4.090   5.778 -0.6206  1.3317 -0.5318
15701TIP3   OH268517   5.586   0.540  12.689 -0.0447  0.0466 -0.1886
15701TIP3    H168518   5.648   0.560  12.759  2.2762 -1.0831 -1.8006
15701TIP3    H268519   5.555   0.625  12.660  0.5057  0.6278  0.8591
15702TIP3   OH268520   2.017   0.755  16.732  0.3300 -0.0297 -0.2726
15702TIP3    H168521   1.931   0.722  16.759  0.2948 -0.4650 -0.8851
15702TIP3    H268522   1.999   0.812  16.657  0.4729  0.7689  0.2874
15703TIP3   OH268523   6.011   2.094   1.723 -0.2548 -0.1891 -0.6328
15703TIP3    H168524   6.081   2.085   1.788 -0.8602  0.5515  0.1442
15703TIP3    H268525   5.932   2.111   1.775 -0.4265  2.3994 -1.6105
15704TIP3   OH268526   3.137   3.710  15.063 -0.1895  0.5929 -0.5772
15704TIP3    H168527   3.095   3.624  15.056  0.5710  0.0934  0.6879
15704TIP3    H268528   3.065   3.772  15.061 -0.7420 -0.0436 -1.6668
15705TIP3   OH268529   2.048   4.637  14.796 -0.7366 -0.4905 -0.5936
15705TIP3    H168530   2.097   4.602  14.871 -0.0203 -2.0952 -1.7452
15705TIP3    H268531   2.096   4.717  14.772 -1.0984  0.1634  0.7457
15706TIP3   OH268532   6.260   6.302  12.843 -0.3840 -0.0519 -0.5024
15706TIP3    H168533   6.329   6.259  12.895 -0.9742 -0.2723  0.1269
15706TIP3    H268534   6.231   6.375  12.898 -0.8788 -0.1653 -0.6085
15707TIP3   OH268535   2.774   2.626   4.052 -0.0643 -0.5641 -0.0274
15707TIP3    H168536   2.824   2.598   4.129  1.5705  1.0248 -0.4363
15707TIP3    H268537   2.828   2.599   3.977  0.4416  1.5318 -0.4717
15708TIP3   OH268538   0.282   4.294  15.261 -0.1434  0.6173 -0.1911
15708TIP3    H168539   0.263   4.200  15.255  0.0361  0.5131  0.8149
15708TIP3    H268540   0.377   4.299  15.258 -0.1007  0.6688  0.8963
15709TIP3   OH268541   4.581   5.159  10.807  0.4199  0.3365 -0.0271
15709TIP3    H168542   4.591   5.254  10.800 -1.5037  0.6089  0.3797
15709TIP3    H268543   4.620   5.124  10.727  1.0548  1.4566 -0.2277
15710TIP3   OH268544   2.307   2.328  14.155  0.6154  0.1802  0.3916
15710TIP3    H168545   2.388   2.295  14.116  0.6814  0.1372  0.5605
15710TIP3    H268546   2.286   2.407  14.106 -0.8156 -1.3293 -1.6155
15711TIP3   OH268547   2.777   5.235  14.943 -0.8271 -0.0258  0.1751
15711TIP3    H168548   2.694   5.281  14.959 -1.5531 -1.5060  0.8157
15711TIP3    H268549   2.774   5.159  15.000  0.1909 -1.0790 -1.1104
15712TIP3   OH268550   0.832   4.545  13.697  0.1874  0.1920 -0.2230
15712TIP3    H168551   0.793   4.463  13.729 -1.5020  0.0714 -2.3559
15712TIP3    H268552   0.908   4.516  13.646 -0.1089 -0.0089 -0.5530
15713TIP3   OH268553   1.366   1.769   1.599 -0.1119  0.3989 -0.0861
15713TIP3    H168554   1.426   1.807   1.535 -0.7093 -0.1820 -1.0111
15713TIP3    H268555   1.365   1.831   1.671  0.1405  1.3508 -0.8848
15714TIP3   OH268556   2.560   4.143   2.883 -1.0897 -0.0281 -0.5573
15714TIP3    H168557   2.650   4.176   2.885 -1.1475  0.1561 -0.8767
15714TIP3    H268558   2.569   4.049   2.873 -0.9106 -0.1986  0.9325
15715TIP3   OH268559   3.919   1.917   5.366 -0.1424 -0.1103  0.0799
15715TIP3    H168560   3.870   1.841   5.399 -0.6553  0.7407  1.3608
15715TIP3    H268561   3.929   1.900   5.272 -1.5073 -1.0801  0.0760
15716TIP3   OH268562   3.761   2.935   2.933  0.4211 -0.2239 -0.2125
15716TIP3    H168563   3.843   2.978   2.958  1.2561  0.4149 -3.4612
15716TIP3    H268564   3.783   2.841   2.935  0.8149 -0.1281  0.2060
15717TIP3   OH268565   6.099   0.497  16.629  0.0815  0.6294 -0.0004
15717TIP3    H168566   6.171   0.522  16.688 -0.2218  1.4448  0.0362
15717TIP3    H268567   6.122   0.409  16.601 -0.8417 -0.7200  3.0238
15718TIP3   OH268568   5.878   0.279   0.154 -0.4328 -0.3418  0.2387
15718TIP3    H168569   5.876   0.325   0.070 -0.3209 -1.1303 -0.2096
15718TIP3    H268570   5.856   0.346   0.219  1.4201  0.7415 -0.1977
15719TIP3   OH268571   5.279   3.313  13.430  0.7003 -0.1071 -0.1804
15719TIP3    H168572   5.292   3.370  13.506  1.4652 -0.3141 -0.1537
15719TIP3    H268573   5.349   3.249  13.436 -0.1848 -1.1073 -0.1729
15720TIP3   OH268574   1.136   5.044   4.704  0.1632 -0.1977  0.2239
15720TIP3    H168575   1.150   5.126   4.656 -0.3464  1.0971  2.1583
15720TIP3    H268576   1.127   4.978   4.636 -0.4630  1.5277 -1.4672
15721TIP3   OH268577   2.868   2.268  16.305 -0.1629 -0.3735  0.3782
15721TIP3    H168578   2.944   2.315  16.342  0.9227 -0.2288 -1.8752
15721TIP3    H268579   2.907   2.194  16.258 -1.1980  0.7134 -2.3591
15722TIP3   OH268580   6.156   4.057  14.345 -0.9359  0.3394  0.3828
15722TIP3    H168581   6.187   3.989  14.285 -0.7432 -0.3014  1.2013
15722TIP3    H268582   6.127   4.128  14.287  1.5531  0.7661 -0.4810
15723TIP3   OH268583   0.790   3.762   0.497 -0.0364 -0.0508 -0.2660
15723TIP3    H168584   0.764   3.748   0.588 -3.2344 -0.6981 -1.1548
15723TIP3    H268585   0.857   3.831   0.502 -1.8957  1.7859  2.4254
15724TIP3   OH268586   2.378   3.985  15.308 -0.4406 -0.1450 -0.3382
15724TIP3    H168587   2.307   4.011  15.250 -0.5803 -1.5868 -0.8478
15724TIP3    H268588   2.372   4.045  15.383 -1.2324  0.7153 -1.0774
15725TIP3   OH268589   5.087   6.472  12.736  0.6181 -0.4607 -0.0416
15725TIP3    H168590   5.017   6.462  12.800 -0.2977 -0.0791 -0.9557
15725TIP3    H268591   5.162   6.503  12.786 -0.0406 -0.3061  0.8590
15726TIP3   OH268592   5.245   1.064  13.500  0.2333 -0.5629  0.2570
15726TIP3    H168593   5.212   1.153  13.515  1.0137 -0.3507  0.7693
15726TIP3    H268594   5.167   1.011  13.487 -0.3002 -0.0018  1.0738
15727TIP3   OH268595   2.964   3.739   0.056 -0.5978  0.2379  0.0474
15727TIP3    H168596   3.057   3.720   0.050 -0.0004  3.1019 -1.6109
15727TIP3    H268597   2.930   3.721  -0.031 -1.0103  1.7416 -0.1216
15728TIP3   OH268598   2.452   3.605  15.985 -0.6986 -0.3159  0.2684
15728TIP3    H168599   2.379   3.544  15.992 -1.4937  0.4272 -1.0660
15728TIP3    H268600   2.418   3.676  15.930  0.1626  1.3641  1.8067
15729TIP3   OH268601   3.165   5.545  15.895 -0.5722 -0.5416  0.1599
15729TIP3    H168602   3.167   5.608  15.967  1.2640  0.2761 -0.5295
15729TIP3    H268603   3.074   5.517  15.890 -0.8853 -0.0652  2.3024
15730TIP3   OH268604   0.880   3.271   3.787 -0.0013  0.1958  0.1091
15730TIP3    H168605   0.865   3.271   3.881  1.6724  1.3692  0.4007
15730TIP3    H268606   0.810   3.325   3.751 -0.3264  0.1837  0.7208
15731TIP3   OH268607   2.349   1.685  11.997  0.1229 -0.0302  0.4645
15731TIP3    H168608   2.253   1.681  11.997  0.0236  1.0110 -1.4455
15731TIP3    H268609   2.370   1.748  12.066 -0.7112  1.2576 -0.4106
15732TIP3   OH268610   1.330   3.404  10.940  0.1825  0.0869 -0.1833
15732TIP3    H168611   1.384   3.415  10.862  0.9522 -0.8500  0.2019
15732TIP3    H268612   1.291   3.317  10.930  0.1147  0.0493  0.3703
15733TIP3   OH268613   3.564   3.010  12.519  0.0907  0.4692  0.1785
15733TIP3    H168614   3.573   2.968  12.605 -0.2918 -1.0665 -0.4939
15733TIP3    H268615   3.470   3.026  12.511 -0.0385 -0.4869 -0.4178
15734TIP3   OH268616   1.245   1.600   5.652 -0.9843  0.1016 -0.6360
15734TIP3    H168617   1.259   1.506   5.663 -1.2262 -0.2407 -2.7111
15734TIP3    H268618   1.198   1.627   5.731 -1.0063 -1.5342 -0.0489
15735TIP3   OH268619   0.404   3.944   0.619  0.4067  0.3857  0.0383
15735TIP3    H168620   0.464   3.970   0.548  1.5699 -0.1634  0.7894
15735TIP3    H268621   0.364   3.863   0.589  0.8324  0.2004 -0.0275
15736TIP3   OH268622   6.144   1.465   0.298 -0.0187 -0.0289 -0.2956
15736TIP3    H168623   6.183   1.382   0.327 -0.2348 -0.3108 -0.7962
15736TIP3    H268624   6.158   1.466   0.203 -0.6552  0.1743 -0.3909
15737TIP3   OH268625   5.172   2.393  16.071  0.1873  0.0499  1.0588
15737TIP3    H168626   5.248   2.378  16.126  0.7361  1.5776  0.7681
15737TIP3    H268627   5.144   2.482  16.092 -0.8531 -0.0926  0.3624
15738TIP3   OH268628   0.046   4.850   2.787 -0.0599  0.4847 -0.4165
15738TIP3    H168629   0.083   4.938   2.777  0.3190  0.1780 -1.9230
15738TIP3    H268630   0.013   4.848   2.877 -1.9901  2.9299 -0.9465
15739TIP3   OH268631   5.604   5.452   0.788  0.0876 -0.5463  0.8301
15739TIP3    H168632   5.658   5.384   0.747  0.2104  0.5312 -0.8985
15739TIP3    H268633   5.550   5.486   0.716  1.3139  2.4117  1.1702
15740TIP3   OH268634   5.729   3.234  17.140 -0.1256 -0.3297 -0.2679
15740TIP3    H168635   5.649   3.213  17.188  0.2001 -1.0183 -0.0186
15740TIP3    H268636   5.738   3.165  17.075  1.3845 -1.5069  1.0926
15741TIP3   OH268637   0.053   1.560  13.691 -0.5282 -0.3597 -0.4129
15741TIP3    H168638   0.081   1.607  13.612  1.0214  0.2700  0.4641
15741TIP3    H268639  -0.033   1.597  13.712 -0.7049 -0.1378 -1.4759
15742TIP3   OH268640   0.644   5.212  16.362  0.3351  0.5372  0.1000
15742TIP3    H168641   0.704   5.219  16.288  0.2153 -1.9523 -0.3348
15742TIP3    H268642   0.558   5.232  16.324  0.4860  0.9823 -0.0140
15743TIP3   OH268643   3.688   4.771   3.665 -0.1614 -0.4926  0.3774
15743TIP3    H168644   3.682   4.688   3.618 -1.6238 -0.0076 -0.3633
15743TIP3    H268645   3.641   4.757   3.747 -0.6019 -0.3407  0.1537
15744TIP3   OH268646   2.868   2.242   5.558  0.7486 -0.1898  0.6515
15744TIP3    H168647   2.806   2.218   5.490  0.8309 -0.0980  0.5447
15744TIP3    H268648   2.836   2.198   5.637  1.1975 -1.1021  0.3428
15745TIP3   OH268649   3.060   2.212  13.671  0.0498 -0.5569 -0.2476
15745TIP3    H168650   3.017   2.257  13.598 -0.2185  0.2490  0.4042
15745TIP3    H268651   3.009   2.235  13.748  1.2650 -0.0994  0.4437
15746TIP3   OH268652   0.259   1.052  11.859 -0.3132  0.5074  0.5273
15746TIP3    H168653   0.315   1.042  11.782 -2.2561  1.0848 -1.0474
15746TIP3    H268654   0.313   1.100  11.923  1.1786  0.4505 -0.6552
15747TIP3   OH268655   2.585   1.497  16.965  0.5144  0.4325  0.4509
15747TIP3    H168656   2.572   1.548  17.044  0.6644 -0.3863  1.0093
15747TIP3    H268657   2.524   1.424  16.972  0.6813  0.2351 -0.0773
15748TIP3   OH268658   3.532   1.620  13.204  0.0364  0.2824 -0.3316
15748TIP3    H168659   3.451   1.637  13.156  0.1710 -0.2038 -0.7379
15748TIP3    H268660   3.516   1.538  13.250  0.3704  0.0756 -0.5779
15749TIP3   OH268661   4.764   3.245  12.744  0.5578 -0.1945 -0.2971
15749TIP3    H168662   4.703   3.306  12.703 -0.7403 -1.0154  0.3432
15749TIP3    H268663   4.712   3.199  12.810  2.0056 -0.5559  0.6510
15750TIP3   OH268664   4.972   2.918  15.611 -0.1413  0.0933  0.0964
15750TIP3    H168665   5.006   2.836  15.648  0.7111  0.2560 -0.2981
15750TIP3    H268666   5.039   2.945  15.548 -0.6767  0.8093 -0.1742
15751TIP3   OH268667   4.952   2.432   2.211  0.0936  0.3831  0.3654
15751TIP3    H168668   5.047   2.422   2.219  0.3551  0.5787 -1.7059
15751TIP3    H268669   4.918   2.344   2.225  0.7339  0.0137 -0.2807
15752TIP3   OH268670   2.168   3.096  16.726  0.8831  0.0287  0.4272
15752TIP3    H168671   2.137   3.185  16.710 -1.0918 -0.6777 -0.0245
15752TIP3    H268672   2.246   3.087  16.672 -0.0722  0.8625 -1.1576
15753TIP3   OH268673   6.271   6.558  13.660 -0.1086 -0.0776 -0.0355
15753TIP3    H168674   6.191   6.549  13.712  0.3404 -2.3171  0.3715
15753TIP3    H268675   6.297   6.468  13.641  1.8195  0.6299 -0.9462
15754TIP3   OH268676   2.671   0.668  15.153 -0.3999 -0.3947 -0.4138
15754TIP3    H168677   2.759   0.661  15.116 -0.1856  0.0243  0.0058
15754TIP3    H268678   2.685   0.698  15.243 -0.8734 -1.8491  0.1875
15755TIP3   OH268679   3.438   0.882   2.838  0.1894  0.0177  0.3293
15755TIP3    H168680   3.421   0.807   2.895  2.1096  0.2412  1.2783
15755TIP3    H268681   3.532   0.896   2.844 -0.0376  2.1886 -0.2147
15756TIP3   OH268682   0.380   3.067   2.651  0.1406  0.0489 -0.1231
15756TIP3    H168683   0.309   3.003   2.661 -0.3371  0.7886  1.3793
15756TIP3    H268684   0.418   3.046   2.565 -0.2037 -2.0368  0.1797
15757TIP3   OH268685   1.467   3.777   0.222 -0.1691 -0.2696 -0.1061
15757TIP3    H168686   1.556   3.800   0.195  0.6353 -0.8792  1.8600
15757TIP3    H268687   1.415   3.786   0.142  1.9830 -1.7362 -1.7822
15758TIP3   OH268688   6.320   1.172   3.890  0.0832  0.4442  0.7813
15758TIP3    H168689   6.383   1.241   3.911  0.4965  0.1614  0.4981
15758TIP3    H268690   6.295   1.135   3.975  1.7869 -0.7301  0.8259
15759TIP3   OH268691   0.882   4.801   2.455 -0.4203 -0.0334  0.5877
15759TIP3    H168692   0.867   4.707   2.460 -2.0937  0.2706  2.1127
15759TIP3    H268693   0.855   4.826   2.367  1.6874 -1.1841 -0.4655
15760TIP3   OH268694   0.550   5.874   3.764 -0.2213  0.1329 -0.1137
15760TIP3    H168695   0.506   5.853   3.682 -1.6665  0.6843  0.4784
15760TIP3    H268696   0.490   5.842   3.832  0.5345  0.4710  0.7317
15761TIP3   OH268697   5.466   2.406   1.158  0.4056 -0.3836  0.2563
15761TIP3    H168698   5.464   2.497   1.128  1.4085 -0.2942  0.4407
15761TIP3    H268699   5.374   2.377   1.154  0.0206  0.7681  0.6309
15762TIP3   OH268700   0.158   6.058   0.629 -0.3050  0.1176 -0.1998
15762TIP3    H168701   0.073   6.018   0.650  1.0597 -2.5690  0.6944
15762TIP3    H268702   0.213   6.039   0.705  1.9159 -0.8586 -1.9226
15763TIP3   OH268703   2.252   2.286  11.667  0.0074 -0.1320 -0.4672
15763TIP3    H168704   2.238   2.366  11.718  0.8287 -0.6803  0.6586
15763TIP3    H268705   2.174   2.234  11.681  0.3511 -0.4021  0.4901
15764TIP3   OH268706   2.708   6.282   5.721  0.1334  0.0544 -0.8666
15764TIP3    H168707   2.726   6.345   5.652  0.7196  0.0605 -0.7149
15764TIP3    H268708   2.763   6.310   5.794  1.1917 -1.2307 -1.1485
15765TIP3   OH268709   3.116   6.285   3.557  0.3206  0.2865 -0.0220
15765TIP3    H168710   3.070   6.253   3.479  0.8941 -0.7475  0.0393
15765TIP3    H268711   3.191   6.334   3.523  1.4924 -1.5000 -0.1911
15766TIP3   OH268712   4.363   1.976   3.891  0.0745  0.0020 -0.1600
15766TIP3    H168713   4.278   1.960   3.934 -0.2909  1.7115 -0.1561
15766TIP3    H268714   4.381   2.068   3.910  2.1616 -0.4461  0.1906
15767TIP3   OH268715   5.705   6.539   1.785  0.4307 -0.1797  0.4737
15767TIP3    H168716   5.653   6.535   1.866  1.5448 -2.8606  1.1811
15767TIP3    H268717   5.794   6.558   1.815  0.6373  0.0145 -0.2529
15768TIP3   OH268718   4.431   3.577  12.379 -0.0233 -0.1704 -0.4852
15768TIP3    H168719   4.349   3.564  12.331 -0.4084  1.6026 -0.3674
15768TIP3    H268720   4.486   3.504  12.351 -1.6694 -1.4928 -0.4577
15769TIP3   OH268721   0.832   0.122  14.942  0.3402  0.1927  0.0056
15769TIP3    H168722   0.871   0.041  14.909  0.5865  0.1999  0.2735
15769TIP3    H268723   0.738   0.108  14.935  0.3692  0.5286 -1.5142
15770TIP3   OH268724   1.494   4.599   1.786 -0.2760 -0.0276 -0.5357
15770TIP3    H168725   1.429   4.646   1.838 -1.2656 -1.7814 -0.1135
15770TIP3    H268726   1.537   4.541   1.849  2.9365  2.2084 -0.4339
15771TIP3   OH268727   6.621   6.764  15.584  0.2110  0.7054  0.0870
15771TIP3    H168728   6.542   6.789  15.631 -0.9379  0.1924 -1.4852
15771TIP3    H268729   6.622   6.823  15.508 -0.4280 -1.3549 -1.6032
15772TIP3   OH268730   2.155   0.022   0.201 -0.2345  0.2609  0.8217
15772TIP3    H168731   2.105  -0.043   0.151  0.4966 -0.2457  0.7443
15772TIP3    H268732   2.197   0.076   0.135  1.2713 -0.8178  0.8416
15773TIP3   OH268733   1.596   2.936   2.589  0.2318  0.2430 -0.1335
15773TIP3    H168734   1.607   2.843   2.570 -2.1394  0.1434 -1.4034
15773TIP3    H268735   1.507   2.943   2.621 -0.5233  2.3641 -2.4417
15774TIP3   OH268736   3.937   3.551  13.058  0.1597  0.0212 -0.2923
15774TIP3    H168737   3.860   3.496  13.043  0.7579 -1.1585  0.8373
15774TIP3    H268738   3.902   3.627  13.105 -0.4016 -0.2588 -0.2392
15775TIP3   OH268739   4.292   2.320   2.606  0.1384 -0.1434  0.0617
15775TIP3    H168740   4.235   2.385   2.566 -0.1737 -1.8282 -2.4867
15775TIP3    H268741   4.380   2.357   2.598 -0.1105  0.3264 -0.6346
15776TIP3   OH268742   5.745   5.559  15.357  0.1391 -0.0242  0.0193
15776TIP3    H168743   5.732   5.470  15.389 -1.6377  0.4507  0.7317
15776TIP3    H268744   5.694   5.563  15.276 -0.2482  0.4831  0.2779
15777TIP3   OH268745   2.249   2.352   0.467 -0.3540 -0.0018 -0.4087
15777TIP3    H168746   2.217   2.438   0.440 -1.3388 -0.0261  0.6180
15777TIP3    H268747   2.184   2.291   0.433  0.3920 -0.3791 -1.2204
15778TIP3   OH268748   0.374   6.197   5.165 -0.0454 -0.2561 -0.6201
15778TIP3    H168749   0.388   6.138   5.239 -1.4715  0.5379  0.3385
15778TIP3    H268750   0.409   6.281   5.195 -1.3451  0.2659 -0.4998
15779TIP3   OH268751   2.473   4.281   5.075  0.6160  0.0570 -0.4638
15779TIP3    H168752   2.475   4.246   5.164 -0.7968 -0.2787 -0.5360
15779TIP3    H268753   2.500   4.373   5.085 -0.8599  0.4291  0.5509
15780TIP3   OH268754   3.067   4.078  14.107  0.1897  0.0320 -0.0048
15780TIP3    H168755   3.011   4.119  14.173 -1.3926 -0.4875 -0.9648
15780TIP3    H268756   3.014   4.078  14.027  0.7631 -2.2912 -0.4655
15781TIP3   OH268757   5.522   5.646  14.576 -0.3197 -0.1059 -0.0606
15781TIP3    H168758   5.552   5.597  14.653 -2.3937  0.0781  0.9081
15781TIP3    H268759   5.546   5.737  14.595 -0.3039 -0.1425  0.0973
15782TIP3   OH268760   1.191   0.543   3.257 -0.8278 -0.1191  0.5566
15782TIP3    H168761   1.102   0.558   3.289 -1.0535  0.9622 -0.5010
15782TIP3    H268762   1.240   0.515   3.334 -1.9359 -0.1007  1.2920
15783TIP3   OH268763   2.150   3.174   4.154  0.2213  0.0120 -0.2551
15783TIP3    H168764   2.239   3.141   4.153  0.6627  1.1469  0.3931
15783TIP3    H268765   2.095   3.096   4.165  1.2423 -0.4820  1.6471
15784TIP3   OH268766   2.625   5.545  12.272 -0.3090  0.2486 -0.4490
15784TIP3    H168767   2.706   5.593  12.286  0.9255 -1.5206 -1.1636
15784TIP3    H268768   2.638   5.499  12.189 -1.1850 -1.6925  0.4219
15785TIP3   OH268769   1.364   0.019   0.723  0.1340 -0.0398 -0.1527
15785TIP3    H168770   1.300  -0.040   0.684 -1.5341  0.5458  1.5757
15785TIP3    H268771   1.399  -0.029   0.798 -2.8073  1.7451  2.6042
15786TIP3   OH268772   4.995   4.971  14.911 -0.6127  0.1870  0.0812
15786TIP3    H168773   5.043   4.916  14.850  0.2398  1.6480 -0.6347
15786TIP3    H268774   5.022   4.940  14.998  1.1816  0.5530 -0.3018
15787TIP3   OH268775   5.996   2.484  13.206 -0.2812 -0.0430  0.4636
15787TIP3    H168776   5.934   2.545  13.167 -0.3311 -2.5408 -4.0034
15787TIP3    H268777   6.082   2.526  13.193 -0.4911  0.1546 -0.3482
15788TIP3   OH268778   6.171   6.353   5.309 -0.0065 -0.5667  0.0808
15788TIP3    H168779   6.076   6.358   5.298 -0.0115  0.2790  0.4347
15788TIP3    H268780   6.204   6.323   5.224 -0.4871  0.4525 -0.4769
15789TIP3   OH268781   3.952   3.994   2.475 -0.1367 -0.1531 -0.4046
15789TIP3    H168782   3.951   4.088   2.458  1.2315 -0.0071  0.1999
15789TIP3    H268783   3.972   3.987   2.569  0.4049 -1.0511 -0.5783
15790TIP3   OH268784   6.678   5.265   4.769 -0.8043 -0.0016 -0.1138
15790TIP3    H168785   6.682   5.275   4.864  2.1323  0.9303 -0.2505
15790TIP3    H268786   6.686   5.354   4.735 -1.7872 -0.3223 -1.2631
15791TIP3   OH268787   1.812   1.382  17.108  0.2438  0.3454 -0.2536
15791TIP3    H168788   1.733   1.436  17.115 -0.1022 -0.0300 -1.1193
15791TIP3    H268789   1.870   1.414  17.177 -0.3439  1.1736 -0.1373
15792TIP3   OH268790   4.280   1.206  10.937 -0.2763 -0.0366 -0.7806
15792TIP3    H168791   4.361   1.257  10.942 -0.4510  0.1290  1.2443
15792TIP3    H268792   4.273   1.181  10.845  1.2962  1.1928 -1.2836
15793TIP3   OH268793   4.737   0.510   4.281 -0.0557  0.5281  0.4424
15793TIP3    H168794   4.808   0.535   4.342 -0.9635  2.2423  0.8513
15793TIP3    H268795   4.681   0.587   4.277 -0.0106  0.5082 -2.6671
15794TIP3   OH268796   1.183   2.437  13.756 -0.4830 -0.1146 -0.6417
15794TIP3    H168797   1.149   2.516  13.715  1.3267  0.9887 -0.1348
15794TIP3    H268798   1.121   2.417  13.826  0.5081  2.6382  1.1622
15795TIP3   OH268799   2.773   3.974   0.705 -0.2825  0.7596 -0.3387
15795TIP3    H168800   2.703   4.031   0.736  0.9888  1.8078  0.7581
15795TIP3    H268801   2.830   3.962   0.782  0.3900 -0.5962 -1.0159
15796TIP3   OH268802   5.173   0.592  14.964 -0.1966 -0.2312  0.2029
15796TIP3    H168803   5.177   0.528  15.035 -1.9941 -1.5744 -0.8310
15796TIP3    H268804   5.211   0.548  14.889  1.3241  1.0436  0.1630
15797TIP3   OH268805   0.968   1.764   5.523 -0.3815 -0.4034  0.1728
15797TIP3    H168806   0.945   1.702   5.454  2.3427 -0.6049 -0.6861
15797TIP3    H268807   0.946   1.850   5.486  1.2623 -0.4858 -1.1419
15798TIP3   OH268808   1.045   3.261   4.175 -0.2840  0.0272  0.4093
15798TIP3    H168809   0.992   3.191   4.139 -0.3831 -0.1683  0.9296
15798TIP3    H268810   1.134   3.241   4.146 -0.7590  1.8780 -2.9327
15799TIP3   OH268811   6.149   1.390   5.550 -0.3720  0.6652 -0.5671
15799TIP3    H168812   6.140   1.468   5.606  0.5091  1.0313 -0.9128
15799TIP3    H268813   6.060   1.371   5.521 -0.5580  1.8268 -0.8275
15800TIP3   OH268814   1.727   0.032   0.442 -0.0296 -0.2697 -0.0356
15800TIP3    H168815   1.633   0.051   0.436  0.0212  0.3405  0.9335
15800TIP3    H268816   1.767   0.092   0.380 -0.2680 -0.5317 -0.4544
15801TIP3   OH268817   4.574   0.309   1.026 -0.1650  0.4578  0.3423
15801TIP3    H168818   4.622   0.336   1.104  0.9335 -0.5301  0.0286
15801TIP3    H268819   4.495   0.265   1.060  0.7856 -0.8475  0.9469
15802TIP3   OH268820   6.190   2.186  15.126 -0.4965  0.2108  0.0838
15802TIP3    H168821   6.178   2.176  15.032  2.2391  0.7569 -0.3988
15802TIP3    H268822   6.196   2.280  15.140  0.6142  0.0877  0.5484
15803TIP3   OH268823   2.714   2.992  15.542  0.2245  0.3464  0.2081
15803TIP3    H168824   2.800   2.972  15.578  0.6411 -0.6116 -1.2349
15803TIP3    H268825   2.668   2.908  15.541  0.3345  0.2578 -1.6762
15804TIP3   OH268826   5.524   5.230   2.851 -0.1060  0.2205  0.0596
15804TIP3    H168827   5.437   5.269   2.845 -0.7501 -0.5357  2.9887
15804TIP3    H268828   5.512   5.140   2.819 -0.0019  0.5507 -0.9603
15805TIP3   OH268829   5.939   5.163   5.084 -0.4551  0.1586  0.0850
15805TIP3    H168830   5.976   5.102   5.019 -0.6245  1.9773 -1.8251
15805TIP3    H268831   5.983   5.140   5.166  1.0757 -1.1154 -1.0180
15806TIP3   OH268832   1.970   1.228  15.513 -0.2025 -0.2122 -0.1263
15806TIP3    H168833   1.924   1.164  15.459 -1.0424  0.5746 -0.3746
15806TIP3    H268834   1.942   1.209  15.602  0.2444 -0.7405 -0.0905
15807TIP3   OH268835   6.495   3.738   1.767 -0.1386  0.5990 -0.0042
15807TIP3    H168836   6.430   3.764   1.832 -0.3925  0.6409 -0.2768
15807TIP3    H268837   6.444   3.707   1.692  0.0953 -2.4857  0.9747
15808TIP3   OH268838   1.257   3.558  16.677 -0.2742 -0.1600 -0.2273
15808TIP3    H168839   1.201   3.599  16.743 -2.7143 -1.1615 -1.5051
15808TIP3    H268840   1.244   3.612  16.599  0.6189 -0.4015 -0.5471
15809TIP3   OH268841   6.669   5.603   3.901 -1.0181 -0.6027 -0.3570
15809TIP3    H168842   6.635   5.613   3.990 -0.9448 -1.2314 -0.2535
15809TIP3    H268843   6.641   5.515   3.875 -0.1657 -0.8157 -0.5715
15810TIP3   OH268844   3.884   6.038   5.704  0.6301 -0.2240  0.4864
15810TIP3    H168845   3.797   6.065   5.735  0.0479 -1.1769 -0.2219
15810TIP3    H268846   3.922   5.992   5.779  0.2688 -0.3244  0.6135
15811TIP3   OH268847   1.227   1.533  15.141 -0.6347 -0.0586 -0.1351
15811TIP3    H168848   1.215   1.586  15.062 -0.8500 -0.7527 -0.5786
15811TIP3    H268849   1.251   1.447  15.109 -1.0679 -0.4463  0.5404
15812TIP3   OH268850   4.348   0.580  12.998 -0.6811 -0.7220  0.2412
15812TIP3    H168851   4.432   0.543  12.974 -0.2357 -0.3225  1.1632
15812TIP3    H268852   4.363   0.623  13.082 -0.8786  2.4235 -1.1799
15813TIP3   OH268853   3.731   4.995   3.287 -0.0057  0.1498 -0.3903
15813TIP3    H168854   3.636   4.995   3.296 -0.0401  0.8424 -0.7129
15813TIP3    H268855   3.753   5.084   3.259  0.4261 -0.8314 -3.5823
15814TIP3   OH268856   2.554   4.515   5.903 -0.2836 -0.3890 -0.0688
15814TIP3    H168857   2.474   4.564   5.924 -0.4643 -1.0657  0.8669
15814TIP3    H268858   2.565   4.455   5.976 -0.4166 -2.2053 -1.4587
15815TIP3   OH268859   5.451   6.008  16.628 -0.6458  0.0437 -0.3507
15815TIP3    H168860   5.408   6.012  16.543 -1.4326 -0.3933  0.0182
15815TIP3    H268861   5.486   6.096  16.641 -0.5929  0.1369 -1.0852
15816TIP3   OH268862   3.628   3.537   5.333 -0.6107  0.1275 -0.5786
15816TIP3    H168863   3.672   3.527   5.248  1.0170 -0.3518  0.2776
15816TIP3    H268864   3.675   3.608   5.376 -1.0797  0.0152  0.1360
15817TIP3   OH268865   2.231   0.906   2.949 -0.2202  0.0867 -0.4221
15817TIP3    H168866   2.283   0.964   3.005 -0.1820  0.1672 -0.5402
15817TIP3    H268867   2.176   0.857   3.009 -1.0716  1.0463 -0.4003
15818TIP3   OH268868   0.614   6.593   1.269  0.3675  0.1046 -0.1738
15818TIP3    H168869   0.580   6.584   1.358 -0.4749  0.6458 -0.4299
15818TIP3    H268870   0.611   6.687   1.251 -0.0076 -0.0551 -0.9790
15819TIP3   OH268871   4.690   4.993  17.222  0.3946 -0.3134 -0.2263
15819TIP3    H168872   4.653   4.919  17.271  0.2892 -0.1189 -0.0133
15819TIP3    H268873   4.619   5.020  17.163 -0.3014  0.9292  1.1289
15820TIP3   OH268874   0.810   1.169  16.749 -0.1287 -0.1008  0.0746
15820TIP3    H168875   0.868   1.125  16.687  1.4671  0.3598  1.1876
15820TIP3    H268876   0.758   1.229  16.695  0.0968 -0.8381 -1.0016
15821TIP3   OH268877   2.554   0.204  13.102  0.1970  0.1407 -0.0406
15821TIP3    H168878   2.556   0.177  13.010  1.0835  1.3108 -0.3983
15821TIP3    H268879   2.463   0.196  13.128  0.1232 -1.2922 -0.6812
15822TIP3   OH268880   3.855   5.708  10.707  0.3359  0.0653  0.7716
15822TIP3    H168881   3.814   5.773  10.764 -0.7109  0.2325 -0.1430
15822TIP3    H268882   3.841   5.740  10.618  2.3626  0.0486  0.3891
15823TIP3   OH268883   4.825   3.398   1.293 -0.1910  0.2442 -0.1519
15823TIP3    H168884   4.773   3.454   1.350 -0.6604  1.0295 -1.3055
15823TIP3    H268885   4.829   3.446   1.210  1.5713 -0.2508 -0.3931
15824TIP3   OH268886   0.028   3.700   0.103  0.2652  0.3331 -0.1817
15824TIP3    H168887   0.101   3.659   0.058  1.6028  1.1717  1.1173
15824TIP3    H268888   0.025   3.657   0.189 -1.3753 -0.3258 -0.5395
15825TIP3   OH268889   3.295   3.684   2.053 -0.2603 -0.3581 -0.1740
15825TIP3    H168890   3.296   3.610   1.991  1.9617 -1.1635  0.7347
15825TIP3    H268891   3.299   3.761   1.997 -3.5255 -0.7480 -1.1947
15826TIP3   OH268892   1.236   5.951   1.341 -0.3422 -0.0867  0.3368
15826TIP3    H168893   1.250   6.010   1.415  0.3409 -1.0226  0.9828
15826TIP3    H268894   1.313   5.893   1.343  0.1421  0.4384 -1.6530
15827TIP3   OH268895   4.321   3.401  13.242 -0.6319 -0.0551  0.0216
15827TIP3    H168896   4.338   3.314  13.208  0.5695  0.1770 -0.0349
15827TIP3    H268897   4.391   3.455  13.204 -1.9295  1.1469 -0.7425
15828TIP3   OH268898   2.564   0.527   0.195  0.2431 -0.3594 -0.0531
15828TIP3    H168899   2.647   0.552   0.156 -0.4400  0.3391 -1.1150
15828TIP3    H268900   2.518   0.610   0.209  0.1407 -0.6499  1.5336
15829TIP3   OH268901   2.934   6.272  13.835 -0.5613  0.7305 -0.2711
15829TIP3    H168902   2.861   6.220  13.800 -0.6250  1.3489 -1.0881
15829TIP3    H268903   3.007   6.253  13.776  0.3906 -0.9864  1.3496
15830TIP3   OH268904   5.565   0.224   0.600  0.8666  0.0457 -0.6272
15830TIP3    H168905   5.470   0.229   0.592  0.6713  0.4684  1.4508
15830TIP3    H268906   5.594   0.181   0.519 -1.2011 -1.2653 -0.7430
15831TIP3   OH268907   0.673   0.351   3.983  0.2551  0.3164  0.0145
15831TIP3    H168908   0.611   0.282   3.957 -0.6335  1.4451 -0.9821
15831TIP3    H268909   0.700   0.326   4.072  0.0392 -1.3513 -0.3527
15832TIP3   OH268910   1.402   4.248  13.868 -0.3916  0.5847 -0.7681
15832TIP3    H168911   1.445   4.240  13.953  0.2258  0.1070 -1.1109
15832TIP3    H268912   1.445   4.323  13.826  0.1177  0.1167 -1.1046
15833TIP3   OH268913   2.800   0.490  12.937 -0.1962  0.6001 -0.0463
15833TIP3    H168914   2.782   0.472  13.029  1.5018  1.4409  0.4882
15833TIP3    H268915   2.720   0.464  12.892 -0.7105 -0.7454  1.5418
15834TIP3   OH268916   0.485   4.060   0.385 -0.1124  0.3536  0.0545
15834TIP3    H168917   0.463   4.073   0.293  1.5285 -0.4246 -0.4759
15834TIP3    H268918   0.536   4.137   0.409 -0.7155  0.6574  0.3958
15835TIP3   OH268919   4.886   2.609  15.222  0.1387 -0.4300 -0.0580
15835TIP3    H168920   4.816   2.634  15.163 -0.1428 -0.2257  0.3622
15835TIP3    H268921   4.949   2.681  15.217 -0.3232  0.0259  0.5904
15836TIP3   OH268922   4.429   2.664   3.738 -0.3345 -0.6666  0.4040
15836TIP3    H168923   4.464   2.667   3.649  0.1946  1.0054  0.6375
15836TIP3    H268924   4.424   2.756   3.765 -2.5221 -0.9982  1.3268
15837TIP3   OH268925   3.877   1.924  17.196 -0.6205  0.7327  0.2489
15837TIP3    H168926   3.905   1.832  17.196 -1.0990  0.4834  3.6134
15837TIP3    H268927   3.956   1.973  17.216 -0.7254  0.9147  0.2143
15838TIP3   OH268928   2.753   5.941   2.591 -0.4223  0.4927 -0.3386
15838TIP3    H168929   2.677   5.894   2.556 -0.1660  1.3803 -2.2293
15838TIP3    H268930   2.730   5.960   2.682 -2.2685  0.3299 -0.7292
15839TIP3   OH268931   4.515   4.086   2.142  0.2286 -0.3996 -0.4289
15839TIP3    H168932   4.508   4.017   2.208 -0.2450  1.2432  1.3675
15839TIP3    H268933   4.608   4.110   2.143  0.3259 -0.7634 -0.7793
15840TIP3   OH268934   4.783   2.278   3.400  0.2158 -0.2854  0.0866
15840TIP3    H168935   4.739   2.271   3.316  0.3080 -1.0075  0.0943
15840TIP3    H268936   4.786   2.372   3.418 -1.6047 -0.2127  0.2318
15841TIP3   OH268937   5.710   3.782  13.394 -0.4807  0.4207  0.3843
15841TIP3    H168938   5.786   3.740  13.434 -1.0418 -0.2399  0.7749
15841TIP3    H268939   5.654   3.710  13.366 -0.8163  0.8962 -0.1965
15842TIP3   OH268940   3.653   1.828   5.455 -0.3483  0.2680  0.3868
15842TIP3    H168941   3.657   1.917   5.492 -0.2884  0.0833  0.8304
15842TIP3    H268942   3.573   1.791   5.491 -1.3240  0.7411 -1.1940
15843TIP3   OH268943   4.171   3.216  17.199 -0.0580  0.4260  0.1129
15843TIP3    H168944   4.226   3.217  17.277 -1.4405  0.0284  1.1185
15843TIP3    H268945   4.211   3.281  17.141  2.0596 -0.5626  0.3735
15844TIP3   OH268946   0.374   5.537  14.123  0.4039  0.4458  0.4092
15844TIP3    H168947   0.389   5.626  14.090  1.0349  0.6904  1.3319
15844TIP3    H268948   0.400   5.480  14.051 -0.5969  1.0058 -0.4252
15845TIP3   OH268949   3.950   3.228   3.993  0.3167 -0.3140 -0.3801
15845TIP3    H168950   3.952   3.289   3.920 -1.6693  0.3230  0.0135
15845TIP3    H268951   3.950   3.284   4.071  0.1888 -0.8734  0.0313
15846TIP3   OH268952   2.055   2.986   3.302 -0.1281 -0.3667 -0.7164
15846TIP3    H168953   2.034   3.045   3.374  2.0291 -0.3999  0.0150
15846TIP3    H268954   2.112   3.037   3.244 -0.3037 -0.9422 -1.4211
15847TIP3   OH268955   6.497   0.682   5.961 -0.2011 -0.2988 -0.0769
15847TIP3    H168956   6.418   0.632   5.941 -0.1399  0.0484 -1.2732
15847TIP3    H268957   6.484   0.712   6.051 -1.1656 -0.7340 -0.0564
15848TIP3   OH268958   0.606   2.317  16.097 -0.1732  0.3304 -0.3132
15848TIP3    H168959   0.531   2.360  16.055 -1.3449  0.2452  1.6132
15848TIP3    H268960   0.572   2.285  16.180  1.6458 -1.0469 -0.0552
15849TIP3   OH268961   2.301   2.828   1.917 -0.7433  0.2947 -0.1277
15849TIP3    H168962   2.305   2.923   1.926 -0.0886  0.5324 -2.2919
15849TIP3    H268963   2.210   2.809   1.894 -0.5908  0.5844 -1.0281
15850TIP3   OH268964   1.670   3.642  13.010 -0.0689 -0.1994 -0.2951
15850TIP3    H168965   1.750   3.684  12.978  0.2238  0.1281  0.8548
15850TIP3    H268966   1.625   3.615  12.930  1.3492 -0.7044 -0.9570
15851TIP3   OH268967   0.966   0.320   0.706 -0.6275  0.3095 -0.5011
15851TIP3    H168968   0.986   0.375   0.782 -1.8447 -0.5576  0.5024
15851TIP3    H268969   0.937   0.381   0.639 -0.6517  1.0126  0.1372
15852TIP3   OH268970   5.691   0.208   2.775 -0.1796 -0.0695 -0.3987
15852TIP3    H168971   5.677   0.134   2.716 -0.1237  1.1519 -1.9814
15852TIP3    H268972   5.613   0.263   2.764 -0.6489 -0.2796  1.4313
15853TIP3   OH268973   3.053   1.664  13.108 -0.2064  0.0120 -0.5657
15853TIP3    H168974   2.983   1.727  13.095  1.1061  1.5866 -0.4036
15853TIP3    H268975   3.097   1.693  13.188 -0.7417 -2.3037  0.6448
15854TIP3   OH268976   4.311   2.840   1.512 -0.1519  0.4532  0.0850
15854TIP3    H168977   4.349   2.777   1.573 -1.6339  1.2346  1.9072
15854TIP3    H268978   4.311   2.795   1.428  2.7336 -0.3623  0.4114
15855TIP3   OH268979   1.924   0.997   4.318 -0.9012  0.2600 -0.4140
15855TIP3    H168980   2.005   0.959   4.284 -0.7624 -2.2806  2.3543
15855TIP3    H268981   1.887   1.043   4.243  1.0290 -1.9563 -2.9708
15856TIP3   OH268982   4.314   3.322   6.082  0.4055  0.1449 -0.1514
15856TIP3    H168983   4.380   3.255   6.102 -1.1355 -1.5983 -0.6546
15856TIP3    H268984   4.238   3.297   6.135 -0.3671  1.2419 -0.7154
15857TIP3   OH268985   0.109   1.643  12.343  0.5297 -0.5256  0.4598
15857TIP3    H168986   0.102   1.689  12.426  2.0528  0.0691  0.2822
15857TIP3    H268987   0.184   1.585  12.353  2.0571  1.0236 -1.1106
15858TIP3   OH268988   2.797   5.218   2.928 -0.3044  0.2671 -0.1996
15858TIP3    H168989   2.786   5.169   3.010 -0.2158 -0.2968 -0.5197
15858TIP3    H268990   2.883   5.191   2.895  1.1257  2.8456  1.0883
15859TIP3   OH268991   3.341   6.266  16.888 -0.2074  0.5398 -0.0672
15859TIP3    H168992   3.416   6.247  16.831  0.6506  0.9244  0.8943
15859TIP3    H268993   3.302   6.346  16.852 -0.9393 -0.3574 -1.3151
15860TIP3   OH268994   1.587   6.496   6.112  0.6384  0.5894  0.0803
15860TIP3    H168995   1.659   6.442   6.144  0.9912  2.0418  1.9393
15860TIP3    H268996   1.614   6.522   6.024  1.0716 -1.1148 -0.3207
15861TIP3   OH268997   0.462   1.344  16.455  0.0944  0.6354 -0.3768
15861TIP3    H168998   0.433   1.282  16.523  2.3682  0.8008  0.8168
15861TIP3    H268999   0.427   1.307  16.374  0.3336 -1.5650  0.4488
15862TIP3   OH269000   4.708   2.567  17.065 -0.0052  0.1803  0.2144
15862TIP3    H169001   4.686   2.636  17.003 -0.2397  2.0589  2.2508
15862TIP3    H269002   4.637   2.569  17.129  0.6355 -1.0889  1.0113
15863TIP3   OH269003   4.974   1.423   1.952  0.3257 -0.5901 -0.0679
15863TIP3    H169004   4.906   1.491   1.955 -0.1549 -0.8083 -3.0799
15863TIP3    H269005   4.940   1.353   2.008  0.2903  1.0734  2.1541
15864TIP3   OH269006   6.414   5.936  12.326  0.1226 -0.3575 -0.3619
15864TIP3    H169007   6.492   5.980  12.361  0.4317 -2.0060  1.1874
15864TIP3    H269008   6.350   5.945  12.396 -0.0090 -1.7737 -0.2792
15865TIP3   OH269009   1.189   2.361   3.065 -0.2754 -0.7834  0.3311
15865TIP3    H169010   1.279   2.336   3.086 -0.1593  0.7306  1.9175
15865TIP3    H269011   1.178   2.337   2.973  1.5189 -1.6235  0.2926
15866TIP3   OH269012   5.833   1.113  11.459 -0.1897 -0.1744 -0.5949
15866TIP3    H169013   5.748   1.145  11.428  0.6059  2.0306 -0.7018
15866TIP3    H269014   5.894   1.135  11.388  0.4891 -1.7722 -0.5404
15867TIP3   OH269015   0.374   0.951   3.297 -0.4603 -0.3680  0.6719
15867TIP3    H169016   0.298   0.930   3.351 -0.5446 -2.4594 -0.1561
15867TIP3    H269017   0.449   0.919   3.348 -0.3296 -0.3371  0.4991
15868TIP3   OH269018   2.195   5.723  15.261 -0.4274 -0.4629  0.5907
15868TIP3    H169019   2.196   5.791  15.194 -0.5776 -0.6643  0.3832
15868TIP3    H269020   2.242   5.649  15.222  1.7062  0.2647  1.6121
15869TIP3   OH269021   6.230   3.002  13.757  0.4286  0.7675 -0.3324
15869TIP3    H169022   6.298   3.070  13.756  0.6003  0.5977 -1.0733
15869TIP3    H269023   6.197   3.002  13.847  0.8860  1.3745 -0.1575
15870TIP3   OH269024   3.282   3.397   4.138 -0.1776  0.5455 -0.1817
15870TIP3    H169025   3.240   3.446   4.208 -1.4553  1.0083 -1.2368
15870TIP3    H269026   3.316   3.463   4.079 -0.8185  0.1652 -0.9862
15871TIP3   OH269027   6.389   3.470   1.330  0.4024 -0.1401  0.0196
15871TIP3    H169028   6.342   3.513   1.258  1.5585  1.0607 -0.0580
15871TIP3    H269029   6.367   3.377   1.320 -1.8071  0.3282 -0.0885
15872TIP3   OH269030   0.621   2.096   4.406  0.6020  0.4350  0.0181
15872TIP3    H169031   0.635   2.026   4.342 -0.7121  0.2073 -0.0421
15872TIP3    H269032   0.643   2.057   4.490 -0.5478 -0.2110  0.0373
15873TIP3   OH269033   4.644   6.588  16.095  0.2902 -0.1165 -0.1821
15873TIP3    H169034   4.740   6.589  16.100  0.2867  0.8755 -0.1119
15873TIP3    H269035   4.618   6.677  16.120 -0.7278 -0.7783  1.2101
15874TIP3   OH269036   3.847   6.485  11.701 -0.1886 -0.1583  0.2984
15874TIP3    H169037   3.911   6.543  11.743 -0.8158  0.0437  1.0197
15874TIP3    H269038   3.897   6.435  11.637  0.1094  2.2838 -1.4855
15875TIP3   OH269039   0.044   1.377   1.634 -0.4033 -0.4089  0.4415
15875TIP3    H169040   0.029   1.290   1.671 -2.1292  0.0052  0.7949
15875TIP3    H269041  -0.027   1.389   1.571  0.5664  0.2507 -0.5773
15876TIP3   OH269042   4.600   0.725  13.632  0.0499  1.1340  0.2371
15876TIP3    H169043   4.574   0.814  13.656 -0.5156  0.6334  1.5976
15876TIP3    H269044   4.617   0.682  13.716  1.4110  0.2691 -0.4452
15877TIP3   OH269045   1.307   3.822  15.092  0.0363  0.1629  0.4402
15877TIP3    H169046   1.374   3.867  15.041 -0.0439  0.9210  0.9832
15877TIP3    H269047   1.227   3.829  15.040  0.3055 -0.5108 -0.0833
15878TIP3   OH269048   6.546   2.896  12.632  0.0585  0.4625 -0.2633
15878TIP3    H169049   6.630   2.942  12.629 -0.6312  1.8272  0.4924
15878TIP3    H269050   6.489   2.947  12.574 -0.5664  0.2254  0.1330
15879TIP3   OH269051   1.410   4.394  16.702 -0.3826 -0.7623  0.4162
15879TIP3    H169052   1.350   4.461  16.736 -2.2510 -1.9832 -0.3264
15879TIP3    H269053   1.491   4.407  16.752 -0.5031  2.2878  0.0210
15880TIP3   OH269054   4.450   0.700  16.236  0.6729  0.3224  0.2023
15880TIP3    H169055   4.411   0.641  16.172  0.2978  0.6855  0.1012
15880TIP3    H269056   4.468   0.781  16.188 -2.1785  1.6424  1.1582
15881TIP3   OH269057   3.520   1.830   1.232  0.5272  0.6395 -0.2622
15881TIP3    H169058   3.528   1.849   1.325  1.7264  0.7067 -0.3587
15881TIP3    H269059   3.600   1.866   1.193  1.2122 -1.4896 -0.9565
15882TIP3   OH269060   5.244   5.435  16.802  0.2905  0.2128 -0.5573
15882TIP3    H169061   5.217   5.343  16.803  0.1408  0.2372 -1.6018
15882TIP3    H269062   5.217   5.467  16.716 -0.0496  1.3575 -0.0396
15883TIP3   OH269063   5.255   1.374  12.753  0.1609 -0.7179  0.3641
15883TIP3    H169064   5.292   1.449  12.799  2.9485 -2.8517  1.9523
15883TIP3    H269065   5.188   1.340  12.813 -0.1529 -0.2906  0.2588
15884TIP3   OH269066   0.901   1.046  16.049 -0.2912  0.6880  0.1484
15884TIP3    H169067   0.951   1.120  16.084  0.8887 -0.2478  0.4927
15884TIP3    H269068   0.900   0.982  16.120 -0.8187  0.1455 -0.3413
15885TIP3   OH269069   3.822   3.712  15.933  0.4043  0.3235 -0.2953
15885TIP3    H169070   3.753   3.666  15.981  0.7217  0.0564 -0.0902
15885TIP3    H269071   3.790   3.717  15.843  0.8352 -1.2450 -0.5618
15886TIP3   OH269072   4.598   0.623   5.492  0.3778  0.2281  0.6718
15886TIP3    H169073   4.581   0.549   5.433  0.8576 -0.2665  1.1421
15886TIP3    H269074   4.514   0.638   5.535 -0.0637  0.8015 -0.3498
15887TIP3   OH269075   0.590   5.041   0.302  0.3115 -0.0458 -0.4110
15887TIP3    H169076   0.635   4.963   0.269  2.9074  0.1708  2.2284
15887TIP3    H269077   0.513   5.006   0.347 -0.5488 -0.6868 -2.2366
15888TIP3   OH269078   2.850   0.995   4.065  0.7000  0.4141 -0.0326
15888TIP3    H169079   2.895   1.061   4.117 -0.0166  0.3711  0.6617
15888TIP3    H269080   2.919   0.952   4.015  0.9351  3.5099 -2.6510
15889TIP3   OH269081   4.873   2.272   0.963  0.2802 -0.1183  0.2005
15889TIP3    H169082   4.919   2.198   0.923 -1.5373 -1.8203  1.0530
15889TIP3    H269083   4.839   2.322   0.888  1.3451 -0.2416 -0.3857
15890TIP3   OH269084   3.141   0.041   2.142  0.1979 -0.1754  0.2664
15890TIP3    H169085   3.201  -0.022   2.102 -2.1258 -1.7163 -0.9414
15890TIP3    H269086   3.108  -0.003   2.220  4.2399  2.5647  4.0939
15891TIP3   OH269087   0.249   3.611  17.063  0.2566  0.4442 -0.1966
15891TIP3    H169088   0.264   3.552  16.989 -1.7587  0.3270 -0.5530
15891TIP3    H269089   0.227   3.553  17.136 -1.2696  0.6888 -0.4307
15892TIP3   OH269090   2.000   4.002   4.071 -0.3109  0.2542 -0.0083
15892TIP3    H169091   2.011   3.961   3.985  1.0599 -0.8514  0.6477
15892TIP3    H269092   1.923   4.057   4.062 -0.1952  0.1580 -1.9487
15893TIP3   OH269093   2.656   1.130  15.018 -0.6106 -0.2331 -0.1807
15893TIP3    H169094   2.717   1.201  14.999  0.3969 -0.9295  0.3303
15893TIP3    H269095   2.607   1.160  15.095  0.8997 -0.6798  1.0302
15894TIP3   OH269096   0.070   2.172  16.415  0.0092  0.1883  0.0940
15894TIP3    H169097   0.035   2.096  16.368  1.1360  0.0141 -0.4961
15894TIP3    H269098   0.017   2.177  16.495 -0.7687 -0.5822 -0.3459
15895TIP3   OH269099   3.705   1.401   1.314 -0.4409  0.1318  0.4986
15895TIP3    H169100   3.769   1.334   1.290 -1.3781 -0.9923  1.0546
15895TIP3    H269101   3.663   1.425   1.232 -1.0423 -0.9660  0.4734
15896TIP3   OH269102   4.784   4.466   3.903 -0.2128 -0.2115  0.1622
15896TIP3    H169103   4.714   4.513   3.948 -1.9531 -1.6835 -0.8632
15896TIP3    H269104   4.782   4.378   3.942  0.2012 -0.6435 -0.7765
15897TIP3   OH269105   0.671   2.348  10.730  0.0159  0.4808 -0.0864
15897TIP3    H169106   0.648   2.362  10.638 -2.5660 -1.3147  0.1862
15897TIP3    H269107   0.737   2.279  10.729 -0.2199  0.2636 -0.5641
15898TIP3   OH269108   5.768   0.749  13.619 -0.4955  0.0802 -1.0149
15898TIP3    H169109   5.748   0.738  13.526 -0.5547  2.8915 -1.4096
15898TIP3    H269110   5.772   0.843  13.632 -1.0198 -0.2168  1.9800
15899TIP3   OH269111   6.369   4.294   2.340  0.6830 -0.3630  0.4996
15899TIP3    H169112   6.389   4.345   2.261 -2.6211  0.6003  0.1565
15899TIP3    H269113   6.342   4.360   2.404 -1.1393 -1.4630  0.9157
15900TIP3   OH269114   1.580   1.355  14.834  0.0847 -0.3268  0.0580
15900TIP3    H169115   1.488   1.347  14.809  0.3013 -0.0431 -0.8922
15900TIP3    H269116   1.605   1.443  14.804  0.9823 -0.8569 -0.8158
15901TIP3   OH269117   1.377   5.462   6.539  0.3691  0.1391 -0.6484
15901TIP3    H169118   1.327   5.409   6.476 -0.0749 -0.2335  0.0097
15901TIP3    H269119   1.418   5.529   6.485  1.5259 -1.2808 -1.6180
15902TIP3   OH269120   3.295   0.174   1.433 -0.2909  0.5349 -0.4338
15902TIP3    H169121   3.350   0.096   1.430 -1.3233 -0.1967 -0.8185
15902TIP3    H269122   3.308   0.209   1.521 -0.8792 -0.8655  0.2454
15903TIP3   OH269123   2.387   4.176  13.264  0.2905  0.4420 -0.3056
15903TIP3    H169124   2.433   4.092  13.275  1.3400  0.9833 -0.4373
15903TIP3    H269125   2.380   4.187  13.169  1.0342  0.9636 -0.3046
15904TIP3   OH269126   0.010   5.598   3.232  0.5564 -0.6003 -1.3123
15904TIP3    H169127   0.085   5.657   3.220  0.6961 -0.5387 -0.2329
15904TIP3    H269128   0.044   5.511   3.210  0.3523 -0.3110 -2.9102
15905TIP3   OH269129   1.637   6.412   2.854  0.2075  0.3229 -0.1312
15905TIP3    H169130   1.676   6.366   2.779  0.5723 -0.7044  0.6791
15905TIP3    H269131   1.712   6.446   2.902  0.2445 -2.2042  1.7903
15906TIP3   OH269132   4.963   4.164   1.385 -0.2751 -0.0767 -0.5739
15906TIP3    H169133   4.918   4.149   1.302  1.7662  0.7471 -1.8989
15906TIP3    H269134   5.027   4.093   1.392 -0.3897 -0.1085  0.2816
15907TIP3   OH269135   1.287   2.147  16.863  0.3582  0.7906 -0.2148
15907TIP3    H169136   1.268   2.240  16.869 -1.0274  0.5339 -0.2628
15907TIP3    H269137   1.206   2.104  16.889  1.0312 -0.4125  0.0032
15908TIP3   OH269138   3.967   1.007   5.641 -0.1208 -0.8132  0.1270
15908TIP3    H169139   3.901   0.937   5.639  0.0842 -1.0735  1.6054
15908TIP3    H269140   4.048   0.962   5.665  0.8156 -0.6292 -2.3563
15909TIP3   OH269141   3.427   2.706  10.284 -0.1362 -0.3463 -0.0248
15909TIP3    H169142   3.408   2.639  10.349  1.0693 -0.5576  0.1346
15909TIP3    H269143   3.493   2.762  10.326  2.2668 -1.6884 -1.7756
15910TIP3   OH269144   0.571   4.602   0.126 -0.5346 -0.0187 -0.1236
15910TIP3    H169145   0.511   4.623   0.198 -1.0380 -0.2701 -0.4627
15910TIP3    H269146   0.656   4.591   0.169 -0.5050  1.3600  0.2374
15911TIP3   OH269147   0.748   5.438  14.055 -0.3667 -0.5425 -0.2167
15911TIP3    H169148   0.673   5.497  14.055 -0.6925 -0.9526 -0.2960
15911TIP3    H269149   0.710   5.351  14.047  0.1914 -0.6574 -1.8448
15912TIP3   OH269150   2.598   5.141   3.614 -0.4224  0.3286  0.0508
15912TIP3    H169151   2.616   5.231   3.586 -3.1263 -0.1441 -4.1655
15912TIP3    H269152   2.508   5.143   3.645 -0.3012 -0.8484  0.5375
15913TIP3   OH269153   4.702   6.501  13.339  0.7395 -0.3312  0.5362
15913TIP3    H169154   4.613   6.506  13.374  0.9943  0.3124  1.1384
15913TIP3    H269155   4.703   6.564  13.267 -0.1222 -2.5068 -1.5006
15914TIP3   OH269156   1.479   0.431   6.078 -0.2669 -0.1021  0.1061
15914TIP3    H169157   1.547   0.410   6.014 -0.6347 -0.3878 -0.1999
15914TIP3    H269158   1.499   0.375   6.153  1.5075  1.8341  1.2070
15915TIP3   OH269159   5.146   3.997  10.737  0.1003 -0.2952  0.3390
15915TIP3    H169160   5.111   3.911  10.760  0.3196 -0.1608  1.2004
15915TIP3    H269161   5.236   3.995  10.767  0.1863  0.1388  0.1111
15916TIP3   OH269162   0.103   5.924  15.336  0.0727  0.0408 -0.0979
15916TIP3    H169163   0.120   5.869  15.259 -0.0438  0.5008 -0.4534
15916TIP3    H269164   0.008   5.923  15.345 -0.0489  1.3625 -0.9854
15917TIP3   OH269165   3.211   1.236   4.011 -0.3913 -0.2934 -0.3765
15917TIP3    H169166   3.167   1.225   4.096 -1.6553 -0.2657 -1.0074
15917TIP3    H269167   3.268   1.312   4.024  1.0151 -1.5165  1.0606
15918TIP3   OH269168   0.618   6.511   1.982 -0.3794  0.6320 -0.3627
15918TIP3    H169169   0.674   6.586   2.002 -2.2507  2.1289 -0.5408
15918TIP3    H269170   0.608   6.513   1.886  1.6060 -1.4312 -0.7099
15919TIP3   OH269171   6.671   3.379  12.738 -0.0090 -0.0872  0.6174
15919TIP3    H169172   6.658   3.445  12.670 -1.6345  0.4445  1.3637
15919TIP3    H269173   6.639   3.422  12.818 -0.1271 -1.4239  1.3111
15920TIP3   OH269174   4.375   5.454  17.109  0.1356 -0.0337  0.7308
15920TIP3    H169175   4.342   5.436  17.196 -0.1478  0.5190  0.7449
15920TIP3    H269176   4.470   5.455  17.119  0.1430 -1.0607  0.8082
15921TIP3   OH269177   3.307   5.097  14.292 -0.0750  0.2020  0.1428
15921TIP3    H169178   3.322   5.158  14.364 -0.1246 -0.2876  0.5720
15921TIP3    H269179   3.214   5.106  14.271 -0.4808 -0.9234  1.3247
15922TIP3   OH269180   1.961   2.809   5.377 -0.1744  0.1118  0.4906
15922TIP3    H169181   2.000   2.855   5.452  1.8063 -1.6595  0.6280
15922TIP3    H269182   1.985   2.862   5.301  2.1745 -0.6478  0.6328
15923TIP3   OH269183   3.910   4.278  13.614 -0.3552 -0.3428 -0.5187
15923TIP3    H169184   3.891   4.365  13.578  0.4643 -0.2320 -0.6964
15923TIP3    H269185   3.844   4.266  13.682  0.7646  1.3037  0.9675
15924TIP3   OH269186   0.778   5.854  15.309  0.0294  0.1560  0.7080
15924TIP3    H169187   0.870   5.871  15.329  0.3013  0.7535 -0.9064
15924TIP3    H269188   0.738   5.941  15.307  0.2104  0.2681 -1.9997
15925TIP3   OH269189   5.457   0.247   3.389 -0.5515 -0.0187 -0.9993
15925TIP3    H169190   5.491   0.158   3.381  0.1551  0.2953 -1.6207
15925TIP3    H269191   5.485   0.277   3.475 -1.8858 -0.8303 -0.2386
15926TIP3   OH269192   3.337   4.218  16.876 -0.3850 -0.0670  0.1921
15926TIP3    H169193   3.266   4.261  16.828 -0.2722 -2.0223 -1.8590
15926TIP3    H269194   3.416   4.264  16.847 -0.4960  0.0009 -0.0043
15927TIP3   OH269195   5.233   5.539  11.864 -0.0917  0.6985 -0.3957
15927TIP3    H169196   5.265   5.625  11.835  2.2970  0.0485  0.0441
15927TIP3    H269197   5.246   5.482  11.789 -0.0359  0.3627 -0.1341
15928TIP3   OH269198   1.250   3.196  14.899  0.6382  0.3418  0.3779
15928TIP3    H169199   1.337   3.172  14.932  0.9371  1.8677  0.7429
15928TIP3    H269200   1.215   3.255  14.965 -0.6019 -0.0905  0.1206
15929TIP3   OH269201   3.650   4.516  15.770  0.0867 -0.7845  0.4986
15929TIP3    H169202   3.701   4.441  15.739 -0.0494 -0.7515  0.1984
15929TIP3    H269203   3.618   4.559  15.691  1.0501  0.2094  0.6250
15930TIP3   OH269204   0.714   3.266   1.778  0.2779  0.5416  0.5912
15930TIP3    H169205   0.744   3.331   1.842  0.1699 -0.1361  1.3296
15930TIP3    H269206   0.795   3.227   1.744  0.3206 -1.6671  2.9710
15931TIP3   OH269207   1.856   5.660  13.106 -0.3748 -0.5545 -0.3355
15931TIP3    H169208   1.832   5.590  13.046  1.0412 -0.3322 -1.2243
15931TIP3    H269209   1.898   5.616  13.179  1.4271 -0.6305 -1.3578
15932TIP3   OH269210   4.438   5.181   2.181  0.0948 -0.2867  0.4211
15932TIP3    H169211   4.434   5.271   2.211 -1.0044 -0.8985  2.2193
15932TIP3    H269212   4.361   5.170   2.126 -0.0627 -0.2823  0.6416
15933TIP3   OH269213   4.546   2.597   4.161  0.6319  0.2882  0.2213
15933TIP3    H169214   4.514   2.685   4.142  0.2640  0.0755 -0.1758
15933TIP3    H269215   4.487   2.539   4.112  3.1267 -0.0368 -2.6863
15934TIP3   OH269216   4.088   3.591   0.923  0.1562 -0.0876  0.1528
15934TIP3    H169217   4.021   3.632   0.869  1.1317  1.8182  0.3346
15934TIP3    H269218   4.105   3.507   0.880 -0.9275  0.2502 -0.9875
15935TIP3   OH269219   3.228   5.314  14.831  0.2187  0.4769  0.6026
15935TIP3    H169220   3.286   5.240  14.809 -1.9932 -1.4512  0.8345
15935TIP3    H269221   3.282   5.391  14.817  2.0573 -1.0590 -1.7748
15936TIP3   OH269222   2.847   2.526   2.532  0.0437 -1.2420  0.1979
15936TIP3    H169223   2.763   2.530   2.577 -0.0786 -0.7887 -0.0666
15936TIP3    H269224   2.909   2.501   2.600 -0.3999 -2.2243  0.2609
15937TIP3   OH269225   6.207   1.263  11.280 -0.0184 -0.0169 -0.4896
15937TIP3    H169226   6.193   1.341  11.226 -3.2643  0.7338  1.1505
15937TIP3    H269227   6.177   1.190  11.225 -0.8524  0.4165 -0.6193
15938TIP3   OH269228   6.184   2.960   0.126 -0.1593  0.1655  0.0475
15938TIP3    H169229   6.228   3.038   0.091 -0.3056  1.4846  2.5617
15938TIP3    H269230   6.238   2.934   0.200 -2.0906  0.1439  1.5000
15939TIP3   OH269231   0.012   5.843   2.194  0.0338 -0.4884 -0.5671
15939TIP3    H169232  -0.066   5.850   2.140 -0.8805  1.5478  0.9048
15939TIP3    H269233  -0.010   5.776   2.260 -0.6942  0.4415  0.1518
15940TIP3   OH269234   2.184   2.789  16.213  0.7313 -0.4494  0.3785
15940TIP3    H169235   2.275   2.806  16.188 -0.1270 -0.0840 -2.9675
15940TIP3    H269236   2.180   2.810  16.306  4.7826 -3.6442  1.5520
15941TIP3   OH269237   6.258   5.798  12.155 -0.7373  0.2475  1.3701
15941TIP3    H169238   6.181   5.828  12.202  0.3719  3.5744  1.2885
15941TIP3    H269239   6.332   5.839  12.200  0.7467 -0.3213 -0.3893
15942TIP3   OH269240   6.520   1.831  15.226 -0.2241 -0.7675 -0.0688
15942TIP3    H169241   6.438   1.878  15.242 -0.6609 -2.1699  2.2769
15942TIP3    H269242   6.585   1.901  15.214 -1.2840  0.4137  0.7418
15943TIP3   OH269243   1.783   4.697  13.510 -0.4242  0.1309  0.6626
15943TIP3    H169244   1.689   4.689  13.497 -0.5867  0.6738  1.4318
15943TIP3    H269245   1.812   4.608  13.531 -0.7346 -0.0643  0.2823
15944TIP3   OH269246   1.578   1.540  17.163  0.5464 -0.1014  0.1161
15944TIP3    H169247   1.509   1.474  17.175  0.2382  0.2134  0.0838
15944TIP3    H269248   1.580   1.587  17.247  0.1598  0.4198 -0.1608
15945TIP3   OH269249   0.677   6.497  16.150  0.3997 -0.1951  0.7008
15945TIP3    H169250   0.733   6.453  16.213 -0.5097 -0.9041  1.0380
15945TIP3    H269251   0.737   6.540  16.089  1.2912 -0.9387  1.0466
15946TIP3   OH269252   3.131   0.192   6.617  0.6133  0.5169 -0.7147
15946TIP3    H169253   3.216   0.168   6.580  0.9009  1.3693 -0.6368
15946TIP3    H269254   3.149   0.271   6.669  0.1920 -0.5206  1.1006
15947TIP3   OH269255   4.501   2.430  15.222  0.4572  0.3261  0.2225
15947TIP3    H169256   4.427   2.416  15.281  1.5424 -0.8472  1.3629
15947TIP3    H269257   4.536   2.515  15.247 -0.9883  1.3109 -0.9249
15948TIP3   OH269258   5.860   0.488  12.976  0.2228  0.0639  0.7620
15948TIP3    H169259   5.913   0.460  13.051  1.9882 -0.8736 -0.7759
15948TIP3    H269260   5.870   0.583  12.974  1.2787 -0.0345  0.9196
15949TIP3   OH269261   0.573   4.064   1.364 -0.3177 -0.3634 -0.4707
15949TIP3    H169262   0.583   3.969   1.369  1.8410 -0.2629 -1.6609
15949TIP3    H269263   0.612   4.088   1.280 -0.7628  1.5934 -0.1689
15950TIP3   OH269264   1.244   6.681  13.857  0.1795  0.0463  0.5219
15950TIP3    H169265   1.164   6.729  13.878  0.0808 -0.0617  0.4001
15950TIP3    H269266   1.242   6.673  13.761  0.1415 -0.2885  0.5498
15951TIP3   OH269267   5.788   0.214   1.775  0.3269  0.0681 -0.5046
15951TIP3    H169268   5.695   0.200   1.790  0.7547 -0.4607  2.0157
15951TIP3    H269269   5.820   0.129   1.744  0.4865 -0.7463  1.7224
15952TIP3   OH269270   5.119   5.742   6.330 -0.0361  0.5146 -0.3615
15952TIP3    H169271   5.188   5.788   6.377 -0.2178  1.0490 -0.6079
15952TIP3    H269272   5.093   5.671   6.389  2.1881 -1.0502 -1.1409
15953TIP3   OH269273   6.466   0.964   4.872 -0.5063  0.7522 -0.1456
15953TIP3    H169274   6.402   0.987   4.940 -1.3028 -0.0495 -0.6054
15953TIP3    H269275   6.515   0.891   4.910 -1.7019 -0.4533 -0.8331
15954TIP3   OH269276   5.293   2.701   1.770  0.5556  0.6037 -0.0141
15954TIP3    H169277   5.205   2.682   1.738  1.0859  1.4760 -2.1813
15954TIP3    H269278   5.333   2.615   1.783  0.0367  0.1864 -1.0307
15955TIP3   OH269279   6.333   1.916  13.752  0.5338 -0.4673  0.0990
15955TIP3    H169280   6.283   1.991  13.722 -0.5577 -1.2844 -0.1771
15955TIP3    H269281   6.422   1.950  13.766  0.1472  0.7722 -0.3705
15956TIP3   OH269282   5.942   5.208   2.274 -0.2603 -0.1171  0.4203
15956TIP3    H169283   6.023   5.162   2.296 -0.1500  0.1886  0.6628
15956TIP3    H269284   5.880   5.184   2.343  0.2804  1.3523  1.4721
15957TIP3   OH269285   5.261   2.241  14.636 -0.3810 -0.3902  0.0809
15957TIP3    H169286   5.337   2.260  14.581  0.8118 -0.7817  1.5421
15957TIP3    H269287   5.296   2.195  14.712 -2.1237 -0.8595  0.6610
15958TIP3   OH269288   3.803   2.558  15.756 -0.2977  0.2196 -0.6244
15958TIP3    H169289   3.852   2.477  15.745 -2.2864 -0.7439 -3.6827
15958TIP3    H269290   3.791   2.567  15.851  0.9841 -2.4146 -0.1472
15959TIP3   OH269291   4.220   5.639  15.136 -0.1448  0.6876 -0.0985
15959TIP3    H169292   4.253   5.658  15.048  3.0229  1.1396  1.0264
15959TIP3    H269293   4.128   5.665  15.134 -0.1420  0.8505 -3.1880
15960TIP3   OH269294   6.623   4.494  15.596  0.2240 -0.4273  0.5649
15960TIP3    H169295   6.633   4.410  15.551 -2.1923  0.4549 -1.8614
15960TIP3    H269296   6.574   4.473  15.676 -1.7918 -1.1957 -0.8013
15961TIP3   OH269297   0.699   2.477   3.666 -0.4076  0.2318 -0.2050
15961TIP3    H169298   0.750   2.554   3.688 -0.7627  0.5175 -0.3632
15961TIP3    H269299   0.657   2.498   3.583 -1.9703  0.6199  0.6216
15962TIP3   OH269300   6.257   0.400  17.092 -0.2021 -0.4768 -0.2729
15962TIP3    H169301   6.286   0.355  17.171  2.4816  0.8784 -0.3734
15962TIP3    H269302   6.338   0.423  17.047 -1.4947  2.5453 -1.2715
15963TIP3   OH269303   4.594   1.561   5.150 -0.5366  0.6440  0.5628
15963TIP3    H169304   4.552   1.496   5.094  0.2761  0.6912 -0.1158
15963TIP3    H269305   4.680   1.574   5.111  1.8555 -2.4065  4.0363
15964TIP3   OH269306   0.808   6.167  15.758  0.4641  0.1217  0.4629
15964TIP3    H169307   0.720   6.149  15.725 -0.1184  0.6485  1.6718
15964TIP3    H269308   0.803   6.256  15.794  1.3644 -0.0050  0.9392
15965TIP3   OH269309   6.348   3.093  12.469 -0.3010 -0.4859  0.0358
15965TIP3    H169310   6.258   3.063  12.464 -0.5494  0.3207 -0.4831
15965TIP3    H269311   6.372   3.115  12.379 -0.3955  1.5816  0.4697
15966TIP3   OH269312   4.762   4.504  11.724 -0.1190  0.1294  0.1152
15966TIP3    H169313   4.793   4.418  11.698 -0.4838 -0.1122  0.4655
15966TIP3    H269314   4.748   4.551  11.642  1.4548  0.3516 -0.0462
15967TIP3   OH269315   4.120   2.409  12.597 -0.3874  1.0559  0.0616
15967TIP3    H169316   4.205   2.371  12.573 -0.9316 -1.3365  1.5363
15967TIP3    H269317   4.059   2.373  12.533 -0.4721  1.9093 -0.3462
15968TIP3   OH269318   1.020   6.120  14.068 -0.2152  0.2376 -0.1055
15968TIP3    H169319   1.027   6.204  14.113 -0.0116  0.2422 -0.1461
15968TIP3    H269320   1.065   6.058  14.125 -1.4789 -0.1026  0.5739
15969TIP3   OH269321   6.278   4.984   5.209  0.2546  0.5981  0.3622
15969TIP3    H169322   6.278   4.977   5.305  1.0921  2.2888  0.5233
15969TIP3    H269323   6.363   4.948   5.183  0.0112  0.1042  0.2424
15970TIP3   OH269324   3.774   5.064  16.234  0.2751 -0.1878 -0.3999
15970TIP3    H169325   3.754   4.975  16.204  1.0165 -0.5019  0.0130
15970TIP3    H269326   3.853   5.088  16.185  0.0591  0.2527 -0.5297
15971TIP3   OH269327   0.851   6.490   2.214 -0.5800  0.1295  0.4542
15971TIP3    H169328   0.787   6.520   2.149 -0.3137 -0.0501  0.1012
15971TIP3    H269329   0.805   6.495   2.297 -1.5064 -1.2339  0.0654
15972TIP3   OH269330   2.096   5.323   2.785 -0.4090  0.3178  0.2059
15972TIP3    H169331   2.165   5.325   2.851 -0.5300 -1.5513  0.4477
15972TIP3    H269332   2.040   5.249   2.811 -1.3285  0.5096 -1.1241
15973TIP3   OH269333   6.117   0.453   3.592 -0.1110 -0.1031 -0.2011
15973TIP3    H169334   6.204   0.450   3.552  0.2525 -1.4048  0.6230
15973TIP3    H269335   6.085   0.541   3.572  0.6814 -0.1605 -1.9816
15974TIP3   OH269336   2.635   5.987   3.223  0.5330 -0.1799  0.1746
15974TIP3    H169337   2.581   6.064   3.238  2.3389  1.1776 -0.0854
15974TIP3    H269338   2.677   5.969   3.307  0.2521 -0.7901  0.1923
15975TIP3   OH269339   5.443   5.677  16.256  0.1281  0.0954  0.1133
15975TIP3    H169340   5.348   5.671  16.262  0.0975 -0.1572 -0.5320
15975TIP3    H269341   5.475   5.643  16.340 -0.3981  2.5167  1.3954
15976TIP3   OH269342   4.962   5.974  11.947 -0.2364  0.0522 -0.3056
15976TIP3    H169343   4.887   5.916  11.965  0.8730 -1.2754  0.2405
15976TIP3    H269344   4.940   6.016  11.864 -2.3324  0.9745  0.6276
15977TIP3   OH269345   2.145   1.338   3.740  0.2130 -0.0043  0.0989
15977TIP3    H169346   2.119   1.425   3.711 -0.9554 -0.1607  0.6194
15977TIP3    H269347   2.101   1.279   3.678  0.3274 -0.2453  0.2480
15978TIP3   OH269348   2.968   5.959  15.047 -0.2244  0.0351 -0.0450
15978TIP3    H169349   3.046   5.905  15.054 -1.2107 -1.3779  0.5792
15978TIP3    H269350   3.000   6.049  15.051  1.1630 -0.4755  3.0119
15979TIP3   OH269351   1.094   2.012   4.744  0.3027 -0.4089  0.3378
15979TIP3    H169352   1.173   1.958   4.756  0.7681  0.3688  0.8813
15979TIP3    H269353   1.080   2.013   4.650 -0.0602 -1.9620  0.3496
15980TIP3   OH269354   2.393   5.600   4.411 -0.1458  0.2062  0.0694
15980TIP3    H169355   2.454   5.672   4.393  1.5283 -1.4415 -1.2497
15980TIP3    H269356   2.444   5.536   4.460 -0.5565 -1.4985 -1.5858
15981TIP3   OH269357   6.637   2.037  11.875  0.0720  0.4603  0.2228
15981TIP3    H169358   6.617   1.981  11.950 -1.4592  1.3291  0.5000
15981TIP3    H269359   6.592   1.996  11.801  1.1581 -0.1113 -0.1499
15982TIP3   OH269360   2.693   3.014   3.244  0.3252 -0.3892 -0.0181
15982TIP3    H169361   2.684   3.106   3.269  1.9895 -0.9060  2.9219
15982TIP3    H269362   2.712   2.969   3.326  1.6377 -3.0648 -1.6678
15983TIP3   OH269363   5.987   2.116   0.948 -0.0497  0.2058  0.0628
15983TIP3    H169364   5.925   2.177   0.908 -0.7820  0.4856  1.5547
15983TIP3    H269365   6.031   2.167   1.015  1.9510  0.0504 -1.0454
15984TIP3   OH269366   2.414   3.179   3.447 -0.0829  0.4413  0.1185
15984TIP3    H169367   2.394   3.200   3.356 -1.4709  0.0619  0.3117
15984TIP3    H269368   2.360   3.240   3.499  0.3042  0.3142  0.6804
15985TIP3   OH269369   2.108   0.349   0.613  0.1342  0.3790  0.4247
15985TIP3    H169370   2.083   0.285   0.680 -0.3052  0.2505  0.1431
15985TIP3    H269371   2.028   0.362   0.562  0.1514  1.3398  0.6245
15986TIP3   OH269372   5.978   1.250  13.900 -0.0522 -0.1087 -0.2898
15986TIP3    H169373   6.005   1.328  13.852 -0.3461 -1.7945 -3.4584
15986TIP3    H269374   5.883   1.245  13.887  0.0020 -1.1228 -0.3630
15987TIP3   OH269375   3.929   0.111   4.499 -0.1704 -0.0357 -0.0128
15987TIP3    H169376   3.861   0.172   4.470  0.6317  1.5144  1.1782
15987TIP3    H269377   3.909   0.096   4.592  0.2697 -0.7472 -0.0257
15988TIP3   OH269378   4.957   3.591   4.976  0.3818  0.3520  0.0858
15988TIP3    H169379   4.885   3.653   4.988 -0.3716 -0.6315  0.9260
15988TIP3    H269380   5.033   3.645   4.958 -0.1676  1.5417  1.1809
15989TIP3   OH269381   0.389   6.246  14.934 -0.2466 -0.0408 -0.1021
15989TIP3    H169382   0.478   6.249  14.898 -0.3620 -0.7827 -0.4834
15989TIP3    H269383   0.375   6.153  14.953 -0.7263  0.1544  0.5069
15990TIP3   OH269384   2.691   0.519   2.916 -0.8671 -0.0633  0.1389
15990TIP3    H169385   2.725   0.446   2.864 -1.3997  0.7712 -1.4524
15990TIP3    H269386   2.750   0.592   2.895 -0.7953  0.1609  1.1125
15991TIP3   OH269387   2.393   6.246   5.000 -0.1344 -0.4829 -0.0392
15991TIP3    H169388   2.390   6.333   4.962 -0.1164 -0.9227 -1.0772
15991TIP3    H269389   2.410   6.188   4.926  0.5094 -1.3053  0.7326
15992TIP3   OH269390   6.288   2.367  12.098  0.5508  0.1202  0.1254
15992TIP3    H169391   6.339   2.342  12.020 -0.1230  1.8942 -0.9493
15992TIP3    H269392   6.201   2.332  12.082 -0.5588  3.2815 -1.6566
15993TIP3   OH269393   1.201   5.097  13.842 -0.0074 -0.5848  0.0622
15993TIP3    H169394   1.118   5.109  13.796  0.1166 -0.2359 -0.0737
15993TIP3    H269395   1.264   5.149  13.792  0.1366 -0.2257  0.6023
15994TIP3   OH269396   1.568   1.405   5.506  0.3332 -0.0252 -0.2049
15994TIP3    H169397   1.568   1.418   5.601 -1.1700  0.0606 -0.2029
15994TIP3    H269398   1.645   1.350   5.489  0.8238  0.2656  1.0067
15995TIP3   OH269399   2.448   6.073  15.440 -0.2087  0.1698 -0.0080
15995TIP3    H169400   2.410   6.010  15.501  0.1784  0.5417  0.6278
15995TIP3    H269401   2.375   6.130  15.416 -0.6505 -0.7188 -0.8724
15996TIP3   OH269402   3.348   2.543  15.210 -0.1007 -0.3400  0.4070
15996TIP3    H169403   3.306   2.471  15.258 -2.1167 -0.2689 -1.0902
15996TIP3    H269404   3.396   2.500  15.139 -0.0452 -0.2963  0.4185
15997TIP3   OH269405   2.720   0.405  17.083  0.2048  0.3028  0.2221
15997TIP3    H169406   2.630   0.425  17.057 -0.7595 -1.9732  1.5589
15997TIP3    H269407   2.755   0.355  17.010  0.0047  0.2043  0.1934
15998TIP3   OH269408   6.536   2.128   1.729  0.0737 -0.6144 -0.0277
15998TIP3    H169409   6.581   2.194   1.782 -1.5240 -0.2028  0.8851
15998TIP3    H269410   6.531   2.051   1.786 -0.8696 -0.4658  0.1034
15999TIP3   OH269411   2.423   6.395  11.193  0.0783 -0.3982  0.2602
15999TIP3    H169412   2.357   6.463  11.210  0.3778 -0.4934  2.0408
15999TIP3    H269413   2.388   6.346  11.119 -0.0362  1.8012 -1.2228
16000TIP3   OH269414   2.438   4.220  13.005 -0.0942 -0.0738 -0.3186
16000TIP3    H169415   2.396   4.241  12.921 -0.5813  0.3594  0.0313
16000TIP3    H269416   2.518   4.271  13.005 -0.5970  0.7290 -0.0766
16001TIP3   OH269417   4.541   0.400  14.878 -0.1899  0.3805  0.0538
16001TIP3    H169418   4.516   0.449  14.956  0.5668  0.4552  0.2572
16001TIP3    H269419   4.619   0.445  14.845 -0.2343  0.0754 -0.4846
16002TIP3   OH269420   0.537   4.621   3.245  0.3480 -0.3537  0.0238
16002TIP3    H169421   0.546   4.686   3.175  0.7861 -1.5864 -1.1046
16002TIP3    H269422   0.447   4.588   3.235  0.4795 -0.6786 -0.0978
16003TIP3   OH269423   2.874   6.566   3.831  0.0375 -0.5970  0.0580
16003TIP3    H169424   2.796   6.609   3.866  0.0464  0.3754 -1.0759
16003TIP3    H269425   2.839   6.492   3.780 -0.0472 -1.0847  0.8034
16004TIP3   OH269426   0.289   5.384   2.997 -0.3955 -0.0987 -0.2734
16004TIP3    H169427   0.251   5.440   2.928  2.1520  0.2626 -1.5025
16004TIP3    H269428   0.262   5.426   3.079 -0.2854  1.7553 -1.1320
16005TIP3   OH269429   0.370   2.873   4.586 -0.1507  0.0935 -0.3532
16005TIP3    H169430   0.363   2.951   4.531  0.1015 -0.4513 -1.1687
16005TIP3    H269431   0.418   2.810   4.533  0.4272 -0.3200  0.6371
16006TIP3   OH269432   1.582   6.003  15.556  0.2686  0.0942  0.1604
16006TIP3    H169433   1.676   5.993  15.543  0.6847  0.3091  2.5206
16006TIP3    H269434   1.564   6.093  15.527  0.2550 -0.6992 -2.5744
16007TIP3   OH269435   5.290   2.001   0.399  0.0189  0.0932 -0.4893
16007TIP3    H169436   5.238   2.081   0.391 -0.7514 -0.3013  0.3756
16007TIP3    H269437   5.322   1.984   0.311  1.9477  2.4956 -0.3374
16008TIP3   OH269438   0.031   2.499  15.466  0.0618 -0.1771 -0.4573
16008TIP3    H169439  -0.031   2.429  15.488 -0.2112 -0.1276 -1.0594
16008TIP3    H269440   0.076   2.516  15.548 -1.1619  0.2304  0.1635
16009TIP3   OH269441   1.970   6.417  14.030  0.6548 -0.2598  0.3490
16009TIP3    H169442   1.913   6.359  13.981  1.9534 -1.5728  0.3201
16009TIP3    H269443   1.983   6.373  14.114  0.4471  0.7405  0.9218
16010TIP3   OH269444   4.316   5.410   0.034 -0.2280  0.5468 -0.2649
16010TIP3    H169445   4.252   5.480   0.047  1.3025  1.7525  1.1610
16010TIP3    H269446   4.277   5.333   0.076 -0.9050  1.1480  0.2206
16011TIP3   OH269447   2.286   4.975  16.084 -0.2341 -0.4159 -0.1876
16011TIP3    H169448   2.376   4.996  16.059 -0.3180 -0.4799 -0.5462
16011TIP3    H269449   2.272   5.024  16.165  0.2316 -0.6652  0.0484
16012TIP3   OH269450   4.291   1.944  16.195  0.4924  0.8532  0.0294
16012TIP3    H169451   4.214   1.930  16.141  0.8691 -0.9741 -0.1015
16012TIP3    H269452   4.256   1.973  16.280 -0.3612 -0.0581  0.0032
16013TIP3   OH269453   4.653   3.385   3.516 -0.0804 -0.4758  0.3635
16013TIP3    H169454   4.665   3.446   3.589 -2.0854 -0.2598  0.5883
16013TIP3    H269455   4.575   3.335   3.540 -1.1180 -0.0330 -1.8330
16014TIP3   OH269456   3.454   3.832  14.858  0.1932 -0.3141 -0.4100
16014TIP3    H169457   3.548   3.836  14.879 -0.0339 -0.6647  0.6890
16014TIP3    H269458   3.423   3.921  14.876  0.2970 -0.2051 -0.7473
16015TIP3   OH269459   0.205   3.707   4.727  0.0288  0.1620 -0.0347
16015TIP3    H169460   0.209   3.766   4.803  0.8726  2.1511 -1.5164
16015TIP3    H269461   0.112   3.689   4.717 -0.1203  0.0134  1.3327
16016TIP3   OH269462   4.878   3.989   0.126 -0.4409  0.2603  0.1587
16016TIP3    H169463   4.896   4.078   0.096  1.0792  0.2074  0.8239
16016TIP3    H269464   4.832   3.948   0.053 -0.0187  1.1988 -0.6589
16017TIP3   OH269465   0.973   0.439  15.141  0.0672 -0.1659  0.2761
16017TIP3    H169466   0.878   0.442  15.150  0.1339 -0.4663  1.2079
16017TIP3    H269467   1.000   0.531  15.144 -0.0594 -0.1597  1.7689
16018TIP3   OH269468   3.201   1.784  12.158  0.2813  0.2553 -0.2934
16018TIP3    H169469   3.259   1.709  12.171 -0.3053 -0.2368 -0.4730
16018TIP3    H269470   3.125   1.765  12.213 -0.0424  0.5276 -0.6424
16019TIP3   OH269471   1.369   1.628  13.107  0.6440 -0.0744  0.3963
16019TIP3    H169472   1.417   1.693  13.056  0.5318  0.1291  0.5486
16019TIP3    H269473   1.377   1.547  13.056 -1.1978  0.5577 -1.0301
16020TIP3   OH269474   2.523   4.373  15.739  0.6728 -0.0489 -0.5684
16020TIP3    H169475   2.427   4.372  15.735  0.5478 -1.0702  1.5432
16020TIP3    H269476   2.550   4.293  15.695  0.3941 -0.9458  0.8235
16021TIP3   OH269477   5.591   6.733   2.942 -0.2534 -0.0271 -0.3085
16021TIP3    H169478   5.644   6.727   2.863 -1.6139  1.1307 -1.3625
16021TIP3    H269479   5.589   6.827   2.963  1.2186 -0.4344  1.9410
16022TIP3   OH269480   4.318   2.622   6.005 -0.4296  0.5776 -0.1325
16022TIP3    H169481   4.404   2.631   6.046 -0.9376 -0.5753  1.2661
16022TIP3    H269482   4.336   2.573   5.924  0.4153  1.7543 -0.6867
16023TIP3   OH269483   3.712   1.241   2.035  0.2874 -0.0567 -0.5201
16023TIP3    H169484   3.795   1.247   2.082  0.4394  0.7583 -0.8833
16023TIP3    H269485   3.646   1.267   2.099  0.6155  2.3920 -1.0967
16024TIP3   OH269486   4.719   3.780   3.558  0.0437  0.1942  0.0455
16024TIP3    H169487   4.712   3.858   3.613 -0.6930 -0.7304  1.3052
16024TIP3    H269488   4.682   3.806   3.474  0.9674  1.5626  0.0300
16025TIP3   OH269489   0.793   4.986   1.226  0.9133 -0.6904  0.6304
16025TIP3    H169490   0.773   5.068   1.272 -0.9073 -1.0926  0.6449
16025TIP3    H269491   0.885   4.970   1.246  1.6560  1.8949 -0.2610
16026TIP3   OH269492   1.883   4.740  16.790  0.6667 -0.0948 -0.7514
16026TIP3    H169493   1.977   4.759  16.791  1.0780 -1.9402  0.9503
16026TIP3    H269494   1.843   4.818  16.828  1.4479  0.7949 -1.6669
16027TIP3   OH269495   6.304   2.162   4.023 -0.0018  0.2928  0.2782
16027TIP3    H169496   6.280   2.089   3.965 -1.6178  0.0128  1.2524
16027TIP3    H269497   6.224   2.181   4.072  1.0046  1.2913  1.5957
16028TIP3   OH269498   3.197   5.387  16.147 -0.4216  0.4533  0.7388
16028TIP3    H169499   3.246   5.387  16.065  0.3939 -0.1249  1.2157
16028TIP3    H269500   3.254   5.344  16.209 -1.7458 -0.7020  1.1973
16029TIP3   OH269501   3.535   2.990   2.768 -0.4197  0.1967 -0.0950
16029TIP3    H169502   3.603   2.979   2.835  1.1947  0.9608 -1.5285
16029TIP3    H269503   3.525   3.084   2.759  0.8369  0.1960 -2.2376
16030TIP3   OH269504   5.449   5.575   0.041  0.2745 -0.1858 -0.0024
16030TIP3    H169505   5.478   5.664   0.061  1.9883 -0.8016  0.3667
16030TIP3    H269506   5.521   5.536  -0.007 -1.4962 -0.5792 -2.5629
16031TIP3   OH269507   5.912   2.222   0.595  0.8568  0.3433  0.1590
16031TIP3    H169508   5.898   2.149   0.655  0.2669  1.9376  2.0437
16031TIP3    H269509   5.850   2.205   0.523 -0.4497 -0.1799  1.3552
16032TIP3   OH269510   3.560   0.912  13.305  0.0735  0.5025  0.1112
16032TIP3    H169511   3.655   0.916  13.296  0.1855  1.0561  1.3076
16032TIP3    H269512   3.526   0.917  13.216  1.2107 -1.6460 -0.5198
16033TIP3   OH269513   1.039   1.749  12.153  0.3179  0.1049  0.2434
16033TIP3    H169514   1.027   1.837  12.188 -1.5599 -0.6692  1.7853
16033TIP3    H269515   1.020   1.757  12.060 -3.8984  0.7630  0.9519
16034TIP3   OH269516   5.173   2.298   4.168 -0.4024  0.3621  0.0620
16034TIP3    H169517   5.095   2.328   4.214 -1.2248 -0.9681 -0.4044
16034TIP3    H269518   5.238   2.284   4.238 -0.2768  2.2337  0.3714
16035TIP3   OH269519   4.216   1.811  15.034 -0.4418  0.1719  0.6164
16035TIP3    H169520   4.308   1.821  15.057 -0.3975  0.0562  0.4911
16035TIP3    H269521   4.214   1.739  14.970 -0.3204  1.7687 -1.2845
16036TIP3   OH269522   4.083   3.912   4.952  0.2777  0.4728 -0.5464
16036TIP3    H169523   4.011   3.899   5.014  0.9888 -0.4084  0.1068
16036TIP3    H269524   4.091   3.827   4.907  1.4050  0.3305 -0.0825
16037TIP3   OH269525   3.420   6.620  12.581  0.8337 -0.2845  0.1153
16037TIP3    H169526   3.440   6.581  12.665  1.2438  0.8485  0.5648
16037TIP3    H269527   3.338   6.578  12.553 -0.0422  0.2687  1.7142
16038TIP3   OH269528   1.688   2.330  14.841 -0.1531  0.8612 -0.5499
16038TIP3    H169529   1.733   2.246  14.835 -0.8178  0.3044  1.5123
16038TIP3    H269530   1.752   2.394  14.809  1.8297 -0.0036  1.3978
16039TIP3   OH269531   0.856   6.348   5.533  0.7496  0.5022 -0.4501
16039TIP3    H169532   0.833   6.256   5.551  2.8732 -0.0669 -0.3523
16039TIP3    H269533   0.815   6.366   5.449 -0.3936 -0.2444 -0.0955
16040TIP3   OH269534   4.584   3.488  14.247  0.7123 -0.5209 -0.1551
16040TIP3    H169535   4.633   3.442  14.179  1.4045 -0.3625  0.2159
16040TIP3    H269536   4.538   3.558  14.201  0.5204 -0.9160 -0.5679
16041TIP3   OH269537   3.368   3.219  11.843  0.1674  0.0488  0.3453
16041TIP3    H169538   3.301   3.211  11.775  1.5299  0.3941 -1.0937
16041TIP3    H269539   3.352   3.146  11.902  0.0119 -1.3353 -1.3325
16042TIP3   OH269540   4.208   3.469   5.430 -0.4615  0.1320  0.2235
16042TIP3    H169541   4.278   3.415   5.392 -0.2657  0.4672  0.1037
16042TIP3    H269542   4.128   3.421   5.410 -0.2796 -0.1791  0.2296
16043TIP3   OH269543   5.366   1.195   3.854 -0.4395  0.0946 -0.0801
16043TIP3    H169544   5.433   1.157   3.797  0.1183  1.1260 -0.1352
16043TIP3    H269545   5.407   1.201   3.940 -0.5979  0.3582 -0.0196
16044TIP3   OH269546   2.257   2.572  14.008  0.9988  0.7575 -0.1057
16044TIP3    H169547   2.203   2.616  14.074  0.0145  0.5005 -0.7392
16044TIP3    H269548   2.233   2.612  13.925  3.7372  2.5927 -0.1485
16045TIP3   OH269549   1.034   1.225   3.839  0.1626  0.2752 -0.2228
16045TIP3    H169550   1.116   1.234   3.888  0.7002 -1.2028 -0.8072
16045TIP3    H269551   1.033   1.301   3.781 -0.0269  1.5499  1.3677
16046TIP3   OH269552   4.248   2.797   1.250 -0.5396 -0.3380  0.0794
16046TIP3    H169553   4.304   2.845   1.189  0.1786  0.6218  1.4474
16046TIP3    H269554   4.167   2.849   1.253  0.0916  0.6245  1.2620
16047TIP3   OH269555   1.712   5.190   3.716  0.4328 -0.0917 -0.0548
16047TIP3    H169556   1.729   5.234   3.800  1.2926  1.7663 -1.1392
16047TIP3    H269557   1.719   5.097   3.736 -0.2492  0.2658  2.1133
16048TIP3   OH269558   2.441   2.665   4.482 -0.3660 -0.1483 -0.2226
16048TIP3    H169559   2.471   2.755   4.470  0.4326 -0.4117 -0.2594
16048TIP3    H269560   2.352   2.674   4.515 -0.8221  0.6426 -1.5989
16049TIP3   OH269561   5.111   1.933  13.093 -0.0879  0.3121 -0.3751
16049TIP3    H169562   5.171   1.868  13.056  0.2863 -0.0817  0.8600
16049TIP3    H269563   5.044   1.881  13.137 -0.3873  0.7540 -0.3062
16050TIP3   OH269564   2.398   3.746  14.451  0.1191  0.2425  0.4257
16050TIP3    H169565   2.332   3.815  14.452 -1.4653 -1.1565 -0.9897
16050TIP3    H269566   2.477   3.789  14.418 -0.7469  1.4423 -0.1547
16051TIP3   OH269567   5.117   4.331   5.319 -0.4420 -0.4858  0.4980
16051TIP3    H169568   5.198   4.284   5.337 -0.0532  0.7685  2.2412
16051TIP3    H269569   5.142   4.423   5.317 -1.9457  0.0096  2.0604
16052TIP3   OH269570   3.692   1.122  13.692  0.2527 -0.2561 -0.0119
16052TIP3    H169571   3.761   1.104  13.756  0.3861 -2.6149 -0.7042
16052TIP3    H269572   3.674   1.037  13.652 -0.3764  0.9510 -2.5454
16053TIP3   OH269573   0.552   2.842  12.966 -0.2159 -0.3018 -0.1080
16053TIP3    H169574   0.518   2.809  13.049 -0.8993  2.2582  0.7486
16053TIP3    H269575   0.497   2.801  12.899 -0.1749 -1.7996  0.7507
16054TIP3   OH269576   5.314   6.445   0.619  0.4289 -0.3909 -0.2682
16054TIP3    H169577   5.394   6.440   0.670  0.8209 -0.0060 -0.8362
16054TIP3    H269578   5.313   6.366   0.566  2.5471  1.4119 -3.2970
16055TIP3   OH269579   0.639   6.549  12.944 -0.3946  0.4158 -0.1026
16055TIP3    H169580   0.572   6.617  12.934 -1.4586 -0.5293  0.4198
16055TIP3    H269581   0.691   6.555  12.865 -1.1277  1.1405 -0.5486
16056TIP3   OH269582   0.010   1.298   2.290  0.2708  0.7203  0.2820
16056TIP3    H169583  -0.077   1.293   2.251  0.9609 -0.0181 -1.2455
16056TIP3    H269584   0.005   1.241   2.367 -0.8062  1.3365  0.6997
16057TIP3   OH269585   3.704   2.867  11.833 -0.1524  0.3051  0.5643
16057TIP3    H169586   3.667   2.904  11.913  0.8885  1.4692  0.5243
16057TIP3    H269587   3.698   2.937  11.769 -0.2122 -0.3483 -0.1618
16058TIP3   OH269588   5.266   1.858   2.355 -0.1030 -0.4727  0.1337
16058TIP3    H169589   5.295   1.926   2.294  1.0963 -1.8004 -0.8580
16058TIP3    H269590   5.326   1.785   2.339 -2.6138 -2.5527 -0.3647
16059TIP3   OH269591   4.734   0.992  14.801 -0.0020  0.4124 -0.3818
16059TIP3    H169592   4.804   1.027  14.856  1.5913 -1.4779 -1.0958
16059TIP3    H269593   4.681   0.938  14.860  2.7818 -3.1611 -0.8227
16060TIP3   OH269594   5.261   5.815  17.308 -0.8540  0.1156  0.0190
16060TIP3    H169595   5.240   5.726  17.338 -1.9430  0.3344 -0.0567
16060TIP3    H269596   5.199   5.871  17.355 -0.7694  0.7396 -0.6003
16061TIP3   OH269597   4.143   4.274   1.252  0.1922  0.8054  0.0895
16061TIP3    H169598   4.062   4.244   1.293  0.9582  1.6615  2.4419
16061TIP3    H269599   4.186   4.194   1.223 -0.5878  0.1688  0.6313
16062TIP3   OH269600   5.975   5.494   4.861 -0.0430  0.3480 -0.3025
16062TIP3    H169601   6.006   5.585   4.862 -1.9091  1.0571 -1.2257
16062TIP3    H269602   6.019   5.453   4.936  2.7528  1.2890 -1.3302
16063TIP3   OH269603   6.378   6.238   5.479 -0.2844 -0.1103  0.5588
16063TIP3    H169604   6.369   6.305   5.547  1.9466  0.3866  0.4257
16063TIP3    H269605   6.325   6.271   5.406 -0.4695  0.7297  1.0587
16064TIP3   OH269606   0.814   3.782  11.985  0.0612 -0.1529  0.0726
16064TIP3    H169607   0.795   3.861  11.933 -0.7739 -0.7977 -0.6490
16064TIP3    H269608   0.743   3.722  11.962  1.3324 -1.5561 -0.2986
16065TIP3   OH269609   5.918   6.582  14.065  0.5052 -0.5385 -0.1819
16065TIP3    H169610   5.856   6.580  14.138 -2.0175  0.2693 -2.1136
16065TIP3    H269611   5.987   6.642  14.092  0.5193 -1.5029  2.1091
16066TIP3   OH269612   2.744   1.983   0.514 -0.0339  0.0540 -0.4433
16066TIP3    H169613   2.690   1.911   0.547  0.5179 -0.1666 -0.0032
16066TIP3    H269614   2.786   1.949   0.436 -1.3613  0.5846 -1.4231
16067TIP3   OH269615   0.250   1.639  11.816 -0.1947 -0.0585 -0.8079
16067TIP3    H169616   0.236   1.569  11.752  1.7960 -1.0676 -0.2410
16067TIP3    H269617   0.208   1.607  11.896  1.6836 -1.2361 -0.2184
16068TIP3   OH269618   4.443   5.143  17.145 -0.4035  0.1322  0.0154
16068TIP3    H169619   4.475   5.225  17.184  1.2225 -0.9817  1.1294
16068TIP3    H269620   4.365   5.121  17.196  0.0249  0.2181  0.7241
16069TIP3   OH269621   1.851   4.652  14.161  0.1347 -0.7769  0.1281
16069TIP3    H169622   1.840   4.641  14.255 -0.7020  1.5299  0.3706
16069TIP3    H269623   1.763   4.640  14.125  0.2381 -0.5097 -0.2217
16070TIP3   OH269624   2.197   6.206  13.984 -0.0873 -0.0817 -0.4649
16070TIP3    H169625   2.183   6.219  14.078  1.0307  0.8587 -0.3926
16070TIP3    H269626   2.118   6.162  13.954 -0.3641 -0.6302  0.9615
16071TIP3   OH269627   0.460   3.067  14.308 -0.1947  0.5383  0.0448
16071TIP3    H169628   0.390   3.007  14.282 -0.5886  0.7765  0.5411
16071TIP3    H269629   0.434   3.151  14.272  0.0420  0.5457 -0.1126
16072TIP3   OH269630   2.798   1.598   0.236  0.4441 -0.7810  0.9970
16072TIP3    H169631   2.724   1.653   0.262  0.0863 -1.0566  0.5827
16072TIP3    H269632   2.842   1.649   0.168  0.9188 -0.4067  1.5791
16073TIP3   OH269633   1.376   1.878  16.340  0.2268  0.4023 -0.0696
16073TIP3    H169634   1.294   1.926  16.330 -0.1185  0.7346  3.4008
16073TIP3    H269635   1.444   1.941  16.315 -0.4425  0.8190 -0.8991
16074TIP3   OH269636   4.467   6.434  10.878  0.1736  0.2166 -0.4450
16074TIP3    H169637   4.474   6.491  10.954  1.2820 -0.6678  0.1484
16074TIP3    H269638   4.515   6.355  10.903 -2.3604 -1.5385 -0.7207
16075TIP3   OH269639   1.383   2.835  14.283 -0.2212  0.1562 -0.2149
16075TIP3    H169640   1.418   2.777  14.352  1.2268 -1.0425 -1.8620
16075TIP3    H269641   1.461   2.867  14.238 -1.1223  1.4519 -0.8902
16076TIP3   OH269642   1.220   0.270  15.521  0.7022 -0.6880  0.3850
16076TIP3    H169643   1.208   0.201  15.456 -0.0851 -1.0029  0.8482
16076TIP3    H269644   1.295   0.321  15.490  1.2588 -1.7240  0.0178
16077TIP3   OH269645   4.403   0.124  14.597  0.3066  0.4044 -0.2481
16077TIP3    H169646   4.422   0.100  14.688 -1.3782  1.8680  0.5306
16077TIP3    H269647   4.415   0.219  14.594 -1.0794  0.5805 -1.1709
16078TIP3   OH269648   2.778   3.480  14.493  0.7666 -0.5486  0.7083
16078TIP3    H169649   2.851   3.496  14.434  0.6360  2.0572  1.1515
16078TIP3    H269650   2.700   3.493  14.439  0.6494  0.2110  1.0489
16079TIP3   OH269651   6.166   0.117   3.246 -0.9242  0.4017 -0.1337
16079TIP3    H169652   6.092   0.170   3.273 -1.8429 -1.6973  1.8355
16079TIP3    H269653   6.128   0.049   3.190  0.0757  1.1984 -1.8525
16080TIP3   OH269654   2.670   4.416   4.226 -0.0779  0.0665 -0.0505
16080TIP3    H169655   2.588   4.465   4.228 -1.2181 -1.7869  0.3683
16080TIP3    H269656   2.688   4.403   4.133 -0.7209 -0.2493 -0.1350
16081TIP3   OH269657   6.725   5.407   6.500  0.6204  0.7801  0.0129
16081TIP3    H169658   6.671   5.357   6.561 -2.3986  0.3472 -2.7337
16081TIP3    H269659   6.802   5.432   6.551 -0.5579 -1.4889  3.2426
16082TIP3   OH269660   0.567   4.427  14.390 -0.3620  0.4471  0.0499
16082TIP3    H169661   0.528   4.382  14.465 -0.3112 -0.6054 -0.5267
16082TIP3    H269662   0.598   4.510  14.425 -1.1678  0.3744  0.9882
16083TIP3   OH269663   3.683   5.900  13.993 -0.1656 -0.0985  0.1663
16083TIP3    H169664   3.620   5.835  13.962  0.0403  0.1393 -0.7845
16083TIP3    H269665   3.742   5.912  13.919 -0.4772  1.5173  0.1508
16084TIP3   OH269666   2.588   1.477  16.698 -0.1645 -0.1640  0.2685
16084TIP3    H169667   2.603   1.499  16.790  0.7600  1.1189 -0.1686
16084TIP3    H269668   2.495   1.490  16.685 -0.1683  0.4069  0.8269
16085TIP3   OH269669   6.000   3.922  15.971  0.1480  0.2412  0.1472
16085TIP3    H169670   6.052   3.922  16.051  2.0981 -0.5082 -1.0629
16085TIP3    H269671   6.043   3.859  15.914  0.0211  2.1999 -2.2605
16086TIP3   OH269672   4.625   0.089  15.891  0.5768  0.0098 -0.9140
16086TIP3    H169673   4.613   0.080  15.797  0.3985 -1.7818 -0.7372
16086TIP3    H269674   4.714   0.057  15.907  0.0689 -1.1545 -0.3015
16087TIP3   OH269675   3.107   1.691   3.257 -0.6193  0.2789 -0.5626
16087TIP3    H169676   3.131   1.738   3.337 -1.7739 -0.3955  0.2089
16087TIP3    H269677   3.060   1.755   3.204 -0.0245  0.6730 -0.6243
16088TIP3   OH269678   1.282   4.981  16.896  0.1118 -0.1273  0.2664
16088TIP3    H169679   1.290   4.894  16.858  0.0554 -0.3935  0.8621
16088TIP3    H269680   1.365   5.024  16.876  0.0022 -0.1846 -0.3418
16089TIP3   OH269681   5.804   0.342   4.026 -0.2729  0.3992  0.0485
16089TIP3    H169682   5.899   0.334   4.020 -0.1447 -0.2279  2.1268
16089TIP3    H269683   5.781   0.406   3.958  1.8841  2.2838  0.9505
16090TIP3   OH269684   6.618   0.142  15.352 -0.0993  0.4599  0.2766
16090TIP3    H169685   6.692   0.189  15.314  0.1188 -0.1682 -0.0872
16090TIP3    H269686   6.542   0.177  15.306 -0.0630  1.2847  0.8244
16091TIP3   OH269687   0.708   6.532  10.658 -0.0871  0.4909 -0.7825
16091TIP3    H169688   0.640   6.479  10.617 -1.4551  2.3165 -0.9789
16091TIP3    H269689   0.755   6.470  10.714 -1.5122 -0.9487 -1.0793
16092TIP3   OH269690   6.610   5.012  13.721 -0.8343 -0.4881  0.1175
16092TIP3    H169691   6.617   4.964  13.803 -2.0517  0.2437  0.6659
16092TIP3    H269692   6.566   5.094  13.744  0.0473  0.3503 -1.0224
16093TIP3   OH269693   1.950   4.381   4.751 -0.9075 -0.6324  0.3336
16093TIP3    H169694   1.960   4.288   4.732  0.7423 -0.1684 -1.4196
16093TIP3    H269695   2.036   4.408   4.784 -1.1258  0.4164  0.0867
16094TIP3   OH269696   2.839   0.754  16.139  0.5831  0.0589 -0.0501
16094TIP3    H169697   2.803   0.832  16.097  0.2212  0.2674  0.6310
16094TIP3    H269698   2.796   0.750  16.224  1.6752 -0.0633  0.5191
16095TIP3   OH269699   0.133   3.919  13.519  0.3101  0.3380 -0.0738
16095TIP3    H169700   0.151   3.849  13.456  0.9426 -0.4443  0.9678
16095TIP3    H269701   0.083   3.877  13.588 -0.2356  1.1622  0.0486
16096TIP3   OH269702   4.666   5.852  15.877  0.0095 -0.3450  0.1071
16096TIP3    H169703   4.727   5.792  15.835 -2.0659 -1.0354 -2.1292
16096TIP3    H269704   4.620   5.800  15.942  0.0948 -0.4734  0.0630
16097TIP3   OH269705   6.333   0.721   5.616 -0.2964  0.0908  0.0367
16097TIP3    H169706   6.320   0.797   5.672 -0.4125 -0.5749  0.9370
16097TIP3    H269707   6.427   0.702   5.623 -0.3452 -0.1084  0.1644
16098TIP3   OH269708   4.096   2.789   5.247 -0.0925  0.6736  0.3669
16098TIP3    H169709   4.158   2.859   5.226  0.8436 -0.1795  0.2264
16098TIP3    H269710   4.039   2.827   5.315 -0.3369  1.9425 -0.5140
16099TIP3   OH269711   3.233   3.748   0.086 -0.0315  0.3797 -0.0807
16099TIP3    H169712   3.282   3.702   0.017  0.2961 -0.7454  0.8791
16099TIP3    H269713   3.248   3.696   0.165 -4.7333 -1.5240 -0.1578
16100TIP3   OH269714   1.380   6.662  11.816  0.1404 -0.5613 -0.0950
16100TIP3    H169715   1.371   6.695  11.727  0.4270  0.7886  0.3372
16100TIP3    H269716   1.414   6.573  11.807 -0.4598 -0.6748 -1.3337
16101TIP3   OH269717   6.391   1.450  15.230 -0.4486  0.5776  0.1543
16101TIP3    H169718   6.434   1.447  15.316 -0.7200 -0.6942  0.2533
16101TIP3    H269719   6.299   1.465  15.251 -0.6142 -0.3564  0.1280
16102TIP3   OH269720   1.233   2.010  16.597  0.3660 -0.1349  0.0835
16102TIP3    H169721   1.256   2.064  16.673  1.9355 -0.5752 -0.0372
16102TIP3    H269722   1.260   2.063  16.522  1.7311 -0.9685 -0.0399
16103TIP3   OH269723   4.750   0.647   1.111  0.2418  0.3362  0.3806
16103TIP3    H169724   4.792   0.585   1.171 -0.2155  1.0171  1.4448
16103TIP3    H269725   4.797   0.729   1.125  0.1877  0.4832 -0.2730
16104TIP3   OH269726   3.696   0.545  13.475  0.2714 -0.0382 -0.3247
16104TIP3    H169727   3.779   0.576  13.513  0.7445  0.3726 -1.6411
16104TIP3    H269728   3.629   0.573  13.538  0.9555  1.2822 -0.1419
16105TIP3   OH269729   4.335   4.932  14.560 -0.2624 -0.6741 -0.4941
16105TIP3    H169730   4.387   4.859  14.526  0.1187 -0.6119 -0.0601
16105TIP3    H269731   4.346   5.002  14.497  0.7538 -0.4272 -0.0587
16106TIP3   OH269732   2.975   2.749   4.591  0.4327 -0.5379 -0.3102
16106TIP3    H169733   2.960   2.824   4.532 -2.5203  0.1194  1.1056
16106TIP3    H269734   2.915   2.682   4.560  0.1849 -0.8574  0.8321
16107TIP3   OH269735   4.148   2.231  14.172 -0.4163  0.1468  0.3431
16107TIP3    H169736   4.183   2.238  14.261 -0.8142  0.4601  0.4749
16107TIP3    H269737   4.156   2.138  14.151 -1.7024 -0.2043  1.2756
16108TIP3   OH269738   5.317   0.308   0.065 -0.4254 -0.2910 -0.0320
16108TIP3    H169739   5.225   0.332   0.055 -0.7640 -1.9699 -1.4352
16108TIP3    H269740   5.317   0.212   0.062  1.0810 -0.5048  2.9337
16109TIP3   OH269741   1.819   6.245  14.929 -0.5346  0.5121  0.0728
16109TIP3    H169742   1.900   6.289  14.902 -0.5092  0.5841  0.2612
16109TIP3    H269743   1.774   6.224  14.847  0.8164 -1.7474 -0.1652
16110TIP3   OH269744   1.088   5.247  10.810 -0.6434 -0.4332 -0.3817
16110TIP3    H169745   1.000   5.284  10.804 -0.5680 -0.4948 -2.5038
16110TIP3    H269746   1.083   5.164  10.764 -0.1699 -1.9657  2.1147
16111TIP3   OH269747   4.269   1.909  14.712 -0.7777  0.0557  0.3618
16111TIP3    H169748   4.274   1.824  14.756 -1.3453 -1.8628 -2.9762
16111TIP3    H269749   4.355   1.949  14.726  0.1718 -1.9190  0.4156
16112TIP3   OH269750   0.448   0.588  14.170 -0.2232 -0.5245 -0.5591
16112TIP3    H169751   0.428   0.680  14.182  1.9229 -0.0567 -0.1348
16112TIP3    H269752   0.376   0.541  14.212 -1.3415  0.9417 -0.7831
16113TIP3   OH269753   4.682   0.786  14.197 -0.3095  0.0238 -0.1919
16113TIP3    H169754   4.732   0.718  14.242 -1.3528 -0.3166  0.4911
16113TIP3    H269755   4.683   0.760  14.105 -0.3789 -0.7160  0.0116
16114TIP3   OH269756   2.977   1.431   1.417  0.4585 -0.0068 -0.6231
16114TIP3    H169757   3.047   1.366   1.429  0.8229  0.3595 -0.7194
16114TIP3    H269758   3.000   1.501   1.478 -1.6691 -1.3367  1.8790
16115TIP3   OH269759   3.438   5.120   2.091 -0.1309  0.2653  0.5144
16115TIP3    H169760   3.460   5.060   2.020 -1.2195 -1.0924  1.2710
16115TIP3    H269761   3.462   5.206   2.058  1.9594 -0.6082 -0.4163
16116TIP3   OH269762   3.339   1.599   0.103 -0.3232  0.2777  0.4193
16116TIP3    H169763   3.361   1.641   0.020 -0.9760 -0.5154 -0.1669
16116TIP3    H269764   3.417   1.613   0.158  1.4556 -1.9018 -1.3579
16117TIP3   OH269765   2.584   4.331  12.349  0.6794 -0.0014  0.3448
16117TIP3    H169766   2.653   4.274  12.384 -0.0915 -2.1137 -1.3828
16117TIP3    H269767   2.532   4.274  12.293 -0.4507  2.3381 -1.1116
16118TIP3   OH269768   4.987   5.718  11.670 -0.9205  0.2922 -0.1198
16118TIP3    H169769   4.944   5.766  11.599  0.4557  0.6490 -0.7410
16118TIP3    H269770   5.080   5.718  11.647 -0.2647  1.3280  2.2010
16119TIP3   OH269771   5.250   2.567  12.323  0.1280 -0.0233  0.2681
16119TIP3    H169772   5.285   2.523  12.245  0.8414 -2.9733  2.0675
16119TIP3    H269773   5.324   2.572  12.383 -0.1734  3.0216  0.5431
16120TIP3   OH269774   2.098   3.891  15.620 -0.2773  0.2096 -0.5996
16120TIP3    H169775   2.078   3.811  15.669 -0.0432 -0.3846 -1.4404
16120TIP3    H269776   2.117   3.860  15.531  0.4386  1.1433 -0.7882
16121TIP3   OH269777   0.567   2.557   3.451  0.0554  0.1368  0.1464
16121TIP3    H169778   0.473   2.557   3.436 -0.0993 -0.5121  1.0358
16121TIP3    H269779   0.606   2.557   3.363 -0.7789 -0.9116 -0.2423
16122TIP3   OH269780   1.075   5.800   5.847  0.5864 -0.4125 -0.2432
16122TIP3    H169781   1.050   5.882   5.806 -0.5601 -0.3598  0.5179
16122TIP3    H269782   1.107   5.746   5.775 -0.6891 -0.0684 -1.1017
16123TIP3   OH269783   0.304   3.673   3.028 -0.6013  0.2755 -0.3579
16123TIP3    H169784   0.313   3.686   2.934 -1.3695 -0.6328 -0.5589
16123TIP3    H269785   0.307   3.578   3.040 -1.3353  0.3459  0.4453
16124TIP3   OH269786   5.986   1.310   2.511 -0.0740  0.1779  0.4228
16124TIP3    H169787   5.927   1.384   2.499 -0.6336 -0.2689  0.3597
16124TIP3    H269788   5.942   1.237   2.468  1.2103  0.1455 -0.9378
16125TIP3   OH269789   0.740   2.472  14.862  0.3159  0.3044 -0.0272
16125TIP3    H169790   0.692   2.554  14.866 -1.5771 -0.6717 -1.5230
16125TIP3    H269791   0.788   2.469  14.945  0.3931  2.8468  0.0905
16126TIP3   OH269792   2.412   5.940   0.116 -0.1909  0.0775 -0.3719
16126TIP3    H169793   2.488   5.895   0.154 -0.6421  0.4267  1.0158
16126TIP3    H269794   2.417   5.921   0.023  0.6703 -1.2914 -0.0791
16127TIP3   OH269795   2.303   1.668   3.515  0.0617  0.1467 -0.0941
16127TIP3    H169796   2.277   1.700   3.602  1.6863 -2.4521  1.5029
16127TIP3    H269797   2.390   1.704   3.501 -0.1063  0.3785 -0.5493
16128TIP3   OH269798   0.422   5.489   3.667 -0.1667  0.0977 -0.1243
16128TIP3    H169799   0.383   5.577   3.669  1.5264  0.8730  0.0244
16128TIP3    H269800   0.425   5.467   3.574 -2.2875 -0.6418 -0.0868
16129TIP3   OH269801   2.819   6.438   3.440  0.1934  0.2663 -0.0093
16129TIP3    H169802   2.731   6.460   3.471  0.0840 -1.1669  0.7744
16129TIP3    H269803   2.805   6.365   3.379  0.7687  0.5949 -0.5483
16130TIP3   OH269804   4.973   4.517   0.729 -0.3767  0.0515  0.4596
16130TIP3    H169805   5.000   4.427   0.709 -2.5844 -0.3178 -1.2833
16130TIP3    H269806   4.909   4.508   0.799 -0.8811  0.2074  0.0247
16131TIP3   OH269807   3.979   4.836  12.481  0.3870  0.8178 -0.4550
16131TIP3    H169808   3.991   4.860  12.389 -0.4144  0.9738 -0.5259
16131TIP3    H269809   3.885   4.842  12.495  0.3045 -0.8081 -0.0612
16132TIP3   OH269810   3.738   3.696  11.175 -0.0334  0.0084  0.0007
16132TIP3    H169811   3.706   3.637  11.244 -1.2291  2.9625  2.2428
16132TIP3    H269812   3.831   3.676  11.167  0.5058  0.3859  3.5967
16133TIP3   OH269813   3.031   2.955  12.289  0.0267  0.4537  0.2424
16133TIP3    H169814   2.995   3.037  12.324 -0.2627 -0.0392  1.1169
16133TIP3    H269815   3.108   2.938  12.344 -0.7849 -0.6525  1.0674
16134TIP3   OH269816   6.280   1.067   5.058  1.3784 -0.6476 -0.0075
16134TIP3    H169817   6.251   1.050   5.148 -0.6801  1.2366 -0.2183
16134TIP3    H269818   6.359   1.119   5.068  0.9843 -0.1674  0.7401
16135TIP3   OH269819   3.844   3.391  17.081 -0.0980  0.0079 -0.0946
16135TIP3    H169820   3.893   3.352  17.009 -1.1294 -1.3532 -0.0954
16135TIP3    H269821   3.856   3.330  17.154 -3.2106 -1.3617 -0.5998
16136TIP3   OH269822   3.675   4.383   3.901  0.1827  0.5335  0.3788
16136TIP3    H169823   3.757   4.432   3.898 -0.2278  1.1908 -0.3645
16136TIP3    H269824   3.606   4.449   3.896 -0.3866 -0.0601  0.1120
16137TIP3   OH269825   3.545   0.676  15.136 -0.6295  0.5825 -0.9233
16137TIP3    H169826   3.593   0.594  15.125 -2.4130 -0.4960 -0.9946
16137TIP3    H269827   3.518   0.700  15.047 -0.0204  1.3253 -0.9162
16138TIP3   OH269828   0.178   4.827   4.479 -0.5086  0.0602 -0.0288
16138TIP3    H169829   0.109   4.886   4.508  0.3702  0.5932  1.0310
16138TIP3    H269830   0.244   4.884   4.441 -1.1601 -0.5329 -2.2205
16139TIP3   OH269831   2.661   5.086   5.633 -0.2149  0.3573  0.6866
16139TIP3    H169832   2.635   5.056   5.721  1.1111  0.0229  0.9804
16139TIP3    H269833   2.732   5.027   5.608  0.5246  1.4803  0.0692
16140TIP3   OH269834   1.441   1.495   3.489  0.0146 -0.4764 -0.2848
16140TIP3    H169835   1.365   1.438   3.480  0.9475 -1.5893 -1.4924
16140TIP3    H269836   1.453   1.505   3.583 -0.4224 -1.9554 -0.0507
16141TIP3   OH269837   6.720   4.424  11.752 -0.1800 -0.4402 -0.4520
16141TIP3    H169838   6.726   4.443  11.658 -0.6413 -1.7415 -0.7760
16141TIP3    H269839   6.642   4.471  11.781 -0.0699 -0.0753 -0.7431
16142TIP3   OH269840   1.411   5.331   5.100 -0.1920  0.0370 -0.7727
16142TIP3    H169841   1.493   5.375   5.077 -0.9836  1.2171 -1.4334
16142TIP3    H269842   1.438   5.255   5.152  1.2594  1.0215 -0.0205
16143TIP3   OH269843   3.903   2.387  14.848 -1.2083  0.1149  0.4357
16143TIP3    H169844   3.880   2.478  14.831 -0.3644  0.0842 -1.0134
16143TIP3    H269845   3.990   2.392  14.889  0.2189 -0.0766 -2.3073
16144TIP3   OH269846   5.264   3.867   3.812 -0.2057 -0.9653 -0.3878
16144TIP3    H169847   5.303   3.907   3.890 -0.9423 -0.6676 -0.1586
16144TIP3    H269848   5.329   3.803   3.782  0.4792 -0.4421 -0.0619
16145TIP3   OH269849   3.898   4.243  11.487 -0.1836 -0.2590 -0.0420
16145TIP3    H169850   3.869   4.333  11.472 -1.4832 -0.3385  1.6755
16145TIP3    H269851   3.828   4.204  11.540  1.6105 -1.4539  1.5768
16146TIP3   OH269852   6.497   1.963  14.913  0.0684  0.2285 -0.0828
16146TIP3    H169853   6.442   1.886  14.925 -0.2714  0.8042  2.6294
16146TIP3    H269854   6.585   1.933  14.936 -0.0345  0.5751  0.7993
16147TIP3   OH269855   5.598   3.934  11.507 -0.2110  0.0509  0.0075
16147TIP3    H169856   5.508   3.967  11.508 -0.4408 -0.5392 -0.3183
16147TIP3    H269857   5.609   3.897  11.419 -0.6505 -2.5052  0.9303
16148TIP3   OH269858   2.606   4.538   3.619  0.4598  0.8449 -0.4807
16148TIP3    H169859   2.541   4.553   3.688  0.5239 -0.3176 -0.1537
16148TIP3    H269860   2.666   4.613   3.627  1.1134  0.1686  1.4957
16149TIP3   OH269861   2.287   3.204   4.795 -0.0823 -0.6515 -0.1162
16149TIP3    H169862   2.254   3.115   4.785 -0.0711 -0.7241  0.4393
16149TIP3    H269863   2.278   3.223   4.889  2.7214 -1.1925  0.3541
16150TIP3   OH269864   2.183   4.549   4.844  0.0037 -0.1887 -0.4699
16150TIP3    H169865   2.211   4.553   4.935  0.3413  1.5641 -0.6134
16150TIP3    H269866   2.252   4.499   4.800  0.6882  0.3533 -0.0371
16151TIP3   OH269867   3.240   1.965   6.579  0.0547 -0.1449 -0.2272
16151TIP3    H169868   3.174   1.980   6.511 -1.4620 -0.9048  1.0140
16151TIP3    H269869   3.240   2.046   6.630  2.9392  1.4238 -2.4143
16152TIP3   OH269870   0.885   2.613   2.109 -0.2400 -0.3884  0.5349
16152TIP3    H169871   0.792   2.613   2.134 -0.5023  0.4672 -0.3589
16152TIP3    H269872   0.885   2.583   2.018  0.2584  0.4710  0.2393
16153TIP3   OH269873   5.670   2.617   3.391  0.2167 -0.1783 -0.0869
16153TIP3    H169874   5.592   2.613   3.447  0.5118  1.0842  0.4618
16153TIP3    H269875   5.640   2.663   3.312 -0.1788 -1.8878 -0.9777
16154TIP3   OH269876   5.925   3.554   3.177 -0.3121 -0.3075  0.5368
16154TIP3    H169877   5.838   3.517   3.164  0.4485 -1.4672 -1.7328
16154TIP3    H269878   5.977   3.481   3.213  0.1942 -0.2220 -0.0047
16155TIP3   OH269879   1.139   3.886  13.464  0.0133  0.1652  0.0355
16155TIP3    H169880   1.171   3.937  13.390 -1.8860  0.9855 -0.2728
16155TIP3    H269881   1.211   3.826  13.484  2.0265  2.4055 -0.0742
16156TIP3   OH269882   1.303   6.109   1.109  0.3295  0.4075 -0.2451
16156TIP3    H169883   1.394   6.087   1.092  0.9879  2.3536  0.3814
16156TIP3    H269884   1.290   6.088   1.202  0.2952  0.5670 -0.2129
16157TIP3   OH269885   1.433   6.599  16.409  0.0036 -0.8456  0.3289
16157TIP3    H169886   1.524   6.599  16.439 -0.5008 -0.7533  1.9053
16157TIP3    H269887   1.382   6.627  16.485 -1.2012  0.9270 -1.0529
16158TIP3   OH269888   5.814   5.723  17.183  0.3492  0.7532  0.6080
16158TIP3    H169889   5.763   5.802  17.163  0.9276  0.3954 -3.0821
16158TIP3    H269890   5.749   5.660  17.214 -0.6952  1.7009  0.4165
16159TIP3   OH269891   4.764   4.054   3.347 -0.1328  0.1828  0.0394
16159TIP3    H169892   4.681   4.025   3.384  0.3266  0.6189  1.5047
16159TIP3    H269893   4.752   4.050   3.252 -1.4456 -0.7948  0.2261
16160TIP3   OH269894   6.292   3.747  11.532  0.3460  0.1684 -0.0508
16160TIP3    H169895   6.328   3.708  11.612  1.4643  0.7134 -0.2621
16160TIP3    H269896   6.350   3.821  11.514  2.5807 -2.1258 -3.4655
16161TIP3   OH269897   2.703   1.964  16.541  0.5673  0.0108 -0.0279
16161TIP3    H169898   2.635   1.900  16.559  0.0669  0.5816  0.1512
16161TIP3    H269899   2.746   1.932  16.462 -1.9796  1.2811 -2.0698
16162TIP3   OH269900   2.068   0.489   5.607  0.6470 -0.5021 -0.0936
16162TIP3    H169901   2.026   0.567   5.570  2.6369  0.8938  0.4109
16162TIP3    H269902   2.144   0.523   5.655  2.3995 -2.8437 -1.0026
16163TIP3   OH269903   1.221   4.696  15.882  0.3136  0.4612  0.1268
16163TIP3    H169904   1.167   4.635  15.832 -0.7317  0.9096  0.6789
16163TIP3    H269905   1.171   4.712  15.962  1.3599  0.7490  0.7379
16164TIP3   OH269906   6.020   3.551  13.883 -0.1805  0.6884  0.1702
16164TIP3    H169907   5.987   3.616  13.946 -1.2376  0.8016 -0.4715
16164TIP3    H269908   6.048   3.604  13.808 -0.4815  0.4501 -0.1126
16165TIP3   OH269909   4.821   5.185   1.730  0.1527 -0.0488 -0.0688
16165TIP3    H169910   4.771   5.192   1.811 -0.0300 -0.4305 -0.1477
16165TIP3    H269911   4.795   5.261   1.679  1.6305  1.2161  0.9735
16166TIP3   OH269912   6.154   1.102   1.728  0.2277  0.5382 -0.4246
16166TIP3    H169913   6.102   1.150   1.791 -2.4135 -1.3804 -0.9628
16166TIP3    H269914   6.184   1.024   1.775  0.6934  0.5199 -0.7419
16167TIP3   OH269915   0.271   1.434   4.580  0.0121 -0.3967 -0.2359
16167TIP3    H169916   0.258   1.528   4.590 -0.4654 -0.5679  1.0682
16167TIP3    H269917   0.360   1.425   4.547  0.3987  0.4962  0.5071
16168TIP3   OH269918   2.857   4.202   3.354  0.1556 -0.1909  0.0181
16168TIP3    H169919   2.829   4.135   3.291  0.7877  0.2170 -0.7187
16168TIP3    H269920   2.841   4.162   3.440  0.1511 -1.1289 -0.4035
16169TIP3   OH269921   6.549   3.486  12.949  0.2137 -0.0461 -0.3104
16169TIP3    H169922   6.574   3.577  12.966 -1.3636  0.1643  1.0898
16169TIP3    H269923   6.502   3.458  13.027 -2.7885 -0.7990 -2.2065
16170TIP3   OH269924   4.545   3.832   5.919  0.0148  0.0036  0.6032
16170TIP3    H169925   4.590   3.883   5.987  1.1617  2.0688 -1.5275
16170TIP3    H269926   4.616   3.796   5.865 -0.8574 -0.8161 -0.0251
16171TIP3   OH269927   1.499   3.197  14.966 -0.5121 -0.2588  0.1732
16171TIP3    H169928   1.568   3.254  14.934 -0.7812 -0.5287 -0.9289
16171TIP3    H269929   1.479   3.230  15.054  0.5404  0.2327  0.2418
16172TIP3   OH269930   6.148   6.308   4.196 -0.1638  0.1549 -0.5920
16172TIP3    H169931   6.180   6.281   4.110 -2.4940  0.5474 -1.6610
16172TIP3    H269932   6.074   6.248   4.213 -1.3688  1.7197 -0.1028
16173TIP3   OH269933   1.979   0.792   2.290  0.3224 -0.9716  0.4648
16173TIP3    H169934   2.074   0.793   2.298  0.1440  0.0201  4.0254
16173TIP3    H269935   1.955   0.883   2.274 -0.1110 -0.7153  2.3853
16174TIP3   OH269936   0.408   2.787   0.338  0.7288 -0.3988 -0.3428
16174TIP3    H169937   0.328   2.824   0.299  0.3062 -2.3436 -1.4374
16174TIP3    H269938   0.376   2.737   0.414  1.3350  1.6656  1.3590
16175TIP3   OH269939   1.405   2.040   3.642  0.7018  0.3313 -0.7768
16175TIP3    H169940   1.349   1.965   3.623  2.9647 -1.9172  0.8028
16175TIP3    H269941   1.369   2.077   3.723  1.1360 -0.7973 -0.0402
16176TIP3   OH269942   3.568   6.140  11.101 -0.2064 -0.4341  0.2647
16176TIP3    H169943   3.540   6.056  11.064 -1.0027  0.1834 -0.5752
16176TIP3    H269944   3.561   6.127  11.196 -0.5764 -1.2364  0.1391
16177TIP3   OH269945   2.040   1.981  10.731  0.3494 -0.0648  0.1431
16177TIP3    H169946   2.062   2.034  10.655 -0.8525  1.0118  0.5160
16177TIP3    H269947   2.124   1.967  10.775  0.7621  1.0617 -0.2627
16178TIP3   OH269948   6.719   5.807   0.199  0.0626  0.3606 -0.2142
16178TIP3    H169949   6.649   5.802   0.134 -0.0055 -1.9773 -0.0500
16178TIP3    H269950   6.746   5.898   0.198 -1.9391  1.0074 -1.3840
16179TIP3   OH269951   2.020   2.065   2.501 -0.6021  0.4067  0.3219
16179TIP3    H169952   1.973   2.145   2.477  0.3915  1.3942  1.5020
16179TIP3    H269953   2.040   2.076   2.594  0.4283 -0.7693  0.2715
16180TIP3   OH269954   0.192   1.512   0.625 -0.3601 -0.2593 -0.0040
16180TIP3    H169955   0.213   1.419   0.633 -1.4194 -0.4523  0.8365
16180TIP3    H269956   0.257   1.557   0.678 -0.3522 -0.6005  0.2799
16181TIP3   OH269957   3.326   1.635  13.019 -0.6447 -0.3396 -0.7040
16181TIP3    H169958   3.238   1.609  13.046 -0.0747 -0.9471  0.7133
16181TIP3    H269959   3.359   1.560  12.968 -0.1294 -1.1669  0.7660
16182TIP3   OH269960   3.283   5.781   0.676 -0.3769  0.1892 -0.3063
16182TIP3    H169961   3.296   5.686   0.671 -1.1278  0.1247 -1.3647
16182TIP3    H269962   3.204   5.797   0.623  0.7676  1.6058 -1.6816
16183TIP3   OH269963   1.398   4.933   0.236  0.0138  0.3550  0.0154
16183TIP3    H169964   1.459   4.881   0.288 -1.2554 -0.9998  0.2183
16183TIP3    H269965   1.424   4.918   0.145  0.2557  0.1500  0.1191
16184TIP3   OH269966   5.638   4.779  13.759  0.7385 -0.5028  0.4548
16184TIP3    H169967   5.677   4.700  13.719  3.6881  0.7039  0.6802
16184TIP3    H269968   5.650   4.847  13.693  1.5850  0.5305  1.6481
16185TIP3   OH269969   6.148   4.321  12.003  0.0931  0.2210  0.7452
16185TIP3    H169970   6.160   4.410  11.971 -1.1349 -0.2414 -1.1337
16185TIP3    H269971   6.063   4.294  11.968  0.8796 -2.0361  0.4201
16186TIP3   OH269972   2.228   6.013  11.981 -0.0883  0.1718  0.4623
16186TIP3    H169973   2.243   6.068  12.057  0.5559 -0.6292  0.9421
16186TIP3    H269974   2.229   5.923  12.015  1.1608 -0.2615 -0.5994
16187TIP3   OH269975   1.268   3.719   0.658 -0.1237  0.3601  0.4999
16187TIP3    H169976   1.253   3.767   0.739 -1.2676  1.4556 -0.3251
16187TIP3    H269977   1.197   3.747   0.600  0.0479 -1.2034 -0.5294
16188TIP3   OH269978   2.621   4.325  12.007  0.0450  0.3519  0.0222
16188TIP3    H169979   2.619   4.261  11.936  2.8377  0.4001 -0.2375
16188TIP3    H269980   2.572   4.283  12.078 -1.5662 -0.3125 -1.4169
16189TIP3   OH269981   2.798   3.572  15.396 -0.7381 -0.1350  0.2555
16189TIP3    H169982   2.712   3.532  15.407  0.1304 -1.8851  1.0219
16189TIP3    H269983   2.835   3.576  15.484  0.4952 -0.6440 -0.2179
16190TIP3   OH269984   5.285   3.892   1.090 -0.1055  0.6297  0.1979
16190TIP3    H169985   5.232   3.820   1.122 -1.5442  1.5745  0.0316
16190TIP3    H269986   5.224   3.966   1.081  0.8480  1.2802 -1.6730
16191TIP3   OH269987   1.606   3.569  13.528  0.1405 -0.6396  0.0222
16191TIP3    H169988   1.664   3.581  13.453  1.1700  1.2096  1.0467
16191TIP3    H269989   1.531   3.626  13.510 -0.2731 -1.2543 -0.2271
16192TIP3   OH269990   6.015   3.776  14.064 -0.3119 -0.3123  0.1102
16192TIP3    H169991   6.082   3.821  14.012  0.2732 -0.7699  0.4629
16192TIP3    H269992   5.957   3.846  14.093 -1.0638 -0.1107 -1.7371
16193TIP3   OH269993   4.377   4.307  16.578  0.3000 -0.1834  0.6282
16193TIP3    H169994   4.382   4.401  16.590 -2.8216 -0.1152  2.3571
16193TIP3    H269995   4.406   4.270  16.662  1.6866 -0.8600 -0.0923
16194TIP3   OH269996   4.067   2.091   4.214  0.2583  0.0231  0.4435
16194TIP3    H169997   4.094   2.150   4.143  0.4269 -0.3838  0.1621
16194TIP3    H269998   4.094   2.136   4.294  0.0514  0.4955  0.2493
16195TIP3   OH269999   4.645   2.985  16.468 -1.0015 -0.3837  0.0854
16195TIP3    H170000   4.550   2.999  16.469 -1.2852 -2.0165 -0.7407
16195TIP3    H270001   4.661   2.934  16.388  0.7672  1.0065 -0.5238
16196TIP3   OH270002   5.302   4.383   3.893  0.3654 -0.7730  0.1235
16196TIP3    H170003   5.295   4.309   3.833 -0.3538  0.1524 -0.9800
16196TIP3    H270004   5.216   4.425   3.889  0.4226 -0.4811  1.5541
16197TIP3   OH270005   6.719   3.371   3.872 -0.3187  0.2133 -0.8985
16197TIP3    H170006   6.673   3.288   3.859  0.4339 -0.2092 -0.9554
16197TIP3    H270007   6.688   3.404   3.956 -0.0964 -0.4914 -0.5335
16198TIP3   OH270008   0.011   3.593  13.555  0.3166  0.9965  0.3691
16198TIP3    H170009   0.104   3.601  13.533  0.4553 -0.3780  0.3590
16198TIP3    H270010   0.010   3.561  13.645 -0.1256  0.3075  0.1281
16199TIP3   OH270011   4.838   0.897   2.891  0.2121  0.0226  0.3103
16199TIP3    H170012   4.887   0.958   2.836 -0.7733 -0.1356 -0.7761
16199TIP3    H270013   4.904   0.862   2.952  0.9570  1.5442  0.4347
16200TIP3   OH270014   0.340   5.352  17.325  0.0191 -0.4366  0.3856
16200TIP3    H170015   0.410   5.411  17.299 -0.7612 -0.7071 -2.6559
16200TIP3    H270016   0.385   5.270  17.347  0.8185  0.2026  1.2392
16201TIP3   OH270017   3.882   4.591   3.862 -0.0898 -0.3056  0.6548
16201TIP3    H170018   3.864   4.610   3.770  1.9652 -1.1966 -0.0049
16201TIP3    H270019   3.906   4.676   3.900  3.5109 -0.4699 -0.8498
16202TIP3   OH270020   6.611   5.856  14.309 -0.4471 -0.8364  0.2562
16202TIP3    H170021   6.556   5.814  14.243 -0.6363  0.3667 -0.3709
16202TIP3    H270022   6.601   5.800  14.387 -0.5224 -2.0532 -0.5978
16203TIP3   OH270023   3.168   3.622  16.090  0.2140  0.3986 -0.1287
16203TIP3    H170024   3.219   3.597  16.167  0.1221 -0.8536 -0.4529
16203TIP3    H270025   3.203   3.568  16.019 -0.1687  1.0314 -0.8174
16204TIP3   OH270026   5.614   3.319   4.481  0.1475  0.1683 -0.0969
16204TIP3    H170027   5.628   3.269   4.400  1.1612 -0.2229  0.3036
16204TIP3    H270028   5.591   3.407   4.451 -2.2306 -0.6238 -0.8236
16205TIP3   OH270029   2.488   2.760  14.017  0.6008 -0.3236  0.6236
16205TIP3    H170030   2.507   2.772  14.110 -2.8848  1.9924  1.2287
16205TIP3    H270031   2.455   2.670  14.011  1.3905 -0.6903  1.4884
16206TIP3   OH270032   1.807   4.816  11.485  0.1026  0.1064  0.2484
16206TIP3    H170033   1.741   4.757  11.520 -0.6079 -0.4988 -1.9896
16206TIP3    H270034   1.762   4.865  11.417  2.1906 -1.2092 -2.2333
16207TIP3   OH270035   2.474   6.118   5.688 -0.7157 -0.0084 -0.1068
16207TIP3    H170036   2.556   6.165   5.705 -0.2708 -0.1786 -1.5982
16207TIP3    H270037   2.438   6.100   5.774  1.1219 -0.4253  0.6205
16208TIP3   OH270038   3.745   6.224  15.803 -0.3541 -0.2279 -0.9551
16208TIP3    H170039   3.657   6.188  15.808  0.0104 -1.2224 -1.5001
16208TIP3    H270040   3.781   6.191  15.721  1.7330 -2.7436  0.7812
16209TIP3   OH270041   1.926   5.179   2.939 -0.0937  0.2392 -0.4594
16209TIP3    H170042   1.973   5.142   3.014  2.0813  0.2848 -1.7214
16209TIP3    H270043   1.844   5.211   2.976 -0.4660 -2.4230  1.3782
16210TIP3   OH270044   4.543   1.294   2.754 -0.3840  0.1758 -0.1031
16210TIP3    H170045   4.548   1.255   2.667 -1.9209  0.0921 -0.1931
16210TIP3    H270046   4.594   1.375   2.747  1.5797 -1.0235 -0.3385
16211TIP3   OH270047   3.816   1.802   3.236 -0.3611  0.6919  0.1582
16211TIP3    H170048   3.785   1.719   3.272  1.7280 -0.7725 -1.1908
16211TIP3    H270049   3.844   1.852   3.312 -0.5662 -0.3077  0.9144
16212TIP3   OH270050   1.445   4.560  10.484  0.1378 -0.3428  0.2708
16212TIP3    H170051   1.385   4.533  10.414 -0.5160  1.4373  0.0769
16212TIP3    H270052   1.464   4.480  10.532 -2.8085 -0.9643  0.6395
16213TIP3   OH270053   2.683   1.352   5.636  0.2102 -0.4604 -0.2214
16213TIP3    H170054   2.674   1.290   5.709 -0.4453 -2.5612 -1.9796
16213TIP3    H270055   2.744   1.419   5.669 -0.4264 -1.0421  2.3834
16214TIP3   OH270056   6.595   0.334   2.990  0.7120  0.6391 -0.3002
16214TIP3    H170057   6.583   0.427   2.968  1.6811  0.3034 -2.5581
16214TIP3    H270058   6.541   0.288   2.926  0.3621 -0.3978  0.7100
16215TIP3   OH270059   5.089   2.131  13.757  0.2623  0.7366 -0.4664
16215TIP3    H170060   5.045   2.216  13.761 -0.8139  0.1831 -0.0092
16215TIP3    H270061   5.162   2.139  13.818  1.4721  2.0153 -2.0133
16216TIP3   OH270062   4.027   0.183   1.131  0.0339  0.1764 -0.2817
16216TIP3    H170063   3.935   0.205   1.115 -0.2440 -1.6316 -1.5394
16216TIP3    H270064   4.025   0.093   1.164  1.3010  0.5562  0.9424
16217TIP3   OH270065   4.905   0.697  15.866  0.3248  0.0415  0.2189
16217TIP3    H170066   4.985   0.648  15.887 -0.1971 -0.9219 -0.0111
16217TIP3    H270067   4.922   0.785  15.899  1.8610  0.1075 -0.6448
16218TIP3   OH270068   5.129   1.389   0.635  0.0043  0.0113  0.0239
16218TIP3    H170069   5.178   1.467   0.662 -1.0005  0.8452 -0.5008
16218TIP3    H270070   5.107   1.346   0.718  0.0623  0.6063  0.3587
16219TIP3   OH270071   2.455   3.507  16.451  0.1573 -0.2615  0.0356
16219TIP3    H170072   2.419   3.473  16.369 -2.0208 -1.7183  1.5137
16219TIP3    H270073   2.387   3.564  16.486  0.2867 -1.0505  1.6675
16220TIP3   OH270074   0.365   2.431   5.587 -0.0125  0.4412  0.3291
16220TIP3    H170075   0.415   2.382   5.653 -0.3541  2.2052  1.9781
16220TIP3    H270076   0.278   2.442   5.627 -0.8240 -0.0085 -1.2279
16221TIP3   OH270077   0.700   4.782   1.883 -0.0848 -0.1792  0.0166
16221TIP3    H170078   0.777   4.838   1.886 -2.0355  2.7755 -0.6056
16221TIP3    H270079   0.686   4.756   1.975 -0.3608  2.3565  0.7843
16222TIP3   OH270080   5.158   2.299   3.634  0.1488  0.0038  0.6638
16222TIP3    H170081   5.072   2.317   3.673 -0.1075 -0.1963  0.2112
16222TIP3    H270082   5.220   2.347   3.688 -0.2636  0.2397  0.9327
16223TIP3   OH270083   6.540   2.132   2.339  0.1002 -0.1684  0.4809
16223TIP3    H170084   6.587   2.096   2.415  0.1103  0.2668  0.6852
16223TIP3    H270085   6.478   2.194   2.376 -0.2949 -0.3709  0.1708
16224TIP3   OH270086   1.236   3.845  16.843 -0.1330  0.1756  0.2305
16224TIP3    H170087   1.329   3.851  16.822 -0.2190 -0.6840 -0.4767
16224TIP3    H270088   1.196   3.809  16.764 -1.0537  0.4411  0.5619
16225TIP3   OH270089   5.404   3.163  11.183  0.2161 -0.6063  0.3377
16225TIP3    H170090   5.325   3.109  11.186 -1.3885  1.5517 -0.4332
16225TIP3    H270091   5.377   3.242  11.136  2.6337  0.5554  0.7635
16226TIP3   OH270092   4.031   1.935   6.498  0.2969  0.0657  0.5565
16226TIP3    H170093   3.944   1.959   6.463  0.3651  0.2823  0.5304
16226TIP3    H270094   4.047   1.999   6.567  0.4992  0.1152  0.4642
16227TIP3   OH270095   5.404   3.652  14.235 -0.1871 -0.2331 -0.8658
16227TIP3    H170096   5.495   3.641  14.207 -0.0633  1.7539 -1.3989
16227TIP3    H270097   5.395   3.596  14.312  1.1830 -1.2349 -1.3965
16228TIP3   OH270098   3.884   3.262  15.565 -0.5195 -0.0644 -0.3175
16228TIP3    H170099   3.796   3.272  15.602 -0.6675  0.5642 -0.8005
16228TIP3    H270100   3.934   3.335  15.602 -0.5165  0.2398 -0.9101
16229TIP3   OH270101   1.247   6.769   2.276 -0.1959 -0.4393  0.5119
16229TIP3    H170102   1.171   6.712   2.292 -0.5439 -0.0756  0.2044
16229TIP3    H270103   1.321   6.709   2.267 -0.1797 -0.7330  2.2149
16230TIP3   OH270104   6.698   3.331  13.751  0.0993 -0.9067 -0.4045
16230TIP3    H170105   6.616   3.305  13.794  0.4764 -1.3209  0.0789
16230TIP3    H270106   6.719   3.416  13.789 -0.5179 -0.4112 -1.1234
16231TIP3   OH270107   2.507   1.292   6.280  0.7170  0.3153 -0.3070
16231TIP3    H170108   2.531   1.201   6.296  0.7403  0.4893  0.7021
16231TIP3    H270109   2.590   1.336   6.262  0.7243  0.1773 -0.6217
16232TIP3   OH270110   3.246   0.419   2.233  0.7031 -0.1778 -0.5851
16232TIP3    H170111   3.235   0.347   2.295 -0.7829 -1.4249 -2.2020
16232TIP3    H270112   3.178   0.483   2.257  0.9707 -0.0532 -0.1506
16233TIP3   OH270113   3.364   6.412   0.597  0.6645  0.8156  0.2101
16233TIP3    H170114   3.275   6.381   0.580  0.0348  2.2120  0.7665
16233TIP3    H270115   3.418   6.333   0.595 -0.8711 -0.3427  1.6829
16234TIP3   OH270116   5.339   1.767  12.308 -0.6838 -0.3605  0.0187
16234TIP3    H170117   5.249   1.749  12.283 -0.8771  0.3801  0.1534
16234TIP3    H270118   5.358   1.852  12.269  0.0330 -0.6125 -0.1946
16235TIP3   OH270119   3.896   4.810  15.273 -0.7108  0.0262  0.0897
16235TIP3    H170120   3.902   4.902  15.246  0.4979  0.6470  2.2840
16235TIP3    H270121   3.957   4.764  15.214 -1.0110  0.6786 -0.7517
16236TIP3   OH270122   6.423   2.191  12.284 -0.4210 -0.1387 -0.5398
16236TIP3    H170123   6.369   2.245  12.227 -0.6889 -1.1635 -1.2909
16236TIP3    H270124   6.473   2.254  12.337 -1.8028  0.8191 -0.3362
16237TIP3   OH270125   1.796   3.148  12.304  0.2755  0.5249 -0.3266
16237TIP3    H170126   1.814   3.209  12.233 -0.3285  0.8462 -0.2123
16237TIP3    H270127   1.721   3.185  12.349  1.1390  0.7501  0.9777
16238TIP3   OH270128   4.947   0.470  13.941 -0.5104 -0.2891 -0.0898
16238TIP3    H170129   4.890   0.501  13.871 -1.4565 -0.1050  0.7291
16238TIP3    H270130   4.976   0.549  13.986 -2.0982 -0.4604  1.3650
16239TIP3   OH270131   2.599   0.379   3.360 -0.0826 -0.1314 -0.0468
16239TIP3    H170132   2.626   0.455   3.309 -1.0933  0.5585  0.4059
16239TIP3    H270133   2.529   0.412   3.417  0.8468 -0.9238  1.6222
16240TIP3   OH270134   0.776   3.986   2.055  0.3114  0.0871  0.3785
16240TIP3    H170135   0.708   4.045   2.022  0.6555 -1.1095 -2.8632
16240TIP3    H270136   0.858   4.022   2.020  0.5151 -2.2274 -1.7485
16241TIP3   OH270137   0.350   1.090  11.078  0.2387  0.1994  0.2802
16241TIP3    H170138   0.442   1.098  11.106  0.3779 -2.2133  0.7749
16241TIP3    H270139   0.314   1.023  11.135 -1.7583  0.8113 -0.1899
16242TIP3   OH270140   1.686   1.327   3.334 -0.0196 -0.3322 -0.7349
16242TIP3    H170141   1.674   1.422   3.340  1.2531 -0.1511 -0.6394
16242TIP3    H270142   1.639   1.292   3.410  0.5215  0.3452 -0.0701
16243TIP3   OH270143   1.396   1.785   3.457  0.3496 -0.3054  0.2148
16243TIP3    H170144   1.329   1.749   3.399 -1.5333 -0.5431  2.4114
16243TIP3    H270145   1.467   1.721   3.453 -0.4543 -1.1891 -0.4898
16244TIP3   OH270146   6.542   3.837   0.555 -1.0090  0.6150  0.3106
16244TIP3    H170147   6.538   3.823   0.461 -0.9216  0.7325  0.2893
16244TIP3    H270148   6.583   3.923   0.565 -0.1462  0.1895  0.4792
16245TIP3   OH270149   0.943   3.656  15.404  0.1318 -0.5120 -0.0891
16245TIP3    H170150   0.955   3.709  15.325 -0.5945  0.1113  0.2072
16245TIP3    H270151   0.860   3.610  15.390  0.3465 -0.9361  0.0138
16246TIP3   OH270152   0.340   1.539   0.371 -0.0481  0.7174  0.2915
16246TIP3    H170153   0.312   1.580   0.453  0.7010  2.6270 -0.3467
16246TIP3    H270154   0.372   1.453   0.396 -0.2434  1.0988  1.9331
16247TIP3   OH270155   5.934   3.264  15.678  0.3484 -0.6853  0.8395
16247TIP3    H170156   6.026   3.247  15.661 -0.1363 -1.5863 -1.3422
16247TIP3    H270157   5.926   3.359  15.679  1.0839 -0.5851 -0.6022
16248TIP3   OH270158   1.539   0.809   3.654 -0.3342  0.1600 -0.4520
16248TIP3    H170159   1.481   0.839   3.584 -0.3928  1.2303  0.0423
16248TIP3    H270160   1.615   0.772   3.608 -0.2945  1.0046 -1.0818
16249TIP3   OH270161   2.273   3.358  11.776  0.4482 -0.2831 -0.2646
16249TIP3    H170162   2.278   3.439  11.724  0.3901 -1.4276 -2.1524
16249TIP3    H270163   2.361   3.347  11.812  0.3228  0.8648  0.4377
16250TIP3   OH270164   5.666   5.484   4.904  0.2569 -0.1407  0.1384
16250TIP3    H170165   5.730   5.450   4.967 -0.2077 -0.2197  0.5701
16250TIP3    H270166   5.667   5.421   4.832 -0.3263 -0.8696  0.7623
16251TIP3   OH270167   2.889   6.054   1.521  0.0723 -0.1676  0.1011
16251TIP3    H170168   2.814   6.018   1.474  1.4973 -1.8740 -1.0361
16251TIP3    H270169   2.885   6.013   1.607 -0.8842  0.6159  0.4451
16252TIP3   OH270170   5.101   2.593  11.396 -0.4943 -0.2292  0.0555
16252TIP3    H170171   5.105   2.544  11.314 -1.5408 -2.4540  1.2541
16252TIP3    H270172   5.028   2.653  11.384 -0.7997 -0.7041 -0.5727
16253TIP3   OH270173   3.043   0.961  16.047 -0.1466  0.1663  0.0332
16253TIP3    H170174   3.038   0.876  16.002 -1.9408  0.6946 -0.8618
16253TIP3    H270175   2.996   0.947  16.129  0.3428  0.0775  0.3055
16254TIP3   OH270176   4.651   2.370   5.760  0.1557  0.4499 -0.0238
16254TIP3    H170177   4.724   2.432   5.753  1.0340 -0.4463  0.8359
16254TIP3    H270178   4.674   2.316   5.836 -1.0512 -0.3226 -0.2000
16255TIP3   OH270179   0.472   3.283   2.845 -0.1460 -0.1760  0.0286
16255TIP3    H170180   0.438   3.197   2.821  1.7568 -0.9046 -0.2548
16255TIP3    H270181   0.472   3.333   2.763  0.8505 -0.6895 -0.2997
16256TIP3   OH270182   0.096   4.908   4.185  0.0955 -0.1340 -0.2814
16256TIP3    H170183   0.117   5.000   4.167 -0.3171  0.8744  3.5953
16256TIP3    H270184   0.002   4.907   4.201 -0.4152 -1.8337 -2.7600
16257TIP3   OH270185   0.102   0.803   4.364  0.1326 -0.1922 -0.2528
16257TIP3    H170186   0.059   0.722   4.390  0.5834 -0.9014 -1.6007
16257TIP3    H270187   0.047   0.873   4.400 -2.2755 -1.0437 -2.0324
16258TIP3   OH270188   2.543   5.430   1.234 -0.4088  0.4569  0.0386
16258TIP3    H170189   2.460   5.439   1.187 -0.7648 -1.1123  0.3156
16258TIP3    H270190   2.610   5.439   1.167 -0.8320  0.6524 -0.3599
16259TIP3   OH270191   2.511   4.762  15.816  0.0292  0.6748 -0.6520
16259TIP3    H170192   2.415   4.766  15.812 -0.0591 -0.1961  0.1851
16259TIP3    H270193   2.535   4.828  15.881 -0.0762  0.3099 -0.2353
16260TIP3   OH270194   1.757   2.795  14.917 -0.1236 -0.2166 -0.3806
16260TIP3    H170195   1.778   2.717  14.968 -3.1597 -0.4356  0.7623
16260TIP3    H270196   1.839   2.845  14.914  0.7246 -1.1068  3.1665
16261TIP3   OH270197   4.207   5.901   3.578  0.2154  0.0893  0.2500
16261TIP3    H170198   4.181   5.849   3.502  3.0638  0.3763 -1.0419
16261TIP3    H270199   4.234   5.836   3.643 -0.7493 -0.1249  0.4437
16262TIP3   OH270200   6.559   3.867  16.978 -0.0182  0.1729  0.3731
16262TIP3    H170201   6.524   3.827  17.058  0.8358  0.8080  1.0832
16262TIP3    H270202   6.621   3.802  16.944  0.0356  0.1403  0.5331
16263TIP3   OH270203   2.825   2.919   4.180  0.1494 -0.7142  0.1165
16263TIP3    H170204   2.730   2.931   4.179  0.2267  0.1244  0.8244
16263TIP3    H270205   2.849   2.904   4.088 -0.6651 -0.9611 -0.0613
16264TIP3   OH270206   2.926   5.297  16.903  0.0622 -0.8417 -0.0542
16264TIP3    H170207   2.880   5.354  16.966 -0.4849 -0.1375 -1.0700
16264TIP3    H270208   2.983   5.243  16.958 -0.8742 -0.6896  1.1076
16265TIP3   OH270209   4.216   3.085  13.459  0.1429 -0.5869  0.6394
16265TIP3    H170210   4.168   3.004  13.442  0.6289 -0.8971  0.7287
16265TIP3    H270211   4.271   3.098  13.382  0.5140 -0.6708  0.8838
16266TIP3   OH270212   6.297   5.754  11.884 -0.2687 -0.0728  0.2004
16266TIP3    H170213   6.290   5.762  11.979 -0.9295  2.3845  0.0299
16266TIP3    H270214   6.215   5.713  11.857 -0.8908  0.8754  0.5878
16267TIP3   OH270215   1.839   0.995  14.641  0.0868  0.0064 -0.4032
16267TIP3    H170216   1.902   1.022  14.574  0.3737 -0.8173 -0.4830
16267TIP3    H270217   1.841   1.064  14.707  0.8896  0.1104 -0.5361
16268TIP3   OH270218   4.485   4.902   2.515 -0.0356  0.5462 -1.0552
16268TIP3    H170219   4.501   4.990   2.549 -0.7245 -0.1597  1.3279
16268TIP3    H270220   4.461   4.851   2.592 -0.0606 -1.6501 -2.4298
16269TIP3   OH270221   4.253   5.650   1.816  0.6878 -0.5541  0.4794
16269TIP3    H170222   4.261   5.600   1.735  0.0556 -1.1027  0.7489
16269TIP3    H270223   4.165   5.688   1.813  2.4778  4.2923 -1.8123
16270TIP3   OH270224   1.542   1.073   1.811 -0.2412  0.4951 -0.1462
16270TIP3    H170225   1.573   1.121   1.889 -0.7905  0.0312  0.3646
16270TIP3    H270226   1.457   1.039   1.837  0.8532 -2.2467  0.1381
16271TIP3   OH270227   5.354   4.624  16.331  0.1193  0.1669  0.0954
16271TIP3    H170228   5.439   4.581  16.343  0.2301  0.1704 -0.6154
16271TIP3    H270229   5.294   4.553  16.308 -0.0891  0.1548  0.6670
16272TIP3   OH270230   4.797   2.561  14.940 -0.4833 -0.3429 -0.2033
16272TIP3    H170231   4.772   2.566  14.848  1.0665 -2.4181 -0.8164
16272TIP3    H270232   4.873   2.620  14.948 -1.5134  0.9833  0.1427
16273TIP3   OH270233   5.496   2.201  11.824  0.3295 -0.5357  0.0922
16273TIP3    H170234   5.509   2.126  11.766 -0.4021  0.3733 -1.2965
16273TIP3    H270235   5.403   2.220  11.817  0.9658  2.4002 -2.0454
16274TIP3   OH270236   2.557   1.296  15.310 -0.5820 -0.0597 -0.1770
16274TIP3    H170237   2.633   1.351  15.290 -0.0690 -1.1629 -1.3661
16274TIP3    H270238   2.483   1.344  15.271 -0.2021  0.0025 -0.8335
16275TIP3   OH270239   0.151   5.136   3.084 -0.5902 -0.0911  0.1858
16275TIP3    H170240   0.140   5.213   3.028 -1.0789 -0.3759 -0.1184
16275TIP3    H270241   0.064   5.121   3.122 -0.6480 -0.8370 -0.2174
16276TIP3   OH270242   3.786   2.652   2.928  0.7001 -0.0848 -0.2188
16276TIP3    H170243   3.880   2.633   2.921  0.6425 -1.1035  1.3150
16276TIP3    H270244   3.743   2.573   2.896  0.3116  0.7545 -1.8802
16277TIP3   OH270245   0.886   6.605  15.999 -0.2850  0.0453 -0.1118
16277TIP3    H170246   0.866   6.680  15.943 -0.0823  1.0161  1.0666
16277TIP3    H270247   0.973   6.625  16.034  0.1157 -1.1365 -0.3863
16278TIP3   OH270248   2.179   1.784   3.274 -0.0479 -0.0713  0.1635
16278TIP3    H170249   2.240   1.735   3.328  1.2016  1.6133  0.3697
16278TIP3    H270250   2.094   1.742   3.288  0.4241 -0.3335  2.6324
16279TIP3   OH270251   5.217   5.513  15.773 -0.2953 -0.0702 -0.8546
16279TIP3    H170252   5.171   5.528  15.691  0.2874  2.4867 -0.8134
16279TIP3    H270253   5.217   5.599  15.816  0.6054 -1.0254  1.1868
16280TIP3   OH270254   4.067   3.975  12.282 -0.0555  0.3427  0.1378
16280TIP3    H170255   3.972   3.967  12.291 -0.0681 -2.1311 -1.2936
16280TIP3    H270256   4.101   3.897  12.324  1.1812  0.0147 -1.4195
16281TIP3   OH270257   6.721   6.704   3.521  0.0396  0.5139 -0.0525
16281TIP3    H170258   6.737   6.652   3.600 -0.5293 -1.0930 -0.9502
16281TIP3    H270259   6.659   6.652   3.470 -1.9041  2.8564 -0.2624
16282TIP3   OH270260   5.376   4.233  12.824 -0.0844 -0.4533 -0.1762
16282TIP3    H170261   5.312   4.268  12.886 -0.3018 -0.0587 -0.6225
16282TIP3    H270262   5.342   4.146  12.802 -1.6008  0.5432 -1.9964
16283TIP3   OH270263   5.043   3.198  13.345 -0.1054  0.0113 -0.0661
16283TIP3    H170264   5.000   3.245  13.274  0.0286 -1.3080 -1.0671
16283TIP3    H270265   5.129   3.239  13.353 -0.4890  0.8132  0.0201
16284TIP3   OH270266   2.768   0.888  16.829  0.4500 -0.2621 -0.3226
16284TIP3    H170267   2.815   0.924  16.754 -1.2324  0.3225 -1.1336
16284TIP3    H270268   2.828   0.823  16.866  1.8706  0.4359 -1.3193
16285TIP3   OH270269   2.400   1.983   4.061 -0.0660  0.0770 -0.2260
16285TIP3    H170270   2.425   1.891   4.066 -1.1782 -0.4113 -2.1791
16285TIP3    H270271   2.378   1.996   3.968 -2.2205  1.6533  0.4160
16286TIP3   OH270272   1.033   5.957   2.737 -0.3283 -0.7685  0.7902
16286TIP3    H170273   0.999   6.040   2.772 -1.2000 -0.7652 -0.0322
16286TIP3    H270274   1.057   5.906   2.815 -0.3696  0.0064  1.3216
16287TIP3   OH270275   3.038   0.972  13.729 -0.8217 -0.7103  0.0995
16287TIP3    H170276   3.125   0.938  13.713 -0.9394 -1.2490  0.5496
16287TIP3    H270277   2.986   0.945  13.653 -0.9535 -1.7050  0.5244
16288TIP3   OH270278   3.577   2.874  13.297  0.1387  0.0541  0.3116
16288TIP3    H170279   3.668   2.850  13.317  0.9339  1.0738 -1.8498
16288TIP3    H270280   3.570   2.865  13.202 -1.9006  0.4871  0.3814
16289TIP3   OH270281   1.617   2.579   5.291 -0.3891 -0.5744  0.2070
16289TIP3    H170282   1.556   2.564   5.363 -0.7981  1.5185  0.3625
16289TIP3    H270283   1.704   2.572   5.331 -0.5967  2.2957  1.4281
16290TIP3   OH270284   6.290   4.843  13.407  0.3625 -0.1714  1.1019
16290TIP3    H170285   6.287   4.928  13.452 -0.9415  0.7179 -0.5150
16290TIP3    H270286   6.355   4.856  13.338 -1.5078  0.4418 -0.6861
16291TIP3   OH270287   6.452   2.111   2.931 -0.4077  0.2722  0.1738
16291TIP3    H170288   6.389   2.152   2.872  0.1303  0.2704 -0.4099
16291TIP3    H270289   6.503   2.184   2.966  0.2154  0.1486 -0.4721
16292TIP3   OH270290   6.064   5.316  16.647  0.3741 -0.0033  0.0622
16292TIP3    H170291   6.059   5.408  16.620  1.0975  0.4937  1.4811
16292TIP3    H270292   6.155   5.291  16.632  0.0674 -0.6686 -0.7844
16293TIP3   OH270293   0.058   5.361  14.869  0.5566  0.0155  0.4816
16293TIP3    H170294  -0.027   5.367  14.912  0.1422  1.3137 -0.4395
16293TIP3    H270295   0.074   5.267  14.859 -1.1797 -0.2554 -0.1031
16294TIP3   OH270296   4.636   2.261  11.537  0.5508  0.3023  1.2282
16294TIP3    H170297   4.577   2.295  11.470 -0.7809 -1.3544  1.4960
16294TIP3    H270298   4.703   2.213  11.488 -0.1658 -0.5239  1.0362
16295TIP3   OH270299   6.216   5.931  11.416 -0.3395 -0.0846  0.1968
16295TIP3    H170300   6.166   5.850  11.427  0.8934 -1.3931 -2.7425
16295TIP3    H270301   6.298   5.916  11.462  0.3808 -1.0583 -1.3507
16296TIP3   OH270302   5.633   1.047   2.689  0.3903 -0.1307 -0.4411
16296TIP3    H170303   5.664   1.110   2.755  0.0096  0.3384 -0.7008
16296TIP3    H270304   5.582   1.100   2.628 -1.7794 -0.9837  0.5042
16297TIP3   OH270305   4.369   6.249  13.006 -0.2977  0.0991 -0.4461
16297TIP3    H170306   4.428   6.324  12.998 -0.5198  0.2126 -1.0078
16297TIP3    H270307   4.408   6.181  12.951  0.0904 -0.3313  0.3276
16298TIP3   OH270308   4.425   4.147  13.529 -0.2689  0.2791 -0.0503
16298TIP3    H170309   4.365   4.079  13.557  0.1885  0.6436  1.9573
16298TIP3    H270310   4.413   4.152  13.434 -2.0825 -0.8704  0.0741
16299TIP3   OH270311   1.558   0.411   5.674 -0.7817 -0.1435 -1.1480
16299TIP3    H170312   1.610   0.330   5.677 -0.5929 -0.0249 -1.1925
16299TIP3    H270313   1.565   0.440   5.584  1.5866  1.4830 -0.5478
16300TIP3   OH270314   1.857   0.431   4.212 -0.2235  0.0693 -0.1384
16300TIP3    H170315   1.837   0.520   4.241 -1.6716 -0.1563 -0.3667
16300TIP3    H270316   1.951   0.422   4.223 -0.3517  0.9132  1.8783
16301TIP3   OH270317   3.242   2.802   5.284 -0.1445  0.2221  0.1005
16301TIP3    H170318   3.217   2.736   5.219 -2.1656  1.0898 -0.0622
16301TIP3    H270319   3.328   2.834   5.255  1.4117 -2.9569  0.7139
16302TIP3   OH270320   6.648   5.532  16.168 -0.4080 -0.0857 -0.5668
16302TIP3    H170321   6.680   5.491  16.088 -1.3826  0.2258 -1.1382
16302TIP3    H270322   6.561   5.493  16.182  0.2347 -1.0712  1.0526
16303TIP3   OH270323   2.692   5.820   5.712  0.6068  0.4058  0.3321
16303TIP3    H170324   2.641   5.810   5.631  0.2056  2.3734  0.2941
16303TIP3    H270325   2.678   5.738   5.759  0.5816 -0.6570 -1.4283
16304TIP3   OH270326   2.939   2.977  11.156  0.1214  0.3074  0.2847
16304TIP3    H170327   2.844   2.966  11.162  0.3247 -1.5585  0.5612
16304TIP3    H270328   2.960   2.949  11.067  0.5125 -0.1285  0.5152
16305TIP3   OH270329   4.051   1.473   0.873  0.0492  0.4822 -0.0402
16305TIP3    H170330   4.013   1.561   0.879 -1.2244 -0.0976  1.0161
16305TIP3    H270331   3.981   1.415   0.905  1.1668 -0.8341  0.0933
16306TIP3   OH270332   0.789   1.851   2.792  0.1704 -0.2552 -0.2400
16306TIP3    H170333   0.841   1.880   2.867  1.6040  0.2487 -1.3855
16306TIP3    H270334   0.698   1.859   2.821  0.6222  1.9236  0.7487
16307TIP3   OH270335   3.608   3.692  14.508  0.5286  0.2709 -0.0651
16307TIP3    H170336   3.548   3.619  14.492 -2.4819  1.5795  3.7201
16307TIP3    H270337   3.589   3.755  14.439  2.2105 -1.6991 -2.5735
16308TIP3   OH270338   0.905   0.691   2.961 -0.4737  0.3813  0.3135
16308TIP3    H170339   0.891   0.627   3.031 -0.9353 -1.0317 -0.9916
16308TIP3    H270340   0.846   0.662   2.891  0.4283  1.3573 -0.9000
16309TIP3   OH270341   2.107   4.151  15.698 -0.8352  0.1247 -0.6430
16309TIP3    H170342   2.044   4.185  15.635 -2.8600 -0.6167  0.8504
16309TIP3    H270343   2.108   4.057  15.683 -2.4378 -0.2678  1.2231
16310TIP3   OH270344   2.921   6.756  16.712  0.6185  0.6118  0.5485
16310TIP3    H170345   2.827   6.740  16.703  0.2339  2.6409  0.4873
16310TIP3    H270346   2.954   6.753  16.622  0.7875 -0.9558  0.6469
16311TIP3   OH270347   6.002   3.609  11.857 -0.0443  0.0585  0.2855
16311TIP3    H170348   5.970   3.647  11.938 -0.4884 -1.8475  1.0761
16311TIP3    H270349   5.941   3.537  11.839  0.4558  0.0168 -1.3548
16312TIP3   OH270350   4.960   3.336  15.174 -0.0948  0.2147 -0.0917
16312TIP3    H170351   4.902   3.271  15.213  0.6216  0.9420  2.3660
16312TIP3    H270352   4.995   3.385  15.249  0.0863  2.8343 -1.7700
16313TIP3   OH270353   4.301   4.659   4.568  0.0407 -0.2580  0.2376
16313TIP3    H170354   4.261   4.688   4.650 -0.4010 -0.5170  0.1180
16313TIP3    H270355   4.228   4.652   4.506  0.3878  0.0589 -0.2155
16314TIP3   OH270356   6.333   5.395  15.351  0.1576 -0.0055  0.5142
16314TIP3    H170357   6.365   5.416  15.438 -0.0648  0.6092  0.4542
16314TIP3    H270358   6.307   5.303  15.356  1.3900 -0.3593  0.7094
16315TIP3   OH270359   4.857   4.294  13.543  0.3114 -0.0496 -0.0255
16315TIP3    H170360   4.886   4.349  13.471 -1.9541  0.6148 -0.5079
16315TIP3    H270361   4.811   4.354  13.602  0.3308 -0.9419  0.9307
16316TIP3   OH270362   0.503   1.263  13.731 -0.1753  0.1714 -0.3346
16316TIP3    H170363   0.411   1.291  13.730 -0.3644 -0.3026  0.9272
16316TIP3    H270364   0.547   1.328  13.787 -0.2591 -0.9406  1.0930
16317TIP3   OH270365   1.161   6.569   2.090 -0.0802  0.0903 -0.4626
16317TIP3    H170366   1.093   6.520   2.043  0.1684 -0.3453 -0.3724
16317TIP3    H270367   1.241   6.555   2.039  0.3866 -1.1120  0.5439
16318TIP3   OH270368   3.317   6.024  16.195  0.3974  0.1847 -1.2230
16318TIP3    H170369   3.411   6.025  16.214  0.4142  0.6752 -1.3183
16318TIP3    H270370   3.312   6.000  16.102  0.4457  0.5201 -1.3133
16319TIP3   OH270371   1.551   5.850   5.571 -0.6874  0.8359 -0.2548
16319TIP3    H170372   1.492   5.846   5.496 -1.0195  1.2281 -0.0261
16319TIP3    H270373   1.532   5.935   5.611 -0.7615  0.4958  0.4639
16320TIP3   OH270374   0.749   2.388  16.634  0.0418  0.7638  0.2294
16320TIP3    H170375   0.788   2.316  16.585  0.5876  0.8487  0.5376
16320TIP3    H270376   0.741   2.354  16.723 -0.0363  0.9588  0.2977
16321TIP3   OH270377   5.184   1.531   0.157  0.0349  0.0341 -0.3206
16321TIP3    H170378   5.189   1.441   0.188 -0.6441  1.0233  3.0481
16321TIP3    H270379   5.274   1.563   0.162  0.1396 -0.1907 -0.7011
16322TIP3   OH270380   3.844   5.406  15.702  0.3959  1.1436  0.0201
16322TIP3    H170381   3.796   5.445  15.629  1.4860  0.5204 -1.0798
16322TIP3    H270382   3.935   5.430  15.687  1.0429 -1.3085 -0.4265
16323TIP3   OH270383   2.805   0.048   3.682  0.0545  0.1495  0.7774
16323TIP3    H170384   2.796   0.038   3.776  0.1281 -0.8790  0.6790
16323TIP3    H270385   2.879  -0.006   3.658  1.2634  1.9045  0.3710
16324TIP3   OH270386   4.204   5.926  15.043  0.4384 -0.2791 -0.5914
16324TIP3    H170387   4.121   5.880  15.057  0.7648 -0.7023  0.0078
16324TIP3    H270388   4.216   5.977  15.123  2.2043 -2.5141  0.6730
16325TIP3   OH270389   5.247   1.028   1.583 -0.1728 -0.6201 -0.2804
16325TIP3    H170390   5.341   1.016   1.595  0.2040  1.0632 -1.2325
16325TIP3    H270391   5.207   0.960   1.638  1.5447  0.4136  2.4844
16326TIP3   OH270392   3.628   2.838  16.267  0.2943 -0.5900  0.0789
16326TIP3    H170393   3.546   2.885  16.283  0.4072  0.4016 -1.9770
16326TIP3    H270394   3.687   2.869  16.336 -0.5703 -0.0501  0.5933
16327TIP3   OH270395   3.616   2.951  15.158  0.2847 -0.5535  0.1018
16327TIP3    H170396   3.605   2.904  15.240 -3.3683 -1.2025 -0.5852
16327TIP3    H270397   3.554   3.024  15.164  1.2219  0.4178 -1.3957
16328TIP3   OH270398   1.639   6.329  12.438 -0.1479  0.0147 -0.5566
16328TIP3    H170399   1.589   6.396  12.390  2.4677  1.5535 -1.3494
16328TIP3    H270400   1.729   6.340  12.408  1.0408 -1.4013  2.1131
16329TIP3   OH270401   3.746   5.636   4.911 -0.4381  0.2276 -0.2625
16329TIP3    H170402   3.745   5.577   4.836  0.2412 -1.8405  1.2564
16329TIP3    H270403   3.657   5.633   4.946 -0.5989  0.7192 -0.6203
16330TIP3   OH270404   4.936   2.860   0.370 -0.3648  0.0521 -0.0069
16330TIP3    H170405   4.863   2.886   0.313  1.2685 -0.3257 -2.4303
16330TIP3    H270406   5.014   2.897   0.327  1.0578 -0.9817  1.5613
16331TIP3   OH270407   1.617   6.323   1.926  0.4891 -0.3926  0.0904
16331TIP3    H170408   1.647   6.412   1.946  0.2567 -0.1421 -0.6317
16331TIP3    H270409   1.606   6.282   2.012  2.8935 -0.5244  0.3984
16332TIP3   OH270410   5.749   4.700   5.696  0.0720 -0.3403 -0.7540
16332TIP3    H170411   5.715   4.621   5.737 -0.8836 -0.7357 -2.2375
16332TIP3    H270412   5.781   4.672   5.610 -0.4828  0.8922 -1.3979
16333TIP3   OH270413   2.263   6.638  16.498  1.0721  0.0312 -0.3925
16333TIP3    H170414   2.321   6.565  16.521  0.8147  0.4135  1.6721
16333TIP3    H270415   2.321   6.701  16.454  1.8507 -0.3774  0.0109
16334TIP3   OH270416   4.755   3.731   5.794  0.0620  0.1094 -0.3204
16334TIP3    H170417   4.819   3.802   5.790 -0.4581  0.5217 -2.2179
16334TIP3    H270418   4.808   3.652   5.809  0.9749  0.5256 -1.2360
16335TIP3   OH270419   0.574   5.809   4.378  0.1405 -0.5791  0.9370
16335TIP3    H170420   0.652   5.846   4.419  1.0206  0.3960 -1.4032
16335TIP3    H270421   0.523   5.886   4.351  0.8024 -1.0295 -1.8631
16336TIP3   OH270422   0.333   3.843  15.626  0.3058 -0.4310  0.5206
16336TIP3    H170423   0.373   3.855  15.540  0.2822  2.1646  0.8108
16336TIP3    H270424   0.275   3.918  15.637 -1.8998 -2.1858  1.6530
16337TIP3   OH270425   0.761   4.255  17.079 -0.6262 -1.1214 -0.2533
16337TIP3    H170426   0.679   4.303  17.086 -0.1584 -0.3259 -0.0257
16337TIP3    H270427   0.744   4.186  17.015 -1.3505 -0.7138 -0.5061
16338TIP3   OH270428   6.021   0.300  17.010  0.4720  0.1590  0.3937
16338TIP3    H170429   6.036   0.206  16.996 -0.5130 -0.4608  3.0569
16338TIP3    H270430   6.104   0.331  17.046  0.3474  0.0024  0.8204
16339TIP3   OH270431   3.878   6.549   0.713  0.0930 -0.0474  0.0654
16339TIP3    H170432   3.869   6.453   0.715  2.6028 -0.3625 -0.3040
16339TIP3    H270433   3.966   6.564   0.678 -0.4254  2.4387 -0.3764
16340TIP3   OH270434   6.742   5.595  12.646  0.4604  0.6759  0.0522
16340TIP3    H170435   6.702   5.659  12.587 -0.0153  0.8868  0.5951
16340TIP3    H270436   6.670   5.535  12.668  0.0895  1.7452  1.9931
16341TIP3   OH270437   2.517   0.021   3.707 -0.1149  0.0064  0.6880
16341TIP3    H170438   2.594   0.046   3.655 -0.6968  0.5561  0.0755
16341TIP3    H270439   2.444   0.064   3.664 -0.6851  0.0654  1.6806
16342TIP3   OH270440   6.297   2.560  14.216  0.2146 -0.2545  0.1866
16342TIP3    H170441   6.231   2.552  14.146  1.8469 -0.9394 -1.3448
16342TIP3    H270442   6.278   2.645  14.256 -2.2787 -0.9092  0.5702
16343TIP3   OH270443   1.222   0.752  14.705 -0.4219  0.9007 -0.4781
16343TIP3    H170444   1.301   0.706  14.734  0.2860  1.7508 -0.9806
16343TIP3    H270445   1.150   0.696  14.732  0.3691 -0.0729 -0.3171
16344TIP3   OH270446   0.470   0.266  14.934  0.3060 -0.1920 -0.2673
16344TIP3    H170447   0.557   0.289  14.967  0.2042 -2.0897  1.5594
16344TIP3    H270448   0.438   0.346  14.892  1.3200  1.8170  2.5113
16345TIP3   OH270449   0.973   0.612   5.322  0.4189  0.1138  0.5654
16345TIP3    H170450   1.019   0.584   5.402  1.6729  0.5166 -0.0018
16345TIP3    H270451   1.041   0.616   5.255 -0.8920 -1.9618 -1.0115
16346TIP3   OH270452   5.646   3.627   2.192 -0.0397  0.1120  0.1433
16346TIP3    H170453   5.663   3.599   2.282  1.1044 -1.7287 -0.5980
16346TIP3    H270454   5.721   3.595   2.142  0.0074  2.2506 -1.2855
16347TIP3   OH270455   4.291   3.964  16.024  0.3036  0.1215  0.3768
16347TIP3    H170456   4.218   3.997  15.971  0.8045  0.8567  0.1271
16347TIP3    H270457   4.297   4.026  16.097  0.0521 -0.5023  0.9422
16348TIP3   OH270458   6.644   4.010   2.731  0.7242 -0.0270  0.4342
16348TIP3    H170459   6.679   3.991   2.818 -0.8343 -1.0354  0.8944
16348TIP3    H270460   6.650   4.105   2.722  1.8017 -0.0071  1.2266
16349TIP3   OH270461   2.928   4.069   0.930  0.0390 -0.4346 -0.5980
16349TIP3    H170462   2.994   4.045   0.865  0.7072  0.1972 -0.1716
16349TIP3    H270463   2.967   4.142   0.978 -0.7874 -0.3486 -0.0363
16350TIP3   OH270464   6.442   6.559  12.375 -0.0996  0.4847  0.0728
16350TIP3    H170465   6.370   6.569  12.436  1.3659  0.2104  1.9473
16350TIP3    H270466   6.471   6.649  12.356 -1.0114  0.6029 -0.8353
16351TIP3   OH270467   2.694   5.923  15.645 -0.4760 -0.0356  0.0298
16351TIP3    H170468   2.645   5.993  15.689  0.7507  0.6153  0.4334
16351TIP3    H270469   2.707   5.956  15.556  0.0971  0.2644  0.2184
16352TIP3   OH270470   5.740   2.262   0.120 -0.1313  0.0939 -0.3920
16352TIP3    H170471   5.736   2.321   0.045  2.9909  1.1179  0.0733
16352TIP3    H270472   5.820   2.288   0.166 -1.0623 -1.5669  2.4091
16353TIP3   OH270473   5.062   3.783  12.311  0.1778  0.3466 -0.0061
16353TIP3    H170474   5.130   3.756  12.373 -0.9749 -0.6137  0.8881
16353TIP3    H270475   5.007   3.705  12.301 -1.1131  1.2628 -0.2839
16354TIP3   OH270476   2.413   4.035   2.227 -0.0469 -0.1236 -0.1597
16354TIP3    H170477   2.343   4.086   2.267 -1.5965 -1.6649 -0.8068
16354TIP3    H270478   2.470   4.100   2.187  0.0883  1.3051  2.1587
16355TIP3   OH270479   5.563   2.795  16.171  0.5714 -0.0279  0.1051
16355TIP3    H170480   5.484   2.809  16.224  1.2771  3.5704  0.4676
16355TIP3    H270481   5.539   2.823  16.083  1.4266  1.2609  0.2533
16356TIP3   OH270482   1.389   6.688   1.292  0.4126 -0.2216 -0.0899
16356TIP3    H170483   1.352   6.609   1.254  0.3760  0.4908 -1.5985
16356TIP3    H270484   1.418   6.661   1.380 -0.4512 -1.6495 -0.2084
16357TIP3   OH270485   1.496   1.350   2.975 -1.0367 -0.5189  0.1992
16357TIP3    H170486   1.413   1.331   3.019 -1.3479 -1.8587 -0.9008
16357TIP3    H270487   1.471   1.372   2.885 -0.3574  1.5222  0.4491
16358TIP3   OH270488   2.517   2.039   4.709  0.1813  0.7637 -0.1064
16358TIP3    H170489   2.539   1.972   4.774  0.2832  0.3920 -0.5143
16358TIP3    H270490   2.601   2.072   4.679  0.1508  0.4952 -0.4936
16359TIP3   OH270491   5.443   1.352  16.198  0.6348 -0.0996  0.3122
16359TIP3    H170492   5.521   1.332  16.249  0.5285  0.8256  0.8506
16359TIP3    H270493   5.372   1.351  16.263  0.1462 -1.2082 -0.2141
16360TIP3   OH270494   3.915   5.710   5.502  0.1653 -0.2123  0.2328
16360TIP3    H170495   3.911   5.618   5.476 -0.9093 -0.5274  1.3928
16360TIP3    H270496   4.007   5.733   5.495  0.0305 -0.2412 -3.6965
16361TIP3   OH270497   3.726   4.008  14.980 -0.6662 -0.4909  0.4049
16361TIP3    H170498   3.801   3.985  14.926 -2.1974 -0.3228 -1.9562
16361TIP3    H270499   3.763   4.027  15.067  2.4999  3.0093 -1.4200
16362TIP3   OH270500   1.378   5.853   3.164 -0.5080 -0.2395 -0.2406
16362TIP3    H170501   1.406   5.861   3.256  0.9168 -3.3170 -0.2893
16362TIP3    H270502   1.460   5.852   3.114 -1.2115  0.0864 -1.4503
16363TIP3   OH270503   6.725   6.626   1.560  0.6209 -0.2627  0.2388
16363TIP3    H170504   6.700   6.535   1.575  0.7452 -0.3836 -0.2677
16363TIP3    H270505   6.730   6.634   1.464 -0.4774  0.5719  0.2338
16364TIP3   OH270506   0.985   0.382   2.724  0.0243 -0.2245 -0.2746
16364TIP3    H170507   1.014   0.396   2.814  1.2553 -1.5041 -0.4410
16364TIP3    H270508   1.065   0.383   2.672 -0.4930 -1.1864 -1.1249
16365TIP3   OH270509   2.152   2.653  13.747 -0.2796 -0.1929  0.0640
16365TIP3    H170510   2.064   2.687  13.760 -0.7363 -0.8881 -1.0492
16365TIP3    H270511   2.182   2.693  13.665 -0.0134 -0.8429 -0.1655
16366TIP3   OH270512   5.873   0.368   4.283  0.7404  0.5038 -0.4154
16366TIP3    H170513   5.822   0.357   4.202  1.1333 -2.0882 -0.3815
16366TIP3    H270514   5.812   0.410   4.344 -0.7934 -0.7896 -0.9790
16367TIP3   OH270515   5.427   5.992  11.150  0.1288  0.5697  0.1639
16367TIP3    H170516   5.390   6.036  11.074  0.7035  0.4240 -0.2021
16367TIP3    H270517   5.521   6.011  11.146  0.4057 -0.7949 -0.0745
16368TIP3   OH270518   3.516   3.456  16.462 -0.2111 -0.2008 -0.0637
16368TIP3    H170519   3.432   3.433  16.502 -1.6645 -2.1985 -3.7109
16368TIP3    H270520   3.510   3.550  16.446 -1.2134 -0.0873  0.8890
16369TIP3   OH270521   4.037   1.744   1.896  0.1205  0.0771  1.2501
16369TIP3    H170522   3.964   1.684   1.885  1.3700 -1.2194 -0.4179
16369TIP3    H270523   4.102   1.694   1.947  0.5081  0.6124  1.2910
16370TIP3   OH270524   0.280   5.313   6.519  0.0093 -0.8748  0.1830
16370TIP3    H170525   0.242   5.390   6.561  1.9142  0.1099  0.1972
16370TIP3    H270526   0.205   5.256   6.501 -1.4332  0.8955  0.3206
16371TIP3   OH270527   1.849   6.761  11.923 -0.3463 -0.6080  0.1940
16371TIP3    H170528   1.913   6.748  11.994  1.5733  1.0916 -1.0885
16371TIP3    H270529   1.801   6.840  11.948  1.4397  0.9591 -1.0306
16372TIP3   OH270530   2.590   3.471  14.930  0.5998 -0.0708  0.4534
16372TIP3    H170531   2.495   3.464  14.938  0.5317 -1.7229 -1.0801
16372TIP3    H270532   2.610   3.561  14.953 -1.5834  0.8672 -1.0071
16373TIP3   OH270533   6.338   5.551   2.631 -0.3427  0.1036  0.5596
16373TIP3    H170534   6.265   5.579   2.688 -0.8800 -2.0333  1.0028
16373TIP3    H270535   6.327   5.603   2.552 -1.8485  0.4638  0.9617
16374TIP3   OH270536   4.785   4.978  12.016 -0.4184  0.6305  0.8486
16374TIP3    H170537   4.715   4.915  12.029  1.1659 -0.7896  3.2319
16374TIP3    H270538   4.749   5.061  12.049 -1.7077  0.4715 -0.0950
16375TIP3   OH270539   0.225   4.069   1.756  0.2634 -0.0616  0.4185
16375TIP3    H170540   0.261   4.133   1.695 -0.3899 -0.2761 -0.2071
16375TIP3    H270541   0.277   4.080   1.836  0.5322  0.8467  0.1292
16376TIP3   OH270542   5.862   2.693  12.613  0.3890 -0.3198  0.1887
16376TIP3    H170543   5.894   2.754  12.680 -0.3966  0.3601 -0.0403
16376TIP3    H270544   5.822   2.623  12.663 -1.0882  0.6749  0.4556
16377TIP3   OH270545   3.945   6.347   3.164 -0.0124 -0.0353  0.2618
16377TIP3    H170546   3.858   6.310   3.176  0.0668 -0.1357  0.5308
16377TIP3    H270547   3.937   6.404   3.087 -0.4173  0.2999  0.5499
16378TIP3   OH270548   0.047   4.201   6.579  0.0005 -0.5667  0.6733
16378TIP3    H170549  -0.020   4.262   6.549 -0.5928 -1.1058  0.8733
16378TIP3    H270550   0.088   4.245   6.653  0.6757  0.2675 -0.1857
16379TIP3   OH270551   3.007   3.038  13.801 -0.6419 -0.0708 -0.0581
16379TIP3    H170552   3.044   2.950  13.802 -1.0829 -0.2529  0.6493
16379TIP3    H270553   3.083   3.096  13.791 -0.2912 -0.5021  0.1117
16380TIP3   OH270554   1.496   3.407   6.004  0.7114  0.2169 -0.0145
16380TIP3    H170555   1.528   3.483   6.053  0.5144  0.8533 -0.8440
16380TIP3    H270556   1.565   3.342   6.012  1.3277  0.8441 -0.1071
16381TIP3   OH270557   1.518   3.415  16.110  0.1094 -0.5169  0.1664
16381TIP3    H170558   1.521   3.473  16.033 -1.7514 -0.2125  0.2583
16381TIP3    H270559   1.495   3.329  16.074  0.0755 -0.5589  0.2893
16382TIP3   OH270560   0.969   5.515   0.297 -0.3888 -0.7124 -0.0944
16382TIP3    H170561   0.940   5.463   0.222 -1.2075 -0.5998  0.1343
16382TIP3    H270562   0.983   5.603   0.262 -1.3346 -0.5203 -0.0088
16383TIP3   OH270563   6.485   4.825   2.996 -0.1405 -0.6452  0.0795
16383TIP3    H170564   6.466   4.911   2.958  3.3255  0.1690 -0.0860
16383TIP3    H270565   6.460   4.763   2.927  0.5969  0.4647 -1.2371
16384TIP3   OH270566   2.212   1.453  11.037  0.2675  0.3448 -0.0625
16384TIP3    H170567   2.224   1.367  11.076 -0.2277  0.4893  0.4211
16384TIP3    H270568   2.125   1.450  10.999 -0.9879  1.5525  2.4637
16385TIP3   OH270569   3.171   2.534   1.084 -0.3886  0.4877  0.1282
16385TIP3    H170570   3.247   2.571   1.129 -0.6753  0.1629  0.8805
16385TIP3    H270571   3.207   2.497   1.003 -0.0531  2.1844 -0.5496
16386TIP3   OH270572   4.432   4.162  12.411 -0.3852  0.1972  0.3257
16386TIP3    H170573   4.350   4.211  12.408 -0.0477  0.7823  0.3438
16386TIP3    H270574   4.414   4.087  12.467 -0.4871  1.1579  1.6237
16387TIP3   OH270575   1.344   0.058   2.853 -0.3646 -0.5475  0.0344
16387TIP3    H170576   1.276   0.005   2.893  1.2502 -1.8148  1.2583
16387TIP3    H270577   1.423   0.003   2.856  0.3572  0.0982 -3.0215
16388TIP3   OH270578   0.764   0.491  13.332  0.0257  0.6288  0.3814
16388TIP3    H170579   0.764   0.461  13.241 -1.1650 -0.3342  0.6716
16388TIP3    H270580   0.802   0.579  13.328 -2.3797  1.6992 -1.4150
16389TIP3   OH270581   4.764   5.394  14.222 -0.0865  0.3518  0.1727
16389TIP3    H170582   4.825   5.437  14.282  0.8561  1.0804 -1.2595
16389TIP3    H270583   4.690   5.368  14.277  0.3027  1.8729  1.4771
16390TIP3   OH270584   3.551   3.636  13.032 -0.6867 -0.2083  0.0352
16390TIP3    H170585   3.471   3.586  13.041 -1.2526  0.7036  0.1978
16390TIP3    H270586   3.522   3.726  13.015  0.2357  0.5801  2.2196
16391TIP3   OH270587   0.492   0.741   0.961 -0.7683 -0.0235  0.3355
16391TIP3    H170588   0.422   0.697   1.011 -0.7766  0.3341  0.6395
16391TIP3    H270589   0.560   0.758   1.026 -1.6061  2.2690  0.6831
16392TIP3   OH270590   2.974   5.800   0.807  0.8629  0.6972 -0.3488
16392TIP3    H170591   2.951   5.875   0.862  0.0963 -0.0794  0.4140
16392TIP3    H270592   3.050   5.761   0.850 -0.3436 -0.5066  0.7857
16393TIP3   OH270593   2.950   6.476   6.568 -0.0764  0.0513  0.6819
16393TIP3    H170594   2.875   6.484   6.627  0.8064 -3.9852  2.7015
16393TIP3    H270595   3.019   6.527   6.610 -0.8490  1.5758  0.2063
16394TIP3   OH270596   3.904   1.035   2.572 -0.4229 -0.3512  0.1991
16394TIP3    H170597   3.931   1.040   2.664  3.1577 -1.1033 -0.6751
16394TIP3    H270598   3.906   1.125   2.542 -3.2740  0.1384  1.1419
16395TIP3   OH270599   0.479   1.448  12.150 -0.0344 -0.5418 -0.2149
16395TIP3    H170600   0.486   1.539  12.179  2.3873 -1.6311  3.2243
16395TIP3    H270601   0.560   1.432  12.102 -0.3275 -0.9810 -0.5769
16396TIP3   OH270602   5.533   5.852   1.801  0.2931  0.0966 -0.1931
16396TIP3    H170603   5.547   5.827   1.710  0.2883 -0.4537 -0.0435
16396TIP3    H270604   5.557   5.945   1.805  0.5811  0.0415 -0.6854
16397TIP3   OH270605   6.588   0.765  13.553 -0.5521 -0.3860 -0.2892
16397TIP3    H170606   6.581   0.808  13.638 -0.9585 -0.9028 -0.0556
16397TIP3    H270607   6.673   0.720  13.557 -0.6656 -0.5821 -0.0756
16398TIP3   OH270608   4.612   1.507   1.836  0.7308  0.1638  0.5114
16398TIP3    H170609   4.642   1.595   1.856  1.4216  0.0939 -0.1661
16398TIP3    H270610   4.660   1.482   1.757 -2.1334  0.6126 -1.5275
16399TIP3   OH270611   5.237   5.485  14.334  0.3417 -0.3615  0.4800
16399TIP3    H170612   5.243   5.396  14.367  0.5624 -0.2407  0.7704
16399TIP3    H270613   5.197   5.476  14.248  0.3344 -0.7371  0.5212
16400TIP3   OH270614   1.518   4.164  11.585 -0.2753  0.7174  0.0310
16400TIP3    H170615   1.453   4.210  11.638 -1.7119 -0.3132 -0.7781
16400TIP3    H270616   1.560   4.102  11.645 -0.1768  1.2336  0.5022
16401TIP3   OH270617   2.471   1.540  17.253 -0.5490 -0.4529 -0.2256
16401TIP3    H170618   2.539   1.472  17.254 -0.2076 -0.1315 -0.7947
16401TIP3    H270619   2.399   1.500  17.204 -0.2918 -0.3644 -0.6905
16402TIP3   OH270620   2.279   5.675  13.396 -0.0832 -0.1818 -0.5573
16402TIP3    H170621   2.285   5.714  13.309 -0.2731 -0.3831 -0.6604
16402TIP3    H270622   2.217   5.731  13.443 -1.6360 -1.2845 -1.2151
16403TIP3   OH270623   3.277   2.961  14.242 -0.4336  0.3602 -0.5182
16403TIP3    H170624   3.339   2.986  14.173  0.0938  1.5169  0.3377
16403TIP3    H270625   3.310   2.877  14.274  1.4843  1.5025  0.7370
16404TIP3   OH270626   2.307   4.267   2.361  0.2345 -0.0441 -0.0097
16404TIP3    H170627   2.305   4.351   2.317 -0.0359  0.6929  1.3620
16404TIP3    H270628   2.372   4.278   2.431 -1.8268  0.0140  2.0160
16405TIP3   OH270629   1.246   0.271  13.680  0.7480  0.2866 -0.4632
16405TIP3    H170630   1.166   0.220  13.665  1.4535 -0.4938 -1.8003
16405TIP3    H270631   1.253   0.278  13.775  0.3059 -1.6354 -0.2527
16406TIP3   OH270632   6.071   5.420   0.931 -0.1702  0.4421  0.2082
16406TIP3    H170633   6.008   5.350   0.921  0.0586  0.0630  1.2942
16406TIP3    H270634   6.046   5.465   1.012  1.1045  0.0856  0.8396
16407TIP3   OH270635   1.309   1.369  15.903 -0.5906 -0.5325  0.0632
16407TIP3    H170636   1.216   1.378  15.922 -0.5767 -0.2637  0.0067
16407TIP3    H270637   1.313   1.344  15.811 -0.5900 -0.0801 -0.0610
16408TIP3   OH270638   0.203   1.394  11.232 -0.1587 -0.8242 -0.6524
16408TIP3    H170639   0.160   1.359  11.154 -0.7274  0.3891 -0.9061
16408TIP3    H270640   0.241   1.476  11.203 -2.5179  0.9276  0.8776
16409TIP3   OH270641   4.341   3.953  14.005  0.3311  0.2656 -0.3996
16409TIP3    H170642   4.399   3.980  13.933 -0.2721  1.3666 -0.4877
16409TIP3    H270643   4.286   3.884  13.967 -1.5096  2.3335 -1.7316
16410TIP3   OH270644   4.784   1.256   0.488 -0.1463 -0.0061  0.1917
16410TIP3    H170645   4.727   1.209   0.428  1.3123  0.9132 -2.0362
16410TIP3    H270646   4.873   1.233   0.461  0.6031 -0.0897  2.4877
16411TIP3   OH270647   3.070   1.159   2.790  0.1206  0.4400 -0.7310
16411TIP3    H170648   3.117   1.081   2.761  2.6575  1.0455  1.4029
16411TIP3    H270649   3.002   1.126   2.848 -1.3262 -0.3525 -2.7557
16412TIP3   OH270650   2.393   4.932  12.542 -0.0998 -0.2146  0.2831
16412TIP3    H170651   2.476   4.906  12.502 -0.7672  0.0059 -1.3258
16412TIP3    H270652   2.417   5.004  12.601  0.6684  0.9472 -1.3680
16413TIP3   OH270653   6.155   5.064   2.399 -0.3065 -0.2125 -0.1075
16413TIP3    H170654   6.149   5.097   2.488 -0.6636 -0.0022 -0.2072
16413TIP3    H270655   6.245   5.033   2.391 -0.7416 -1.8806  0.8894
16414TIP3   OH270656   4.019   2.977   1.584 -0.3618 -0.1498  0.6356
16414TIP3    H170657   4.108   2.952   1.559 -0.2495 -0.2884  1.1770
16414TIP3    H270658   3.981   2.898   1.621 -1.6610 -0.9392 -2.0755
16415TIP3   OH270659   3.394   3.289   1.891 -0.5181 -0.2289  0.8288
16415TIP3    H170660   3.479   3.250   1.873 -0.1779  0.5573  0.6679
16415TIP3    H270661   3.371   3.258   1.978 -0.8277 -1.7401  0.2439
16416TIP3   OH270662   4.427   1.456  13.856 -0.1229  0.3560 -0.2026
16416TIP3    H170663   4.475   1.537  13.840  0.2965  0.6742  2.2849
16416TIP3    H270664   4.360   1.481  13.919  0.9852 -1.4926  1.8155
16417TIP3   OH270665   2.866   1.950   5.721 -0.0449 -0.1730  0.1082
16417TIP3    H170666   2.933   1.942   5.788  0.5859  0.7593 -0.3857
16417TIP3    H270667   2.806   1.876   5.737  0.5771 -0.4714  1.1257
16418TIP3   OH270668   3.768   4.866  15.723 -0.2806 -0.8288 -0.2467
16418TIP3    H170669   3.736   4.954  15.703  0.5947 -0.6786 -1.0553
16418TIP3    H270670   3.779   4.825  15.637  1.0827 -1.0799  0.0391
16419TIP3   OH270671   0.928   1.788  16.341  0.2944 -0.3670  0.6552
16419TIP3    H170672   0.841   1.788  16.302  1.1883 -1.4137 -1.4965
16419TIP3    H270673   0.934   1.704  16.386  0.8525 -1.1868 -0.8902
16420TIP3   OH270674   6.725   4.159  13.273  0.0731  0.1883  0.8701
16420TIP3    H170675   6.787   4.099  13.313 -0.6099 -0.6178  0.7434
16420TIP3    H270676   6.775   4.240  13.259  1.5428 -0.8995 -0.6286
16421TIP3   OH270677   5.251   0.905   1.028  0.4577 -0.5355 -0.5390
16421TIP3    H170678   5.172   0.958   1.037 -1.0248 -2.6689  0.1121
16421TIP3    H270679   5.317   0.951   1.079 -0.8811  0.4202  0.4110
16422TIP3   OH270680   0.349   5.108   1.811 -0.2261  0.8128  0.3534
16422TIP3    H170681   0.419   5.147   1.862  1.0804 -0.4557 -0.4030
16422TIP3    H270682   0.391   5.077   1.731 -2.0173  1.8372 -1.0950
16423TIP3   OH270683   0.734   3.675  17.112  0.3958 -0.3190  0.6510
16423TIP3    H170684   0.748   3.637  17.198 -0.6644 -0.4989  0.7562
16423TIP3    H270685   0.717   3.768  17.129  2.2100  0.0927  0.4577
16424TIP3   OH270686   4.936   2.170   3.785 -0.1238 -0.7586 -1.1093
16424TIP3    H170687   4.859   2.148   3.732  0.4706 -1.0801 -1.8546
16424TIP3    H270688   4.990   2.091   3.781  0.2645 -0.5139 -0.6305
16425TIP3   OH270689   1.096   5.010  14.716  0.1734 -0.0859 -0.3583
16425TIP3    H170690   1.084   4.961  14.635 -0.3294  0.9985 -0.9570
16425TIP3    H270691   1.182   4.983  14.749 -0.6890 -2.4841  0.1220
16426TIP3   OH270692   2.467   1.606   0.433 -0.4761  0.5980  0.3642
16426TIP3    H170693   2.376   1.600   0.405  0.2304 -1.3089 -1.7456
16426TIP3    H270694   2.482   1.527   0.485  0.0779  0.7350  0.4232
16427TIP3   OH270695   5.536   3.550  11.323 -0.0034  0.1277 -0.6041
16427TIP3    H170696   5.619   3.590  11.348  0.4333 -0.5952 -0.8735
16427TIP3    H270697   5.544   3.458  11.350 -0.5884 -0.0184 -0.9046
16428TIP3   OH270698   5.370   0.373  12.024  0.8345 -0.2138 -0.1040
16428TIP3    H170699   5.305   0.443  12.031  2.9667  2.0845 -1.3299
16428TIP3    H270700   5.326   0.304  11.974 -1.1551  0.4869  0.5739
16429TIP3   OH270701   3.023   4.413   0.880  0.2145 -0.1983 -0.1800
16429TIP3    H170702   3.046   4.450   0.965  0.7620  1.8158 -1.1513
16429TIP3    H270703   3.097   4.358   0.857  1.9782  2.3687 -1.0643
16430TIP3   OH270704   4.878   4.625  15.676  0.2033 -0.5566  0.0476
16430TIP3    H170705   4.947   4.564  15.700  1.1992 -0.4569 -2.2860
16430TIP3    H270706   4.849   4.662  15.759  2.8277 -0.7306  1.1434
16431TIP3   OH270707   5.826   4.935   5.538 -0.2595 -0.1941  0.0272
16431TIP3    H170708   5.761   4.998   5.509  0.2077  0.9920  1.3989
16431TIP3    H270709   5.784   4.889   5.611 -0.0470 -0.4056  0.0187
16432TIP3   OH270710   6.038   5.440  14.926 -0.0395  0.1599  0.7870
16432TIP3    H170711   6.039   5.480  15.013 -1.3574 -1.0472  1.3946
16432TIP3    H270712   6.118   5.387  14.923  2.4100  3.5623 -0.4884
16433TIP3   OH270713   4.030   0.633  11.405  0.3642  0.7818 -0.0676
16433TIP3    H170714   3.983   0.554  11.379 -2.1818  1.7741  1.1447
16433TIP3    H270715   4.051   0.677  11.323  1.6539 -1.0194 -0.7453
16434TIP3   OH270716   1.845   2.293   5.485 -0.7032 -0.0888 -0.0479
16434TIP3    H170717   1.792   2.225   5.445 -0.9061  0.3960 -0.6119
16434TIP3    H270718   1.808   2.375   5.453 -0.6177  0.3015  0.8101
16435TIP3   OH270719   2.490   4.018   4.903 -0.1840 -0.3545  0.1276
16435TIP3    H170720   2.522   4.089   4.959 -0.2234 -1.1330  1.1537
16435TIP3    H270721   2.524   4.040   4.816  0.3729  0.5635  0.5546
16436TIP3   OH270722   5.083   4.857   1.773  0.1795  0.0962 -0.1580
16436TIP3    H170723   5.060   4.802   1.699 -0.2343 -0.8592  0.6517
16436TIP3    H270724   5.105   4.942   1.735  0.2110 -0.4487 -1.3767
16437TIP3   OH270725   5.744   2.063   2.788  0.1906 -1.0774 -0.3291
16437TIP3    H170726   5.713   2.054   2.878 -1.6538  0.0297 -0.7976
16437TIP3    H270727   5.796   2.144   2.787 -0.3977 -0.6962 -0.3973
16438TIP3   OH270728   1.806   1.467   0.622  0.3703  0.2713 -0.0772
16438TIP3    H170729   1.821   1.502   0.534 -1.0193 -0.9806 -0.8700
16438TIP3    H270730   1.837   1.376   0.617 -1.4041 -0.3890  0.1278
16439TIP3   OH270731   2.678   0.779   5.689 -0.4747  0.7303 -0.3717
16439TIP3    H170732   2.701   0.702   5.741 -0.0060  1.4370  0.5027
16439TIP3    H270733   2.690   0.853   5.749 -0.1598  1.5490 -1.4118
16440TIP3   OH270734   5.254   3.354   1.062 -0.6876 -0.0256 -0.5047
16440TIP3    H170735   5.321   3.369   1.129 -2.6148  0.5751  1.4140
16440TIP3    H270736   5.302   3.351   0.980  1.6652  0.5037  0.7706
16441TIP3   OH270737   2.052   1.609  14.430 -0.0249  0.1024  0.1407
16441TIP3    H170738   2.009   1.579  14.350  1.0429 -1.2471  0.0423
16441TIP3    H270739   2.134   1.560  14.434  0.2705  0.6440  1.7149
16442TIP3   OH270740   2.055   2.007  13.350 -0.2254 -0.1724 -0.0950
16442TIP3    H170741   2.020   1.918  13.357 -1.2114 -0.0556 -2.6164
16442TIP3    H270742   2.150   1.994  13.342 -0.1363 -0.8243  1.5921
16443TIP3   OH270743   1.941   6.317   1.385  0.0500 -0.4178  0.5482
16443TIP3    H170744   1.894   6.388   1.342  1.0117 -0.5816 -0.8479
16443TIP3    H270745   1.893   6.238   1.361 -1.4677 -0.2315  2.7247
16444TIP3   OH270746   4.271   5.093  14.338  0.2525  0.7641  0.4013
16444TIP3    H170747   4.219   5.169  14.309 -0.8809 -0.5804 -1.3530
16444TIP3    H270748   4.219   5.018  14.310  2.1991 -0.6647  0.4670
16445TIP3   OH270749   1.086   4.362  10.741 -0.1299  0.1592  0.6540
16445TIP3    H170750   1.159   4.301  10.752 -1.5815 -1.7418  0.2901
16445TIP3    H270751   1.008   4.306  10.742 -1.4442  1.8048 -1.5116
16446TIP3   OH270752   4.872   5.221   3.858  0.3369 -0.1457  0.2614
16446TIP3    H170753   4.959   5.188   3.833  0.0632  0.2906 -1.3587
16446TIP3    H270754   4.811   5.163   3.813 -0.1797  0.8194 -0.3027
16447TIP3   OH270755   4.213   1.277  14.656  0.1965  0.4230 -0.2495
16447TIP3    H170756   4.121   1.302  14.647 -0.4324 -0.8735  1.9371
16447TIP3    H270757   4.261   1.350  14.617 -1.7294  1.1743 -1.3731
16448TIP3   OH270758   1.105   1.250   2.953 -0.3634  1.0263  0.0736
16448TIP3    H170759   1.175   1.200   2.996 -0.3753  0.9672  0.0245
16448TIP3    H270760   1.049   1.279   3.024 -0.1274  1.3212  0.1407
16449TIP3   OH270761   0.922   1.260  13.650  0.3117  0.1182 -0.0013
16449TIP3    H170762   0.836   1.229  13.623 -0.2598  2.0230 -0.4510
16449TIP3    H270763   0.911   1.286  13.741  0.5726 -0.1329  0.1062
16450TIP3   OH270764   2.110   3.579   2.569 -0.6147 -0.0250 -0.6642
16450TIP3    H170765   2.138   3.595   2.659  0.7026 -1.2430 -0.8259
16450TIP3    H270766   2.058   3.656   2.546 -0.5947  0.5110  0.9795
16451TIP3   OH270767   0.886   5.143   5.154 -0.0873 -0.0374 -0.4315
16451TIP3    H170768   0.841   5.059   5.145  1.3715 -1.3477  2.9380
16451TIP3    H270769   0.942   5.149   5.076 -2.2276 -0.7688 -2.1188
16452TIP3   OH270770   4.796   5.692  12.201 -0.4169  0.1774 -0.0396
16452TIP3    H170771   4.829   5.605  12.223 -0.6198  0.2578  0.5881
16452TIP3    H270772   4.870   5.750  12.215 -0.9763  0.4706  2.1287
16453TIP3   OH270773   0.555   1.538  13.922 -0.3986 -0.2628  0.1332
16453TIP3    H170774   0.547   1.570  13.832 -0.9052 -1.3301 -0.2183
16453TIP3    H270775   0.469   1.554  13.961 -0.0890  0.4796  0.5434
16454TIP3   OH270776   5.249   5.786   1.884  0.1404 -0.4215  0.3713
16454TIP3    H170777   5.337   5.815   1.859 -0.0840  0.4835  0.5791
16454TIP3    H270778   5.191   5.852   1.845 -0.3604 -0.2667  1.3494
16455TIP3   OH270779   0.670   3.592   0.063 -0.0239  0.1816  0.0754
16455TIP3    H170780   0.741   3.544   0.106 -0.2390  0.1621  0.4083
16455TIP3    H270781   0.663   3.674   0.112 -1.1903 -0.4268  0.9553
16456TIP3   OH270782   0.103   0.788   2.766 -0.1628  0.3312  0.2326
16456TIP3    H170783   0.129   0.873   2.730 -0.2551  1.0617  1.8241
16456TIP3    H270784   0.171   0.728   2.735 -1.9690  0.0977 -4.0271
16457TIP3   OH270785   6.359   3.869   4.222  0.8643 -0.2980  0.6537
16457TIP3    H170786   6.434   3.927   4.211  0.8865 -0.4191  0.1565
16457TIP3    H270787   6.387   3.808   4.291  1.3456 -0.5456  0.2442
16458TIP3   OH270788   1.145   4.130  15.310 -0.2927  0.4656 -1.0000
16458TIP3    H170789   1.080   4.102  15.375  0.7269 -0.4651 -0.3642
16458TIP3    H270790   1.202   4.190  15.358  0.2237  0.0917 -1.1370
16459TIP3   OH270791   4.876   4.903   4.074  0.7155 -0.0790  0.2641
16459TIP3    H170792   4.874   4.998   4.072  1.2883 -0.0706 -0.1974
16459TIP3    H270793   4.903   4.882   4.164 -0.2561  0.1645  0.6214
16460TIP3   OH270794   0.456   3.700   2.137 -0.3024  0.2928  0.3811
16460TIP3    H170795   0.445   3.745   2.221 -1.8567  0.1477  0.2897
16460TIP3    H270796   0.547   3.715   2.113 -0.0097  0.8949  1.7744
16461TIP3   OH270797   4.474   4.937  11.883  0.3601 -0.2153  0.0745
16461TIP3    H170798   4.411   4.876  11.846  0.9580 -0.5331 -0.4498
16461TIP3    H270799   4.466   4.927  11.978  0.3075 -0.9588 -0.0077
16462TIP3   OH270800   5.438   5.902  10.738  0.0151 -0.2325 -0.0133
16462TIP3    H170801   5.500   5.975  10.746 -0.9817  0.4959  1.6977
16462TIP3    H270802   5.474   5.834  10.795 -0.0691 -0.3268 -0.0736
16463TIP3   OH270803   3.854   2.234  16.656  0.3222  0.3697  0.0034
16463TIP3    H170804   3.873   2.247  16.749 -1.0395 -0.9625  0.5270
16463TIP3    H270805   3.797   2.157  16.654 -0.7029  1.0994 -1.8371
16464TIP3   OH270806   5.678   5.101  12.984 -0.3627  0.0088  0.0472
16464TIP3    H170807   5.732   5.181  12.980  0.2047 -0.2297  1.8273
16464TIP3    H270808   5.659   5.091  13.078 -1.3605 -1.3395 -0.2858
16465TIP3   OH270809   4.197   3.123  12.053  0.0975  0.0040 -0.4253
16465TIP3    H170810   4.223   3.213  12.075  0.9307 -0.7808  2.2436
16465TIP3    H270811   4.280   3.075  12.046 -0.3716 -0.9858  0.5038
16466TIP3   OH270812   2.290   1.701  11.261  0.4916  0.0602  0.5055
16466TIP3    H170813   2.367   1.654  11.227  0.4707  0.7942 -0.5870
16466TIP3    H270814   2.327   1.768  11.318  0.6955  0.6954 -0.3642
16467TIP3   OH270815   3.500   3.060  16.387 -1.1886  0.5022  0.1496
16467TIP3    H170816   3.406   3.066  16.370 -1.3058  0.9500  0.8761
16467TIP3    H270817   3.506   3.009  16.468 -0.6901 -1.1576 -0.8909
16468TIP3   OH270818   3.032   1.658  11.764 -0.5202 -0.0984  0.0883
16468TIP3    H170819   3.090   1.703  11.825 -0.0000 -2.0969  1.1673
16468TIP3    H270820   2.995   1.586  11.815 -0.5955 -1.4388 -1.7535
16469TIP3   OH270821   3.312   3.092  11.167  0.2294 -0.2452  0.3404
16469TIP3    H170822   3.283   3.103  11.077 -1.5787 -1.7105  0.6839
16469TIP3    H270823   3.303   3.179  11.206  2.2859  0.7192 -1.1617
16470TIP3   OH270824   0.809   1.286   1.457 -0.5095  0.1286  0.2860
16470TIP3    H170825   0.747   1.342   1.410  1.2049  0.3702 -1.8384
16470TIP3    H270826   0.857   1.240   1.388 -0.3540 -2.3324  1.9185
16471TIP3   OH270827   2.809   1.960  11.475  0.9472 -0.1060  0.0754
16471TIP3    H170828   2.749   1.973  11.547  0.4107 -1.2075 -0.1521
16471TIP3    H270829   2.893   1.939  11.517  1.1328  1.1337  0.3833
16472TIP3   OH270830   0.918   0.722   4.480 -0.6871 -0.5755  0.2296
16472TIP3    H170831   0.949   0.662   4.547  1.5554  0.6853  0.4227
16472TIP3    H270832   0.943   0.682   4.397  1.5757  0.3922  0.3815
16473TIP3   OH270833   2.991   6.681  13.057 -0.3386  0.0542 -0.5738
16473TIP3    H170834   2.949   6.698  13.141  1.0362 -0.2563  0.1990
16473TIP3    H270835   2.940   6.611  13.018 -1.3206  0.5754 -0.2628
16474TIP3   OH270836   0.634   5.069   5.852 -0.0157  0.6026  0.0416
16474TIP3    H170837   0.688   5.132   5.899 -0.5810  0.1109  1.4152
16474TIP3    H270838   0.551   5.115   5.837  0.1766  0.7705 -0.5079
16475TIP3   OH270839   6.115   0.992   3.662  0.0904 -0.2861  0.2490
16475TIP3    H170840   6.184   1.048   3.698 -1.1047  0.1301  2.0064
16475TIP3    H270841   6.123   1.002   3.567 -0.1828  3.0363  0.4745
16476TIP3   OH270842   6.676   6.611   1.260 -0.3454 -0.2832 -0.3039
16476TIP3    H170843   6.691   6.523   1.225  0.5310  0.0906 -0.8974
16476TIP3    H270844   6.598   6.642   1.215 -0.2344 -0.4782 -0.6312
16477TIP3   OH270845   6.300   1.181  13.916 -0.2156  0.2484  0.1122
16477TIP3    H170846   6.212   1.217  13.908 -0.5013 -0.6649 -1.6096
16477TIP3    H270847   6.311   1.162  14.009 -1.6805  0.7415  0.4067
16478TIP3   OH270848   2.935   1.099  13.374 -0.2294  0.5780 -0.3018
16478TIP3    H170849   2.965   1.116  13.285  0.6468 -1.2487 -0.3954
16478TIP3    H270850   2.955   1.007  13.390  0.3010  1.0175  2.0491
16479TIP3   OH270851   4.893   1.443  13.729 -0.1852 -0.2214  0.1846
16479TIP3    H170852   4.989   1.441  13.733 -0.2246  0.2103  1.5539
16479TIP3    H270853   4.868   1.518  13.783 -1.3020 -0.2724 -0.2386
16480TIP3   OH270854   2.372   6.303   0.934 -0.2992  0.2186  0.0979
16480TIP3    H170855   2.357   6.380   0.879 -0.5399 -0.5594 -0.9611
16480TIP3    H270856   2.460   6.274   0.911 -0.6863 -0.5529 -0.4491
16481TIP3   OH270857   2.297   0.362   5.549  0.6161 -0.4114  0.1069
16481TIP3    H170858   2.203   0.378   5.547  0.7104  0.4402  1.0938
16481TIP3    H270859   2.310   0.306   5.625  1.2276  2.5469  2.4061
16482TIP3   OH270860   6.069   2.051   5.617 -0.7205 -0.1771 -0.8027
16482TIP3    H170861   5.992   2.065   5.561 -1.0468  2.0513  0.1006
16482TIP3    H270862   6.032   2.036   5.704 -0.1748  1.6518 -0.2141
16483TIP3   OH270863   6.066   4.552  11.178  0.2585  0.1740  0.2274
16483TIP3    H170864   6.046   4.465  11.211 -0.7312  0.2667 -0.0940
16483TIP3    H270865   6.051   4.610  11.253 -1.5782  0.3377 -0.2308
16484TIP3   OH270866   6.219   6.489  15.929 -0.4889 -0.6845  0.6927
16484TIP3    H170867   6.234   6.555  15.861 -0.4479 -1.5477 -0.1519
16484TIP3    H270868   6.272   6.520  16.003  0.0683 -0.1216  0.0810
16485TIP3   OH270869   6.549   6.561   4.703  0.0333  0.7502 -0.0860
16485TIP3    H170870   6.474   6.540   4.647 -1.7277  1.7958  1.7551
16485TIP3    H270871   6.606   6.484   4.696 -0.5298  0.4720 -2.5498
16486TIP3   OH270872   1.373   2.847   3.582 -0.6161  0.0203  0.4288
16486TIP3    H170873   1.347   2.811   3.667  0.8429 -2.2745 -0.0288
16486TIP3    H270874   1.427   2.923   3.604 -0.9470 -0.0349  1.5054
16487TIP3   OH270875   1.024   4.598  16.584  0.3849  0.4993  0.2165
16487TIP3    H170876   0.964   4.560  16.520 -0.3885  1.6714  0.2281
16487TIP3    H270877   1.110   4.589  16.543 -0.2368  2.9116 -1.9278
16488TIP3   OH270878   6.610   3.996   1.855  0.1165  0.1001 -0.4176
16488TIP3    H170879   6.667   3.938   1.805  0.3439 -0.1199  0.0918
16488TIP3    H270880   6.523   3.956   1.850  0.4295 -0.7219  0.6131
16489TIP3   OH270881   4.733   4.524   5.020  0.5582  1.0093  0.4444
16489TIP3    H170882   4.803   4.562   4.966 -0.3193  3.1041  0.6821
16489TIP3    H270883   4.780   4.478   5.090  1.6914  1.0782 -0.2395
16490TIP3   OH270884   4.403   4.864  13.364 -0.3781 -0.6021  0.3043
16490TIP3    H170885   4.385   4.770  13.367 -2.6899 -0.2815 -1.2652
16490TIP3    H270886   4.497   4.870  13.346  0.2622 -2.5345  2.4950
16491TIP3   OH270887   1.782   3.322  15.422  0.3748  0.1855  0.1647
16491TIP3    H170888   1.790   3.281  15.336 -1.2515 -0.1800  0.1594
16491TIP3    H270889   1.815   3.411  15.409  1.5066 -0.3140 -0.4606
16492TIP3   OH270890   2.766   2.378   0.127 -0.4332  0.0702  0.5645
16492TIP3    H170891   2.808   2.332   0.054 -0.2143  0.9677  0.1100
16492TIP3    H270892   2.838   2.404   0.184 -0.6079 -0.6633  1.1290
16493TIP3   OH270893   4.816   3.566   3.702  0.4370  0.0964  0.1655
16493TIP3    H170894   4.784   3.630   3.639 -0.3927  0.2407  0.7118
16493TIP3    H270895   4.907   3.550   3.677  0.1778  0.2916 -0.9393
16494TIP3   OH270896   4.345   3.328  12.183  0.0280  0.3260  0.2360
16494TIP3    H170897   4.431   3.301  12.150  0.0775  1.3991 -0.5918
16494TIP3    H270898   4.330   3.272  12.259  0.1908 -1.8264 -1.2330
16495TIP3   OH270899   6.180   4.508   0.346 -0.0421 -0.1773 -0.4079
16495TIP3    H170900   6.213   4.423   0.316 -0.5066 -0.7166  0.5363
16495TIP3    H270901   6.190   4.505   0.441 -1.4954  0.1935 -0.2226
16496TIP3   OH270902   6.402   3.189  13.259 -0.3109 -0.2827  0.4937
16496TIP3    H170903   6.395   3.193  13.354  0.3467  2.0607  0.5131
16496TIP3    H270904   6.418   3.280  13.232 -1.0702 -0.7809 -1.9127
16497TIP3   OH270905   3.069   6.317   1.270 -0.7462  0.2828 -0.0954
16497TIP3    H170906   3.112   6.285   1.350 -1.4047  0.0311  0.1591
16497TIP3    H270907   2.984   6.350   1.299 -0.1016  2.2936 -0.3414
16498TIP3   OH270908   1.795   2.514   0.851 -0.5704 -0.0287 -0.0878
16498TIP3    H170909   1.790   2.430   0.897  0.1191  0.7159  1.3851
16498TIP3    H270910   1.795   2.580   0.920 -1.4785  1.2278 -1.2378
16499TIP3   OH270911   1.309   5.063  12.878  0.5954  0.9355 -0.1431
16499TIP3    H170912   1.287   5.155  12.861  0.6032  0.8611 -0.5608
16499TIP3    H270913   1.284   5.049  12.969  0.4808  1.3197 -0.1140
16500TIP3   OH270914   2.780   0.707   2.506 -0.4435 -0.2298 -0.0310
16500TIP3    H170915   2.779   0.702   2.411 -0.7952 -0.4880 -0.0141
16500TIP3    H270916   2.694   0.675   2.533 -0.9529  1.3105  0.3096
16501TIP3   OH270917   0.806   3.457  14.377 -0.2553 -0.6054  0.3402
16501TIP3    H170918   0.713   3.437  14.391 -0.9067 -0.3618 -2.8507
16501TIP3    H270919   0.806   3.548  14.345  1.1146 -0.5850  0.3568
16502TIP3   OH270920   5.736   0.429  13.582  0.2097  0.4728 -0.0546
16502TIP3    H170921   5.689   0.491  13.638  0.7150  0.4324  0.4237
16502TIP3    H270922   5.795   0.383  13.642  0.6206  0.2942 -0.5905
16503TIP3   OH270923   0.632   0.971   2.521  0.1141  0.3082 -0.3623
16503TIP3    H170924   0.722   0.970   2.552  0.3563 -0.7863 -1.0545
16503TIP3    H270925   0.589   0.901   2.571 -1.0456  2.4467  1.8361
16504TIP3   OH270926   3.372   2.454  10.433  0.1785 -0.3977 -0.2955
16504TIP3    H170927   3.283   2.449  10.397 -0.9284 -0.9435  2.2332
16504TIP3    H270928   3.370   2.393  10.507  2.6485 -0.3113 -0.0986
16505TIP3   OH270929   1.543   5.050  14.953 -0.0066  0.3088  0.1175
16505TIP3    H170930   1.450   5.059  14.931 -0.1964  1.3950  1.2594
16505TIP3    H270931   1.544   4.987  15.025 -0.0310  1.3450  1.0563
16506TIP3   OH270932   3.785   0.104   4.784 -0.0755  0.5072  0.2836
16506TIP3    H170933   3.711   0.161   4.762 -0.2848 -0.2195 -0.9868
16506TIP3    H270934   3.761   0.066   4.868 -2.2697 -1.4109 -1.0677
16507TIP3   OH270935   5.079   3.714  13.313  0.1053  0.4590  0.0959
16507TIP3    H170936   5.164   3.695  13.274  0.3327  2.2919 -0.4077
16507TIP3    H270937   5.098   3.772  13.386 -0.6143 -0.2773  0.9001
16508TIP3   OH270938   0.259   2.401   5.345 -0.7187  0.0071 -0.6577
16508TIP3    H170939   0.168   2.422   5.366 -0.8902 -0.7302 -0.6402
16508TIP3    H270940   0.301   2.386   5.429 -1.1012 -1.7128 -0.7430
16509TIP3   OH270941   5.768   0.648   3.957 -0.4593  0.5590 -0.2474
16509TIP3    H170942   5.847   0.692   3.923 -0.8187  2.0124  0.7026
16509TIP3    H270943   5.697   0.683   3.903 -0.6252  0.2532 -0.2297
16510TIP3   OH270944   1.908   5.983   0.324  0.3173 -0.4202 -0.2518
16510TIP3    H170945   1.918   6.074   0.353  0.6497 -0.1642 -1.1500
16510TIP3    H270946   1.995   5.958   0.293  0.1194 -0.8987 -0.4238
16511TIP3   OH270947   0.209   2.962  11.493  0.2101 -0.0963 -0.4466
16511TIP3    H170948   0.178   3.031  11.435 -0.1095 -0.0247 -0.1936
16511TIP3    H270949   0.186   2.881  11.448 -0.8128 -0.0519 -0.0355
16512TIP3   OH270950   5.329   1.794  14.969 -0.7261 -0.5973  0.6038
16512TIP3    H170951   5.278   1.843  15.034  0.1711  0.0569  0.8430
16512TIP3    H270952   5.325   1.847  14.890 -0.6105 -0.6651  0.5531
16513TIP3   OH270953   3.534   2.603  10.953 -0.2016  0.3315  0.4457
16513TIP3    H170954   3.569   2.606  11.042  1.7359  0.6603 -0.2713
16513TIP3    H270955   3.585   2.669  10.905 -1.8939  0.8757 -0.6857
16514TIP3   OH270956   3.890   2.896  10.718 -0.0521  0.6347 -0.0880
16514TIP3    H170957   3.868   2.988  10.702 -2.3107 -0.2012 -2.6802
16514TIP3    H270958   3.973   2.883  10.672 -0.4889  1.0783 -1.0331
16515TIP3   OH270959   4.380   3.806  11.552  0.3400  0.0469  0.4157
16515TIP3    H170960   4.391   3.847  11.637 -3.0279  1.9532  0.1043
16515TIP3    H270961   4.449   3.845  11.498  0.9608  0.7056  1.6328
16516TIP3   OH270962   4.114   4.342   2.795  0.7112  1.1456  0.6161
16516TIP3    H170963   4.202   4.361   2.762  1.4101 -0.7153  1.2834
16516TIP3    H270964   4.127   4.320   2.887 -0.6604  2.1770  1.0849
16517TIP3   OH270965   4.761   6.039  15.300 -0.0039  0.0783 -0.3220
16517TIP3    H170966   4.852   6.042  15.270  0.3328  0.4859  0.7158
16517TIP3    H270967   4.722   6.119  15.263 -0.4249 -0.9349 -2.1970
16518TIP3   OH270968   0.671   6.322  13.305  0.2937 -0.2761  0.5276
16518TIP3    H170969   0.700   6.411  13.286  1.9683 -0.9829 -0.4648
16518TIP3    H270970   0.739   6.266  13.267 -1.4635 -2.0212 -0.2277
16519TIP3   OH270971   5.422   5.256  13.130  0.4559 -0.3087 -0.0804
16519TIP3    H170972   5.399   5.223  13.044 -0.6552 -2.7407  1.0428
16519TIP3    H270973   5.464   5.340  13.114 -1.3968  0.2114 -2.8513
16520TIP3   OH270974   2.634   0.878   0.823  0.0236 -0.1870 -0.0692
16520TIP3    H170975   2.622   0.824   0.745  0.0824  0.8924 -0.8501
16520TIP3    H270976   2.726   0.906   0.818 -0.0340  0.0592  0.2765
16521TIP3   OH270977   2.345   2.956  14.637  0.1785  0.3391  0.1789
16521TIP3    H170978   2.250   2.955  14.631  0.1157  0.0119  1.1684
16521TIP3    H270979   2.364   2.988  14.725  0.9665 -0.4189  0.3034
16522TIP3   OH270980   5.845   3.040   1.641  0.0868 -0.4473  0.4607
16522TIP3    H170981   5.754   3.068   1.634  0.3379  0.0650 -1.1145
16522TIP3    H270982   5.893   3.121   1.660  0.2938 -0.5821  0.5192
16523TIP3   OH270983   2.694   5.501   5.633 -0.3198 -0.0295  0.2968
16523TIP3    H170984   2.633   5.559   5.588 -0.6413 -0.5654  0.0380
16523TIP3    H270985   2.642   5.426   5.659  0.0858 -0.1867  0.6701
16524TIP3   OH270986   2.707   4.063  17.246  0.0388 -0.7520 -0.4474
16524TIP3    H170987   2.790   4.099  17.278 -0.5251  0.9577 -0.7675
16524TIP3    H270988   2.726   4.034  17.158  0.3455 -0.5139 -0.4614
16525TIP3   OH270989   4.604   2.556  12.434 -0.7939 -0.3339  0.6536
16525TIP3    H170990   4.671   2.488  12.445  0.2202  0.6553  0.7321
16525TIP3    H270991   4.653   2.638  12.429 -1.9724  0.3699  0.1669
16526TIP3   OH270992   5.999   1.122   2.171 -0.1488  0.3097  0.4417
16526TIP3    H170993   6.063   1.186   2.138 -0.9709  0.3317 -1.2003
16526TIP3    H270994   6.002   1.050   2.108 -2.9260  1.0687 -0.7203
16527TIP3   OH270995   2.449   2.832  15.126 -0.5555 -0.3441 -0.3210
16527TIP3    H170996   2.481   2.756  15.174  0.1755 -0.4420 -0.9427
16527TIP3    H270997   2.398   2.796  15.053 -0.3665 -0.2379 -0.5076
16528TIP3   OH270998   3.885   0.728   4.404 -0.0401 -0.1779  0.5534
16528TIP3    H170999   3.791   0.733   4.419 -0.5560 -0.7072 -2.0129
16528TIP3    H271000   3.918   0.670   4.473 -1.3181  1.1101  2.3380
16529TIP3   OH271001   2.750   4.687  11.713 -0.3572  0.3266 -0.1980
16529TIP3    H171002   2.733   4.781  11.714  0.9065  0.6035  2.1785
16529TIP3    H271003   2.707   4.654  11.792 -0.8892 -1.1439 -1.0543
16530TIP3   OH271004   1.241   2.199  12.295 -0.1240 -0.2787  0.5694
16530TIP3    H171005   1.335   2.209  12.280  0.1777 -0.6502  2.0773
16530TIP3    H271006   1.233   2.114  12.339 -1.0660  0.1527  1.2665
16531TIP3   OH271007   2.268   4.657   2.646  0.4268  0.5275  0.2528
16531TIP3    H171008   2.338   4.671   2.710  1.3410 -0.7830 -0.4153
16531TIP3    H271009   2.236   4.746   2.626 -0.9099  0.9517  3.5287
16532TIP3   OH271010   1.086   6.076   6.094 -0.0247 -0.0920 -0.0077
16532TIP3    H171011   1.011   6.134   6.088 -0.3629 -0.3344  1.6120
16532TIP3    H271012   1.049   5.988   6.102  0.4808 -0.5577 -2.2062
16533TIP3   OH271013   3.863   4.970  12.735  0.7195  0.1930  0.2457
16533TIP3    H171014   3.935   5.007  12.684 -0.5289  1.5817 -0.5784
16533TIP3    H271015   3.835   4.894  12.685  1.4453 -0.2209  0.4519
16534TIP3   OH271016   3.978   4.639   3.530  0.6825 -0.4663 -0.6402
16534TIP3    H171017   3.915   4.631   3.458  0.7107 -1.6222 -0.5569
16534TIP3    H271018   3.980   4.552   3.570  0.6428  0.1664  0.7939
16535TIP3   OH271019   1.280   2.895   5.588  0.2834  0.2487  0.2120
16535TIP3    H171020   1.303   2.987   5.601 -0.7794  0.5606 -0.0364
16535TIP3    H271021   1.363   2.848   5.598  0.5342  1.0311  2.1872
16536TIP3   OH271022   3.214   1.336   0.415 -0.0766  0.3522 -0.5560
16536TIP3    H171023   3.144   1.297   0.362 -1.3886  1.4231  0.3251
16536TIP3    H271024   3.188   1.428   0.425  0.8206  0.4825  0.8271
16537TIP3   OH271025   0.495   2.991   1.423  0.3789  0.4089  0.4411
16537TIP3    H171026   0.527   2.904   1.397 -1.9944 -0.4919  0.2889
16537TIP3    H271027   0.478   2.984   1.517 -0.3999  0.5005  0.3122
16538TIP3   OH271028   6.047   0.487   3.986  0.4324 -0.1138 -0.3479
16538TIP3    H171029   6.041   0.520   3.897  1.3061 -0.0159 -0.3789
16538TIP3    H271030   6.132   0.519   4.018  0.3868 -0.6321  0.3159
16539TIP3   OH271031   6.719   0.062   4.446  0.0461  0.5657  0.2000
16539TIP3    H171032   6.656   0.063   4.518 -0.5288 -0.9467 -0.2556
16539TIP3    H271033   6.666   0.067   4.367  0.4842 -0.6250 -0.1867
16540TIP3   OH271034   2.819   4.556   2.123  0.3805 -0.2711 -0.1877
16540TIP3    H171035   2.757   4.548   2.195  2.1263 -0.1879  1.4212
16540TIP3    H271036   2.829   4.467   2.090  1.0668 -0.6822  1.0561
16541TIP3   OH271037   3.259   0.436   4.651 -0.5775 -0.0735 -0.2825
16541TIP3    H171038   3.333   0.436   4.590  0.4692 -0.4500  0.9451
16541TIP3    H271039   3.298   0.455   4.737 -1.5923 -2.3730  0.7628
16542TIP3   OH271040   4.511   5.988  16.882 -0.2512  0.1245  0.3375
16542TIP3    H171041   4.595   5.969  16.923 -0.7915 -1.5598  0.7693
16542TIP3    H271042   4.489   5.908  16.834 -1.5986  0.5098  0.2571
16543TIP3   OH271043   3.207   4.590   5.347 -0.9902 -0.1512  0.3076
16543TIP3    H171044   3.194   4.670   5.295 -1.1283 -0.7837 -0.6633
16543TIP3    H271045   3.132   4.588   5.406 -1.6055 -0.1435 -0.4471
16544TIP3   OH271046   6.663   2.912  11.409  0.2047 -0.4313 -0.2509
16544TIP3    H171047   6.718   2.982  11.375  0.6850 -0.4691  0.4212
16544TIP3    H271048   6.712   2.832  11.392 -0.0900 -0.5552 -0.5210
16545TIP3   OH271049   3.315   3.726   2.318  0.4072  0.3174 -0.1647
16545TIP3    H171050   3.267   3.669   2.378  1.5391  0.1374  0.5894
16545TIP3    H271051   3.293   3.692   2.231  0.3650 -0.7140  0.2275
16546TIP3   OH271052   4.492   5.887  15.046  0.0483  0.2242 -0.3970
16546TIP3    H171053   4.398   5.888  15.068  0.0872 -0.7466 -0.1555
16546TIP3    H271054   4.497   5.835  14.966  0.4159  0.0338 -0.2509
16547TIP3   OH271055   4.232   4.847  15.641 -0.7442  0.1524  0.0677
16547TIP3    H171056   4.218   4.795  15.562  0.2367  1.8167 -1.2790
16547TIP3    H271057   4.148   4.844  15.687 -1.3146 -0.9255 -0.9782
16548TIP3   OH271058   5.288   2.129  13.933  0.3124  0.1243 -0.6861
16548TIP3    H171059   5.374   2.139  13.893  0.6399 -1.2911 -0.3799
16548TIP3    H271060   5.298   2.169  14.020  0.6770 -0.0773 -0.6316
16549TIP3   OH271061   5.644   2.008  12.032  0.9650 -0.2960 -0.6810
16549TIP3    H171062   5.592   2.006  11.952  1.2466 -2.3132 -0.8741
16549TIP3    H271063   5.695   2.089  12.025 -1.2571  1.1695 -1.0021
16550TIP3   OH271064   6.478   2.230  16.171 -0.1508 -0.6623 -0.2887
16550TIP3    H171065   6.545   2.162  16.182  0.9605  0.0239 -2.2560
16550TIP3    H271066   6.516   2.308  16.212  0.8869  0.0475 -2.4417
16551TIP3   OH271067   1.511   3.720  13.208 -0.1517  0.2116  0.3441
16551TIP3    H171068   1.551   3.713  13.121 -1.0308 -0.2396 -0.0447
16551TIP3    H271069   1.457   3.641  13.216  0.2162  0.0627  1.4638
16552TIP3   OH271070   3.604   6.664  11.703  0.0499 -0.3753  0.0915
16552TIP3    H171071   3.574   6.713  11.626 -2.1944 -0.7571  0.6357
16552TIP3    H271072   3.658   6.594  11.668  2.1025  1.5400 -0.8217
16553TIP3   OH271073   5.904   1.492  12.320 -0.2612  0.2406  0.3805
16553TIP3    H171074   5.932   1.564  12.376 -0.8328  0.1782  0.7480
16553TIP3    H271075   5.811   1.482  12.338  0.0779 -1.4965  1.3732
16554TIP3   OH271076   4.925   4.454   4.849 -0.2436 -0.3246 -0.3850
16554TIP3    H171077   5.001   4.398   4.866  0.4875  1.3888  2.7866
16554TIP3    H271078   4.954   4.514   4.780  0.1034 -1.7125 -1.4767
16555TIP3   OH271079   5.865   1.876  16.725 -0.0521 -0.2650  0.0983
16555TIP3    H171080   5.812   1.819  16.781  0.3388 -0.8907 -0.1645
16555TIP3    H271081   5.946   1.827  16.711 -0.4203 -0.4422 -1.6037
16556TIP3   OH271082   4.406   6.217  16.800 -0.2569  0.2825  0.2445
16556TIP3    H171083   4.401   6.266  16.883  0.3663  0.2512  0.3051
16556TIP3    H271084   4.455   6.138  16.822  1.0901  0.8917 -0.4247
16557TIP3   OH271085   1.569   4.675  15.829  1.1037 -0.1237  0.1152
16557TIP3    H171086   1.483   4.702  15.797  1.8963  0.2567 -1.8346
16557TIP3    H271087   1.587   4.735  15.901  0.2242  0.5536 -0.2018
16558TIP3   OH271088   0.720   5.132  12.222 -0.2008 -0.1012  0.4089
16558TIP3    H171089   0.752   5.180  12.298 -1.0219  1.8412 -0.4142
16558TIP3    H271090   0.799   5.109  12.173  0.2208  0.2440  0.9214
16559TIP3   OH271091   3.457   6.345   2.879  0.6990  0.5605  0.5748
16559TIP3    H171092   3.532   6.290   2.901  0.8617 -0.9525 -3.0572
16559TIP3    H271093   3.494   6.414   2.823 -0.5126  0.0062 -0.9758
16560TIP3   OH271094   1.779   3.189   3.273 -0.1677 -0.0475  0.2133
16560TIP3    H171095   1.770   3.235   3.189 -1.1033  0.5288  0.6166
16560TIP3    H271096   1.690   3.184   3.307  0.1586 -0.6247  1.0003
16561TIP3   OH271097   5.001   5.898   4.385 -0.4682  0.4827  0.0720
16561TIP3    H171098   4.950   5.828   4.343  1.3659 -0.2586 -1.0591
16561TIP3    H271099   4.984   5.975   4.332 -1.2533  0.5243  0.3690
16562TIP3   OH271100   5.978   4.340   4.883 -0.0718  0.3035 -0.2186
16562TIP3    H171101   6.032   4.417   4.865 -1.3172  1.1982 -0.2401
16562TIP3    H271102   5.983   4.288   4.802  0.8456  0.3020 -0.1695
16563TIP3   OH271103   2.947   1.725   2.554  0.1656 -0.2119  0.0128
16563TIP3    H171104   2.904   1.696   2.635  0.4681 -0.3110  0.1385
16563TIP3    H271105   2.888   1.696   2.484  1.3383 -2.8573 -0.0041
16564TIP3   OH271106   1.237   4.536   1.414  0.4909 -0.3291 -0.5047
16564TIP3    H171107   1.230   4.482   1.335 -0.2796 -1.5755  0.3886
16564TIP3    H271108   1.330   4.535   1.436  0.4191 -1.7776 -0.1903
16565TIP3   OH271109   1.475   1.895  15.582 -0.2673  0.3546 -0.3265
16565TIP3    H171110   1.422   1.824  15.619 -1.2647  1.1811 -0.1282
16565TIP3    H271111   1.515   1.857  15.504  0.4867 -0.8963  0.6304
16566TIP3   OH271112   5.202   3.865  15.960  0.4669  0.0074  0.5980
16566TIP3    H171113   5.187   3.842  16.051  2.1615  1.9200  1.4334
16566TIP3    H271114   5.292   3.836  15.942  0.4207  0.3343 -0.2338
16567TIP3   OH271115   5.398   6.120   4.079  0.0084 -0.0546  0.1489
16567TIP3    H171116   5.329   6.169   4.035  0.7176  0.3659 -0.5069
16567TIP3    H271117   5.375   6.125   4.172 -0.8119  0.1209 -0.0552
16568TIP3   OH271118   1.823   5.740   0.839 -0.4443 -0.9138  0.1629
16568TIP3    H171119   1.910   5.739   0.800 -0.2089 -2.8221  0.6358
16568TIP3    H271120   1.768   5.696   0.774 -1.1029  0.3863 -0.1847
16569TIP3   OH271121   2.079   2.309   3.319  0.1545  0.2366 -0.2329
16569TIP3    H171122   2.135   2.320   3.242  0.9709  1.1316  0.4667
16569TIP3    H271123   2.115   2.233   3.365 -1.2514 -1.2530 -1.4713
16570TIP3   OH271124   4.170   3.144  15.149 -0.3302  0.2575 -0.5103
16570TIP3    H171125   4.165   3.236  15.176  1.2930  0.6588 -1.4093
16570TIP3    H271126   4.181   3.095  15.230 -0.0793  0.9770 -0.1022
16571TIP3   OH271127   6.455   1.810   4.989 -0.1198  0.1452  0.2822
16571TIP3    H171128   6.475   1.762   5.069 -1.7564 -2.8957 -0.9973
16571TIP3    H271129   6.386   1.872   5.015  0.2768  0.1218  1.4577
16572TIP3   OH271130   0.107   2.321  12.463 -0.0191  0.1689 -0.4029
16572TIP3    H171131   0.148   2.320  12.549  2.0799  1.5501 -1.2988
16572TIP3    H271132   0.135   2.240  12.422 -1.4454 -0.7446  0.3266
16573TIP3   OH271133   3.398   6.162  14.851  0.0388  0.1348 -0.1542
16573TIP3    H171134   3.421   6.206  14.769  0.0760 -3.1372 -2.0507
16573TIP3    H271135   3.466   6.096  14.863 -1.8450 -1.7857  0.5819
16574TIP3   OH271136   6.699   0.730   2.327 -1.0694 -0.4430 -0.3501
16574TIP3    H171137   6.784   0.695   2.302 -1.2245 -0.4308 -0.9188
16574TIP3    H271138   6.645   0.652   2.342 -0.6528 -0.4651  1.1405
16575TIP3   OH271139   5.141   5.282  15.872 -0.6053  0.1292  0.1160
16575TIP3    H171140   5.070   5.295  15.935  0.6814  0.7538  1.4742
16575TIP3    H271141   5.174   5.370  15.855  0.1968 -0.2071 -0.0942
16576TIP3   OH271142   2.911   4.260  11.519  0.1948  0.2239  0.3883
16576TIP3    H171143   2.835   4.206  11.539 -0.6931  1.5677  0.8238
16576TIP3    H271144   2.878   4.326  11.458  1.6948 -0.8192 -1.7071
16577TIP3   OH271145   0.109   5.456  15.153  0.1558  0.4147  0.0849
16577TIP3    H171146   0.043   5.524  15.164  0.6576  1.1607 -1.2941
16577TIP3    H271147   0.073   5.398  15.086  1.2146  1.2766 -1.2704
16578TIP3   OH271148   5.748   4.776   0.716 -0.4699  0.2010  0.5516
16578TIP3    H171149   5.832   4.820   0.700 -1.3592  1.2176 -1.6782
16578TIP3    H271150   5.771   4.683   0.724  0.9615  0.5659  0.9830
16579TIP3   OH271151   4.419   3.885   4.027 -0.4980  0.6239  0.3148
16579TIP3    H171152   4.508   3.917   4.044 -0.9224  2.0664 -0.0159
16579TIP3    H271153   4.410   3.888   3.932 -1.7589  3.1104  0.4295
16580TIP3   OH271154   4.323   6.077  16.584  0.2334 -0.0201  0.1347
16580TIP3    H171155   4.333   6.143  16.653  2.6967 -1.3289  1.1580
16580TIP3    H271156   4.274   6.122  16.515 -1.1031  1.7744  2.1255
16581TIP3   OH271157   3.172   6.317  11.779 -0.1695 -0.2771  0.3806
16581TIP3    H171158   3.217   6.232  11.783 -0.5143 -0.4705  0.1758
16581TIP3    H271159   3.232   6.373  11.728 -1.6466 -1.5081 -3.0091
16582TIP3   OH271160   6.396   1.810   2.481 -0.6492 -0.2121  0.3711
16582TIP3    H171161   6.489   1.801   2.463 -0.7486 -0.2425 -0.1358
16582TIP3    H271162   6.386   1.782   2.572  0.1892  1.9409  1.2065
16583TIP3   OH271163   4.746   5.283  13.412 -0.2570  0.0362  0.3008
16583TIP3    H171164   4.675   5.250  13.357 -2.3800  1.1803  2.1388
16583TIP3    H271165   4.781   5.206  13.457  0.6024 -0.7136 -1.5773
16584TIP3   OH271166   0.521   5.655  12.889  0.0257  0.3521 -0.3610
16584TIP3    H171167   0.455   5.711  12.848 -1.9988 -0.8057  1.1871
16584TIP3    H271168   0.492   5.566  12.872  1.3368 -0.2053  0.1477
16585TIP3   OH271169   3.514   0.954  13.989  0.0301  0.4815 -0.3644
16585TIP3    H171170   3.477   0.954  14.078 -0.0171  0.4899 -0.3838
16585TIP3    H271171   3.448   0.908  13.936 -1.5477  3.2964 -1.0465
16586TIP3   OH271172   6.195   6.624   2.614  0.1487  0.5581 -0.6740
16586TIP3    H171173   6.200   6.661   2.526 -0.4330 -1.9998 -1.8706
16586TIP3    H271174   6.286   6.610   2.640  0.4193  2.9531 -0.0208
16587TIP3   OH271175   2.688   2.229  15.434  0.4915  0.5273 -0.2117
16587TIP3    H171176   2.623   2.244  15.502  1.2263  0.2530  0.5670
16587TIP3    H271177   2.649   2.161  15.378  0.1177  0.3579  0.2505
16588TIP3   OH271178   6.501   4.206  12.642 -0.2910 -0.1248 -0.5407
16588TIP3    H171179   6.458   4.134  12.595 -2.7259  0.3691  0.7918
16588TIP3    H271180   6.455   4.212  12.725  0.5647  2.2842 -0.1610
16589TIP3   OH271181   4.953   0.648   2.367 -0.3668 -0.7550  0.6938
16589TIP3    H171182   4.966   0.689   2.452  1.4715  1.7487 -0.6554
16589TIP3    H271183   4.870   0.683   2.336 -0.5380 -0.8692  1.0212
16590TIP3   OH271184   4.776   6.289   3.170  0.5512  0.4507  0.4907
16590TIP3    H171185   4.762   6.380   3.196 -1.5545  0.5085 -0.6678
16590TIP3    H271186   4.840   6.294   3.099  0.1722  1.0757  0.1834
16591TIP3   OH271187   3.340   2.862  11.703  0.4025 -0.4337  0.0099
16591TIP3    H171188   3.434   2.873  11.718  0.2032  1.1440  0.2712
16591TIP3    H271189   3.320   2.927  11.635 -0.0289 -2.5775 -2.0546
16592TIP3   OH271190   4.604   2.819   1.488  0.5068 -0.2462 -0.4552
16592TIP3    H171191   4.567   2.791   1.572  1.0327  0.1864 -0.0738
16592TIP3    H271192   4.620   2.913   1.499  0.8925 -0.2526 -0.9258
16593TIP3   OH271193   5.444   5.983   2.120 -0.2948 -0.2667  0.5230
16593TIP3    H171194   5.491   6.019   2.195  1.6767 -0.3301 -0.6236
16593TIP3    H271195   5.413   5.897   2.150 -0.7234  0.2698  1.6702
16594TIP3   OH271196   1.966   4.227   5.213  0.3045 -0.5017 -0.0913
16594TIP3    H171197   2.034   4.215   5.147  2.2672 -0.0137  1.7312
16594TIP3    H271198   1.924   4.310   5.189  0.8424 -0.4274 -0.8159
16595TIP3   OH271199   3.431   0.884   0.458  0.0617 -0.7436  0.8863
16595TIP3    H171200   3.414   0.815   0.394  0.1339 -0.5738  0.6855
16595TIP3    H271201   3.347   0.927   0.471 -0.1524 -1.3374  1.5626
16596TIP3   OH271202   5.059   2.632   2.625  0.5597 -0.5694  0.4612
16596TIP3    H171203   5.118   2.580   2.571 -1.5957 -0.3139 -2.3159
16596TIP3    H271204   5.064   2.720   2.588 -2.0356 -0.6922 -0.3360
16597TIP3   OH271205   2.554   0.730   0.593  0.5652  0.1977 -0.2596
16597TIP3    H171206   2.591   0.780   0.520  0.2383  1.3782  0.3565
16597TIP3    H271207   2.471   0.773   0.612 -0.2370 -1.2369 -0.3697
16598TIP3   OH271208   0.542   4.834  14.596 -0.7169 -0.2562  0.1271
16598TIP3    H171209   0.512   4.744  14.585 -0.9291 -0.1163 -0.5362
16598TIP3    H271210   0.468   4.878  14.638  0.3450 -0.9425  2.8730
16599TIP3   OH271211   3.510   1.972  12.963  0.2560 -0.1304  0.5503
16599TIP3    H171212   3.532   1.987  13.055  0.8640 -1.0833  0.5699
16599TIP3    H271213   3.586   2.004  12.915 -0.1944  0.6646  0.3460
16600TIP3   OH271214   5.524   6.096  12.776  0.7411 -0.5623 -0.0992
16600TIP3    H171215   5.574   6.059  12.849  1.5101  0.4929 -0.0656
16600TIP3    H271216   5.473   6.022  12.742  0.3913 -1.0870  1.4709
16601TIP3   OH271217   0.415   5.034  14.014 -0.1584 -0.3589  0.2104
16601TIP3    H171218   0.387   4.953  14.056 -1.6463  1.6642  3.5325
16601TIP3    H271219   0.333   5.076  13.987  0.3976  0.9553  0.5021
16602TIP3   OH271220   2.468   6.608  16.254 -0.4530 -0.1440  0.0263
16602TIP3    H171221   2.525   6.586  16.327  0.2037  2.6089  0.4691
16602TIP3    H271222   2.524   6.657  16.194 -1.7136  0.3550 -0.7857
16603TIP3   OH271223   3.491   5.729   2.048  0.5040 -0.6701  0.4697
16603TIP3    H171224   3.583   5.702   2.038  1.8828  2.8242  2.0228
16603TIP3    H271225   3.479   5.798   1.982 -0.3446  0.2523  1.5333
16604TIP3   OH271226   2.564   0.065  12.163  1.0011 -0.0690  0.0774
16604TIP3    H171227   2.480   0.084  12.121  0.4841  0.8550  1.4441
16604TIP3    H271228   2.605   0.150  12.174  2.0921 -0.5063 -0.4973
16605TIP3   OH271229   0.257   6.222   6.590 -0.0839 -0.1123  0.7919
16605TIP3    H171230   0.265   6.216   6.495 -3.3873  2.2738  0.1711
16605TIP3    H271231   0.234   6.134   6.618 -2.3849 -0.2210 -1.1610
16606TIP3   OH271232   5.070   2.645   1.118 -0.2947 -0.6073  0.4781
16606TIP3    H171233   5.100   2.708   1.183 -0.3787  1.7562 -1.5756
16606TIP3    H271234   5.014   2.697   1.059 -0.6908 -2.7122 -1.1288
16607TIP3   OH271235   3.042   1.583   0.031  0.2689 -0.0153 -0.1213
16607TIP3    H171236   3.124   1.592   0.079  0.0964 -0.7621  0.3394
16607TIP3    H271237   3.064   1.525  -0.042  0.0116 -0.7479  0.3739
16608TIP3   OH271238   3.726   0.954   6.131 -0.0003  0.2170  0.1026
16608TIP3    H171239   3.800   0.964   6.071 -0.0062  0.4809  0.1373
16608TIP3    H271240   3.762   0.977   6.217 -0.2852  1.0113  0.0221
16609TIP3   OH271241   0.112   5.505   5.979  0.0502 -0.7510  0.2347
16609TIP3    H171242   0.051   5.437   5.951 -1.3187  0.8278 -0.7713
16609TIP3    H271243   0.091   5.580   5.924 -0.0678  1.2737  2.8520
16610TIP3   OH271244   1.914   4.691  10.914  0.0220  0.6256 -0.0246
16610TIP3    H171245   1.981   4.717  10.977 -0.3541  1.1591  0.1564
16610TIP3    H271246   1.864   4.770  10.898 -1.3338 -0.0352  0.7654
16611TIP3   OH271247   3.610   0.969  11.210  0.1799  0.1846 -0.0652
16611TIP3    H171248   3.517   0.993  11.216  0.0633  0.4092 -2.0596
16611TIP3    H271249   3.610   0.878  11.181  0.6514 -1.3203  4.0181
16612TIP3   OH271250   2.230   2.742  16.859 -0.3831  0.0430  0.1021
16612TIP3    H171251   2.167   2.777  16.797  0.1328  1.0041  0.1017
16612TIP3    H271252   2.244   2.812  16.922  0.7490 -0.1191  0.0505
16613TIP3   OH271253   1.198   0.342  11.563 -0.4988 -0.0065 -0.5830
16613TIP3    H171254   1.160   0.264  11.603  0.8884 -0.0909  0.6399
16613TIP3    H271255   1.124   0.383  11.516 -1.6032 -1.2101  0.0403
16614TIP3   OH271256   6.224   6.024   0.186  0.1423  0.1563 -0.6391
16614TIP3    H171257   6.176   5.942   0.193 -0.1946  0.3871 -0.2070
16614TIP3    H271258   6.311   5.998   0.155 -0.3431 -0.2310 -1.7155
16615TIP3   OH271259   5.041   0.687   3.036 -0.1617  0.1475  0.0948
16615TIP3    H171260   5.096   0.618   3.072 -2.0487 -1.5424 -0.1187
16615TIP3    H271261   5.103   0.745   2.990  1.5636 -0.9319  0.9343
16616TIP3   OH271262   0.100   3.173   2.372  0.5447 -0.0293 -0.6328
16616TIP3    H171263   0.062   3.160   2.458 -0.3478  0.8846 -0.8663
16616TIP3    H271264   0.032   3.144   2.311  0.1964  1.5606 -1.0540
16617TIP3   OH271265   6.239   5.537   5.677  0.1793  0.0206  0.3136
16617TIP3    H171266   6.290   5.456   5.681 -1.7376 -1.2247  0.6619
16617TIP3    H271267   6.175   5.521   5.608 -0.3858  1.1609  0.5539
16618TIP3   OH271268   0.685   0.678   2.723 -0.6002  0.2804 -0.3034
16618TIP3    H171269   0.679   0.586   2.698 -1.4182  0.8898 -2.5651
16618TIP3    H271270   0.594   0.708   2.725 -0.3429  1.0450  0.4320
16619TIP3   OH271271   5.067   3.839  15.394 -0.1954 -0.7004  0.3684
16619TIP3    H171272   5.156   3.821  15.423 -0.7007 -1.8667  1.2771
16619TIP3    H271273   5.057   3.934  15.403  1.8865 -0.0377 -2.5694
16620TIP3   OH271274   0.985   2.245   1.768 -0.4050 -0.1933 -0.0332
16620TIP3    H171275   0.929   2.185   1.717  0.4737 -0.0640 -1.1968
16620TIP3    H271276   0.938   2.328   1.768  0.6180  0.4852 -2.7231
16621TIP3   OH271277   1.462   2.905  16.295  0.3628 -0.2426 -0.0208
16621TIP3    H171278   1.453   2.893  16.200 -1.8789  2.4675 -0.2580
16621TIP3    H271279   1.393   2.849  16.332 -0.5010  0.6909 -0.1875
16622TIP3   OH271280   2.227   4.791   0.957 -0.0788 -0.5421 -0.5089
16622TIP3    H171281   2.299   4.761   1.013 -1.1179 -2.0069  0.1093
16622TIP3    H271282   2.201   4.875   0.995  1.2588  0.0200 -0.7427
16623TIP3   OH271283   4.805   1.731  12.921 -0.4305  0.6794  0.1355
16623TIP3    H171284   4.888   1.718  12.875 -0.5382 -1.2439  0.4166
16623TIP3    H271285   4.831   1.751  13.011 -0.2681 -0.0270  0.2492
16624TIP3   OH271286   1.703   2.562   3.955  0.4425 -0.3147  0.2500
16624TIP3    H171287   1.728   2.613   4.032 -0.8872 -0.9049  1.1047
16624TIP3    H271288   1.751   2.603   3.883 -0.1879  1.8225  0.9743
16625TIP3   OH271289   6.633   5.212  17.128 -0.2917 -0.5351 -0.3990
16625TIP3    H171290   6.598   5.255  17.206 -0.6886  0.4093 -1.0701
16625TIP3    H271291   6.726   5.201  17.146 -0.1208  0.8995 -0.3171
16626TIP3   OH271292   1.754   3.386  16.725  0.1278 -0.1502 -0.0320
16626TIP3    H171293   1.756   3.293  16.699  1.9294 -0.1522 -0.0110
16626TIP3    H271294   1.777   3.433  16.645 -0.9881  0.3013 -0.0922
16627TIP3   OH271295   6.275   2.465  13.719  0.1806  0.6063 -0.6204
16627TIP3    H171296   6.281   2.423  13.633  0.9464  0.1942 -0.3686
16627TIP3    H271297   6.275   2.559  13.700 -1.2878  0.5294 -1.1729
16628TIP3   OH271298   0.103   1.477  15.690  0.3929  0.2765 -0.6776
16628TIP3    H171299   0.162   1.552  15.682 -0.8646  1.1625 -2.3931
16628TIP3    H271300   0.051   1.479  15.609 -0.9719 -1.3277  0.1008
16629TIP3   OH271301   6.114   0.133  12.109 -0.3161 -0.1327 -0.3453
16629TIP3    H171302   6.187   0.072  12.098 -1.0357 -1.6366  2.4304
16629TIP3    H271303   6.044   0.098  12.055 -0.3818 -1.1928  0.4138
16630TIP3   OH271304   5.019   1.120  16.784 -0.0252 -0.1478 -0.5614
16630TIP3    H171305   5.103   1.125  16.830 -1.1008 -0.4570  1.5383
16630TIP3    H271306   5.035   1.060  16.711  1.6162 -0.0594 -0.3050
16631TIP3   OH271307   2.998   3.325  10.595 -0.3940  1.0137  0.0198
16631TIP3    H171308   3.043   3.408  10.583  1.6820 -0.3013 -2.1784
16631TIP3    H271309   3.066   3.264  10.623 -1.2314 -0.5302 -1.0980
16632TIP3   OH271310   4.775   1.752   3.539  0.7902 -0.2368  0.0246
16632TIP3    H171311   4.846   1.688   3.538 -0.0263 -1.2546  1.9001
16632TIP3    H271312   4.817   1.836   3.557  1.6159 -0.6670  0.1249
16633TIP3   OH271313   3.502   5.626  16.989  0.3462 -0.5450 -0.5086
16633TIP3    H171314   3.544   5.639  16.904  0.4775 -1.7764 -0.6574
16633TIP3    H271315   3.446   5.549  16.976 -0.8007  0.1709  0.1037
16634TIP3   OH271316   0.488   1.810   1.288  1.1660  0.5591 -0.0978
16634TIP3    H171317   0.499   1.905   1.295  1.6923  0.5034 -0.1594
16634TIP3    H271318   0.473   1.794   1.194 -3.1729  1.0149  0.3257
16635TIP3   OH271319   0.727   4.246   4.606 -0.0757  0.7896 -0.0151
16635TIP3    H171320   0.809   4.265   4.652  0.3798  1.7039 -1.1524
16635TIP3    H271321   0.754   4.195   4.529 -0.7677 -0.2970  0.4480
16636TIP3   OH271322   5.410   0.482  13.225  0.0051  0.3266  0.0307
16636TIP3    H171323   5.324   0.499  13.265 -1.7595 -0.2196 -3.1633
16636TIP3    H271324   5.435   0.395  13.258 -0.4513  0.6387  1.2705
16637TIP3   OH271325   1.993   4.109  11.734 -0.0917  0.2927 -0.6937
16637TIP3    H171326   2.038   4.189  11.758 -0.4597  0.9030 -1.9356
16637TIP3    H271327   1.920   4.102  11.796 -0.2481  1.0965 -0.7759
16638TIP3   OH271328   1.953   4.001  14.673  0.1733 -0.0739 -0.0826
16638TIP3    H171329   1.871   3.995  14.722  0.8983  0.0931  1.1850
16638TIP3    H271330   2.014   4.044  14.733  1.1961 -0.2015 -1.0001
16639TIP3   OH271331   3.148   6.387  14.694  0.0950 -0.3000  0.0873
16639TIP3    H171332   3.130   6.321  14.627  1.4033  0.4154 -1.0068
16639TIP3    H271333   3.088   6.458  14.673  0.3669 -0.1566 -0.2068
16640TIP3   OH271334   5.250   5.362  15.439 -0.7550  0.0585  0.7628
16640TIP3    H171335   5.195   5.349  15.362 -1.7125 -1.2572  1.6178
16640TIP3    H271336   5.217   5.443  15.478 -0.3949  0.6246 -0.0808
16641TIP3   OH271337   1.705   3.742   3.458 -0.6718 -0.6481  0.0684
16641TIP3    H171338   1.770   3.738   3.528  1.4245 -0.1408 -1.6970
16641TIP3    H271339   1.622   3.721   3.500  0.7611 -2.4104  2.2932
16642TIP3   OH271340   2.924   4.485  14.270  0.3227  0.1445  0.1697
16642TIP3    H171341   3.006   4.448  14.236  1.1510  1.1206  1.0576
16642TIP3    H271342   2.857   4.450  14.212  1.1945 -1.7794  0.2263
16643TIP3   OH271343   5.465   3.665   4.544 -0.3725  0.0282  0.1570
16643TIP3    H171344   5.438   3.738   4.600 -1.9432  0.5893 -1.2336
16643TIP3    H271345   5.419   3.589   4.580  0.1867 -0.0089  0.7988
16644TIP3   OH271346   1.384   2.535   1.284  0.4811  0.2615 -0.0647
16644TIP3    H171347   1.294   2.531   1.253  1.2301 -0.6646 -2.3388
16644TIP3    H271348   1.378   2.576   1.370 -2.0611  0.4854 -0.2744
16645TIP3   OH271349   1.902   4.834  13.932  0.1754 -0.7890  0.0597
16645TIP3    H171350   1.887   4.788  14.014  1.4112 -0.3500  0.5488
16645TIP3    H271351   1.937   4.919  13.957  0.5741 -0.6467 -0.9207
16646TIP3   OH271352   2.275   0.754   3.554 -0.0829  0.0889  0.4889
16646TIP3    H171353   2.220   0.725   3.627 -0.6584  2.7452  1.1996
16646TIP3    H271354   2.336   0.816   3.594  2.2898 -1.3688 -0.6275
16647TIP3   OH271355   3.160   2.792   0.728 -0.3749 -0.5724 -0.2840
16647TIP3    H171356   3.120   2.866   0.682 -1.3209 -0.1801  1.1202
16647TIP3    H271357   3.253   2.813   0.729 -0.6071  0.5260 -0.0546
16648TIP3   OH271358   0.878   4.250  16.042  0.7313 -0.4242 -0.0428
16648TIP3    H171359   0.793   4.293  16.056  2.0984  2.0293  1.1764
16648TIP3    H271360   0.855   4.158  16.031 -2.4293  0.4934 -3.2483
16649TIP3   OH271361   1.759   2.300   1.046 -0.2146  0.1573 -0.3611
16649TIP3    H171362   1.667   2.325   1.036 -0.7578 -1.5841 -0.0653
16649TIP3    H271363   1.780   2.323   1.136 -0.6368 -0.2204 -0.1581
16650TIP3   OH271364   4.549   2.038   5.049 -0.1812 -0.2428 -0.2857
16650TIP3    H171365   4.564   2.119   5.097  0.2774 -0.3720 -0.2075
16650TIP3    H271366   4.526   1.974   5.117  0.8323 -0.5164 -0.1891
16651TIP3   OH271367   0.822   4.216  15.162  0.0337  0.5865  0.1047
16651TIP3    H171368   0.863   4.301  15.178  0.2804  0.3691  0.6499
16651TIP3    H271369   0.891   4.164  15.119 -0.5574  1.1004 -1.5494
16652TIP3   OH271370   5.084   2.197  13.145  0.0045 -0.1584 -0.6752
16652TIP3    H171371   5.146   2.138  13.102  0.1124 -0.6954  0.1888
16652TIP3    H271372   5.013   2.140  13.174 -0.0008  0.1629 -0.0386
16653TIP3   OH271373   0.516   6.256   1.592 -0.0117  0.2767 -0.3042
16653TIP3    H171374   0.510   6.309   1.512  1.0393 -0.1194 -0.6706
16653TIP3    H271375   0.519   6.166   1.560 -1.2590  0.0075  0.2878
16654TIP3   OH271376   0.395   4.584  12.317 -0.2840 -0.5392  0.0531
16654TIP3    H171377   0.317   4.597  12.371 -0.4537 -1.8481  0.1663
16654TIP3    H271378   0.468   4.605  12.375 -0.5096 -0.7572  0.4248
16655TIP3   OH271379   2.074   1.182   4.469  0.2035 -0.2733  0.0692
16655TIP3    H171380   2.028   1.109   4.428  1.4449 -0.7159 -0.5654
16655TIP3    H271381   2.121   1.143   4.542 -0.8498  0.2808  1.0882
16656TIP3   OH271382   6.462   6.528   1.844  0.5318  0.5878 -0.2282
16656TIP3    H171383   6.423   6.471   1.778  1.3260 -0.4562  0.1616
16656TIP3    H271384   6.424   6.500   1.927  0.7166  0.8215 -0.0599
16657TIP3   OH271385   3.169   0.181   2.727  0.6158  0.1759  0.5059
16657TIP3    H171386   3.216   0.118   2.782  1.0988 -0.6773 -0.8295
16657TIP3    H271387   3.091   0.133   2.698  0.5245  0.5073  0.1967
16658TIP3   OH271388   3.490   1.263   2.169 -0.2622  0.2791 -0.1726
16658TIP3    H171389   3.441   1.343   2.188  1.7287  1.6516 -0.4625
16658TIP3    H271390   3.460   1.236   2.083 -1.4310  0.3423  0.2062
16659TIP3   OH271391   0.524   6.020   1.412  0.5546  0.4686 -1.0968
16659TIP3    H171392   0.575   6.060   1.342  0.9946 -1.0110 -1.6515
16659TIP3    H271393   0.433   6.026   1.382  0.4945  1.9445 -0.6939
16660TIP3   OH271394   2.107   2.376  13.650  0.3931 -0.4926  0.7255
16660TIP3    H171395   2.101   2.468  13.673  1.8868 -0.3181  0.5317
16660TIP3    H271396   2.125   2.332  13.734 -0.0452 -0.5768  0.7764
16661TIP3   OH271397   3.962   3.270   3.276 -0.1548  0.1567 -0.1320
16661TIP3    H171398   3.886   3.326   3.260 -1.0165 -0.5222  1.2890
16661TIP3    H271399   4.036   3.318   3.240 -0.7256  2.6375  1.6827
16662TIP3   OH271400   4.369   1.267  13.500  0.1508  0.0836  0.7831
16662TIP3    H171401   4.437   1.331  13.520  0.7700  0.0261 -0.9641
16662TIP3    H271402   4.294   1.319  13.471 -0.2538  0.1042  1.8239
16663TIP3   OH271403   3.868   6.079  11.661 -0.0964 -0.7366 -0.2005
16663TIP3    H171404   3.773   6.089  11.649  0.2423  4.5721 -0.9802
16663TIP3    H271405   3.878   6.061  11.755 -1.8690 -0.0968  0.1606
16664TIP3   OH271406   4.594   2.627   0.290 -0.2212  0.4034 -0.0692
16664TIP3    H171407   4.584   2.560   0.357 -1.4809  1.3243  0.7303
16664TIP3    H271408   4.571   2.584   0.208 -1.3731 -0.0707  0.4813
16665TIP3   OH271409   1.354   2.521   4.134  0.2851  0.0528  0.3973
16665TIP3    H171410   1.393   2.587   4.191  2.5196  0.2021 -1.1613
16665TIP3    H271411   1.419   2.508   4.065 -1.8959 -0.7529 -1.6332
16666TIP3   OH271412   2.161   5.705   1.737 -0.3817 -0.6308 -0.4330
16666TIP3    H171413   2.200   5.650   1.806  2.1479  2.8034  1.1714
16666TIP3    H271414   2.219   5.693   1.662 -1.1845 -1.8086 -0.8953
16667TIP3   OH271415   4.371   2.142   4.471 -0.2012  0.1133  0.3176
16667TIP3    H171416   4.404   2.231   4.461  3.1730 -1.1786 -1.4228
16667TIP3    H271417   4.418   2.106   4.546  0.9813 -1.1508 -0.9619
16668TIP3   OH271418   5.967   3.866  10.468 -0.3225  0.0597  0.4719
16668TIP3    H171419   5.903   3.937  10.469 -0.7305 -0.2942 -0.0207
16668TIP3    H271420   6.051   3.909  10.483 -0.4073  0.8007 -1.0091
16669TIP3   OH271421   5.455   2.389   0.240 -0.0899  0.6005 -0.1098
16669TIP3    H171422   5.475   2.421   0.152 -0.8672  1.3586 -0.0215
16669TIP3    H271423   5.541   2.380   0.283  0.3284 -0.2259 -1.0874
16670TIP3   OH271424   5.074   4.996  13.231  0.3414  0.2873 -0.0375
16670TIP3    H171425   5.017   4.926  13.200  0.2056 -0.2821  1.4140
16670TIP3    H271426   5.033   5.026  13.312  1.7975  0.2338  0.7522
16671TIP3   OH271427   2.424   4.361  11.717 -0.3437  0.1783  0.1898
16671TIP3    H171428   2.481   4.353  11.794 -1.0558  0.1713  0.7302
16671TIP3    H271429   2.475   4.411  11.654  1.1087 -1.6288 -0.1784
16672TIP3   OH271430   3.711   4.909   1.289  0.0926 -0.1478 -0.1357
16672TIP3    H171431   3.710   4.862   1.372 -1.0170 -0.3536 -0.2438
16672TIP3    H271432   3.793   4.958   1.290 -0.6182  1.1328  1.7992
16673TIP3   OH271433   2.394   1.467  14.244 -1.0027  0.6006 -0.4392
16673TIP3    H171434   2.367   1.417  14.320 -0.6832 -0.1454 -0.8065
16673TIP3    H271435   2.345   1.549  14.251 -0.2878  0.9352  1.0535
16674TIP3   OH271436   1.087   4.366  16.318  0.4547  0.2122  0.1923
16674TIP3    H171437   0.993   4.379  16.331  0.3147 -0.1109 -0.4467
16674TIP3    H271438   1.103   4.403  16.231  0.4658 -1.8733 -0.7338
16675TIP3   OH271439   3.975   2.137   5.120  0.7609 -0.2242  0.1367
16675TIP3    H171440   3.964   2.197   5.046  0.1539 -0.9562 -0.3813
16675TIP3    H271441   4.059   2.163   5.159  1.5063 -0.3421 -1.2995
16676TIP3   OH271442   3.621   2.629  11.212  0.0143 -0.1183  0.0335
16676TIP3    H171443   3.656   2.580  11.286 -0.3397 -0.6364 -0.1387
16676TIP3    H271444   3.548   2.680  11.249  0.7401  0.7464  0.3340
16677TIP3   OH271445   3.607   6.055  14.382 -0.1409 -0.5115 -0.0440
16677TIP3    H171446   3.665   6.115  14.429  0.7311 -0.8370 -0.6841
16677TIP3    H271447   3.651   6.039  14.299 -0.9824 -1.0473 -0.3978
16678TIP3   OH271448   0.643   5.646  15.381  0.0348  0.0274  0.2746
16678TIP3    H171449   0.696   5.725  15.370 -0.6501  0.5923  0.9194
16678TIP3    H271450   0.593   5.639  15.300 -0.4350  0.6807  0.4945
16679TIP3   OH271451   1.590   0.708   2.782  0.3794 -0.4473 -0.1415
16679TIP3    H171452   1.594   0.794   2.826 -0.0415 -0.8557  0.7138
16679TIP3    H271453   1.524   0.719   2.714 -0.1934 -0.2984  0.4326
16680TIP3   OH271454   4.522   4.093   2.503  0.7126 -0.3916 -0.6114
16680TIP3    H171455   4.437   4.102   2.459  0.9321  0.8366 -0.8238
16680TIP3    H271456   4.563   4.017   2.461 -1.1430 -2.4277  1.0105
16681TIP3   OH271457   3.958   0.353  12.629 -0.5647 -0.3942 -0.0116
16681TIP3    H171458   4.006   0.274  12.604 -0.2894  0.3769 -2.0766
16681TIP3    H271459   3.877   0.320  12.667  0.5315 -1.6875  1.3837
16682TIP3   OH271460   1.850   1.249  12.247 -0.3483 -0.5884 -0.8169
16682TIP3    H171461   1.819   1.279  12.162 -1.2936 -3.1847 -1.4991
16682TIP3    H271462   1.889   1.326  12.288 -0.3229  0.8519 -3.3784
16683TIP3   OH271463   6.004   2.607   5.943  0.7291 -0.4164  0.5387
16683TIP3    H171464   5.912   2.595   5.918  0.4981  0.6242  0.8516
16683TIP3    H271465   6.003   2.607   6.039  0.7569  1.6097  0.5676
16684TIP3   OH271466   0.693   1.626  12.304  0.2448 -0.4502 -0.1307
16684TIP3    H171467   0.722   1.569  12.376  0.6776  0.4725  0.4497
16684TIP3    H271468   0.727   1.584  12.225  2.5318  0.1441  0.4482
16685TIP3   OH271469   5.293   0.876   4.015  0.8582  0.2366 -0.1390
16685TIP3    H171470   5.385   0.900   4.020  1.3746 -1.6711  0.3233
16685TIP3    H271471   5.270   0.849   4.104 -0.0393  0.3243 -0.3345
16686TIP3   OH271472   1.688   1.418  14.109  0.0900  0.3559 -0.4255
16686TIP3    H171473   1.735   1.419  14.026  0.3849 -1.3949 -0.3134
16686TIP3    H271474   1.611   1.364  14.093 -0.8327  1.5241 -0.0470
16687TIP3   OH271475   1.181   5.225  11.066 -0.7533  0.2215 -0.0692
16687TIP3    H171476   1.174   5.239  10.971 -0.1785  0.3210 -0.1026
16687TIP3    H271477   1.244   5.291  11.095 -2.0522  1.2000  0.6246
16688TIP3   OH271478   5.693   0.760   3.641 -0.1950  0.6063 -0.6293
16688TIP3    H171479   5.606   0.768   3.680 -1.4382 -0.2059 -3.0288
16688TIP3    H271480   5.730   0.848   3.646 -1.1302  0.9559  0.4728
16689TIP3   OH271481   1.710   3.476  17.038  0.2671  0.1271  0.3399
16689TIP3    H171482   1.786   3.418  17.031  0.3945  0.3084  0.2059
16689TIP3    H271483   1.719   3.516  17.125  0.4564  0.3269  0.2307
16690TIP3   OH271484   5.051   1.604  14.292 -0.0867  0.0110  0.6663
16690TIP3    H171485   4.981   1.550  14.256 -0.8358  1.6621 -0.4533
16690TIP3    H271486   5.130   1.573  14.247 -0.4457 -0.3624  0.2828
16691TIP3   OH271487   5.721   4.172   5.991 -0.4573 -0.9325  0.6551
16691TIP3    H171488   5.806   4.193   5.953  0.4771 -2.1346  1.9415
16691TIP3    H271489   5.690   4.096   5.942 -1.1870 -0.0353 -0.3186
16692TIP3   OH271490   1.099   1.235   5.499 -0.3669  1.0413 -0.0330
16692TIP3    H171491   1.172   1.238   5.437  0.4208 -3.7581  0.3137
16692TIP3    H271492   1.141   1.236   5.585 -0.6213 -1.1343  0.1760
16693TIP3   OH271493   3.315   5.276   6.486  0.0350  0.0445  0.3467
16693TIP3    H171494   3.296   5.206   6.549  0.1347  1.1434  1.6334
16693TIP3    H271495   3.311   5.357   6.537 -0.0144  0.9964 -1.0929
16694TIP3   OH271496   3.947   1.126  13.820 -0.2244 -0.1232 -0.2277
16694TIP3    H171497   3.992   1.045  13.844  0.3545  0.5808  1.1257
16694TIP3    H271498   3.968   1.138  13.727 -0.1993 -1.4414 -0.4029
16695TIP3   OH271499   0.956   3.297  16.497 -0.5977 -0.2819  0.5524
16695TIP3    H171500   0.897   3.312  16.424  0.0160  0.6155  0.2271
16695TIP3    H271501   0.927   3.358  16.565 -0.6749 -0.5558  0.7667
16696TIP3   OH271502   1.535   5.387  11.514  0.2883 -0.0242 -0.1814
16696TIP3    H171503   1.618   5.430  11.495 -0.2427  1.3836  0.5919
16696TIP3    H271504   1.554   5.293  11.504  2.6592  0.0535  2.4810
16697TIP3   OH271505   0.718   0.058  12.452 -0.4917 -0.7560  0.4467
16697TIP3    H171506   0.797   0.005  12.453 -1.1895 -1.8338  2.0258
16697TIP3    H271507   0.651   0.002  12.414 -1.2496 -1.0922  2.1790
16698TIP3   OH271508   1.613   0.627  11.862  0.1919 -0.2542 -0.6049
16698TIP3    H171509   1.577   0.549  11.905 -1.7025  0.4727 -0.7795
16698TIP3    H271510   1.663   0.672  11.930 -3.4480  1.3523  1.3084
16699TIP3   OH271511   1.165   0.334   5.202  0.1283  0.2713  0.1190
16699TIP3    H171512   1.173   0.380   5.285 -0.3930 -0.0285  0.3368
16699TIP3    H271513   1.084   0.284   5.209  0.1460  0.1398 -0.5187
16700TIP3   OH271514   0.870   6.575   6.141 -1.1328 -0.0431 -0.4256
16700TIP3    H171515   0.896   6.543   6.228  0.0586  1.2230 -0.2795
16700TIP3    H271516   0.953   6.586   6.095 -1.7164 -0.0425 -1.5030
16701TIP3   OH271517   1.669   4.917   3.735  0.7275  0.2884  0.1385
16701TIP3    H171518   1.729   4.872   3.676 -1.9630 -3.3227 -0.1963
16701TIP3    H271519   1.636   4.848   3.793 -1.0795  2.5785  2.0450
16702TIP3   OH271520   5.723   6.326   4.527  0.2399 -0.3899 -0.3726
16702TIP3    H171521   5.735   6.257   4.462 -0.2515 -0.8168 -0.0143
16702TIP3    H271522   5.698   6.404   4.476  0.3861 -0.5801 -0.7362
16703TIP3   OH271523   2.733   2.114  11.750 -0.4529 -0.3090  0.2076
16703TIP3    H171524   2.695   2.028  11.766 -0.8841 -0.4449 -1.3508
16703TIP3    H271525   2.659   2.168  11.723  0.0734  0.0821 -0.4979
16704TIP3   OH271526   1.301   1.014  14.653  0.0976  1.1167 -0.3008
16704TIP3    H171527   1.396   1.017  14.644  0.3581  1.6148  2.0274
16704TIP3    H271528   1.278   0.922  14.636  0.7506  1.2707 -2.3550
16705TIP3   OH271529   1.642   5.683  16.173  0.0706  0.6450 -0.0991
16705TIP3    H171530   1.651   5.628  16.250 -0.5210  0.5013 -0.1265
16705TIP3    H271531   1.666   5.627  16.100  1.3235  0.9857  0.0322
16706TIP3   OH271532   2.006   4.550  13.945  0.3637  0.3748 -0.8148
16706TIP3    H171533   2.021   4.644  13.949  1.1399  0.2852 -1.4163
16706TIP3    H271534   1.968   4.528  14.030 -0.5406  1.3480 -0.9492
16707TIP3   OH271535   3.182   2.597   5.124  0.2280  0.6688 -0.7183
16707TIP3    H171536   3.248   2.528   5.118  0.9068  1.3271 -1.0333
16707TIP3    H271537   3.172   2.628   5.034 -1.5882 -0.3759 -0.9420
16708TIP3   OH271538   2.299   5.070   4.866 -0.6556 -0.3032 -0.2657
16708TIP3    H171539   2.391   5.070   4.839 -0.0716 -3.2824  1.3032
16708TIP3    H271540   2.301   5.093   4.959 -1.3788 -1.1518 -0.0246
16709TIP3   OH271541   1.249   6.042  16.718 -0.1408 -0.8051 -0.1863
16709TIP3    H171542   1.261   6.007  16.806 -1.8046 -1.2776 -0.1223
16709TIP3    H271543   1.155   6.052  16.708  0.0423 -0.2710 -1.7387
16710TIP3   OH271544   3.573   1.230  13.988 -0.8772  0.7504  0.4905
16710TIP3    H171545   3.538   1.288  13.920 -0.6331  0.8512  0.4493
16710TIP3    H271546   3.528   1.147  13.975 -0.1771  0.4974 -0.3637
16711TIP3   OH271547   1.431   6.169   2.417  0.4269  0.0285  0.2052
16711TIP3    H171548   1.475   6.170   2.502  1.1937 -1.8761 -0.1007
16711TIP3    H271549   1.348   6.124   2.434  0.0736  0.6499  0.1469
16712TIP3   OH271550   6.226   6.258  13.891  0.3106  0.6526  0.5162
16712TIP3    H171551   6.277   6.291  13.816  1.1060  0.2620  0.8701
16712TIP3    H271552   6.292   6.232  13.955 -0.2214 -2.1163  0.0623
16713TIP3   OH271553   1.988   0.453   1.509 -0.7179  0.1237 -0.7738
16713TIP3    H171554   2.082   0.469   1.510 -0.9731  1.9582 -2.1256
16713TIP3    H271555   1.976   0.378   1.567  1.7040 -0.9691 -1.5656
16714TIP3   OH271556   6.371   3.872  15.363  0.4880  0.2136  0.2228
16714TIP3    H171557   6.448   3.899  15.314  0.6599 -0.2305  0.2422
16714TIP3    H271558   6.356   3.781  15.336 -0.3556  0.4736 -0.1983
16715TIP3   OH271559   3.550   0.715  17.089 -0.1486  0.3062 -0.0073
16715TIP3    H171560   3.615   0.646  17.077 -0.6016 -0.4730  1.7081
16715TIP3    H271561   3.520   0.705  17.179 -0.0305  2.9512  0.4061
16716TIP3   OH271562   4.541   0.885  10.876 -0.5158  0.9496  0.2536
16716TIP3    H171563   4.620   0.847  10.914 -1.3518  1.3529  2.5305
16716TIP3    H271564   4.574   0.953  10.817  0.8526  0.5639  0.5263
16717TIP3   OH271565   3.255   0.980   6.031 -0.0752 -0.4112  0.0910
16717TIP3    H171566   3.185   0.916   6.037  0.5038 -1.1282 -0.6251
16717TIP3    H271567   3.286   0.975   5.941  1.4134 -0.6955  0.5758
16718TIP3   OH271568   5.433   0.901   2.835 -0.3731 -0.1335 -0.1561
16718TIP3    H171569   5.457   0.933   2.922  2.1133 -0.9292 -0.4750
16718TIP3    H271570   5.499   0.938   2.776 -0.2471 -1.9134 -1.2357
16719TIP3   OH271571   6.327   6.618   4.102  0.0561 -0.0348 -0.3816
16719TIP3    H171572   6.379   6.603   4.181 -1.1177 -0.3958  0.3483
16719TIP3    H271573   6.353   6.705   4.072 -1.1120  1.1468  1.7410
16720TIP3   OH271574   0.388   3.931  12.643  0.0868  0.1736 -0.4596
16720TIP3    H171575   0.324   3.875  12.686  1.2216 -1.4706 -0.8366
16720TIP3    H271576   0.342   3.967  12.567 -0.8943  0.4117  0.2285
16721TIP3   OH271577   0.894   1.433   5.126 -0.0426 -0.6499 -0.1976
16721TIP3    H171578   0.818   1.377   5.110 -0.0136 -0.0163 -3.0636
16721TIP3    H271579   0.964   1.393   5.073  1.2378 -0.3637  1.2059
16722TIP3   OH271580   0.217   1.868   3.075 -0.1246 -0.0494 -0.3718
16722TIP3    H171581   0.146   1.932   3.072  0.4171  0.5903  0.2435
16722TIP3    H271582   0.210   1.820   2.992 -0.7481  0.5748 -0.6857
16723TIP3   OH271583   4.348   1.570  15.642 -0.1277 -0.4223 -0.5985
16723TIP3    H171584   4.290   1.617  15.702  1.7298  0.8168  0.3588
16723TIP3    H271585   4.314   1.590  15.555 -2.6920 -1.9823 -0.0616
16724TIP3   OH271586   6.662   4.173  15.992  0.6861  0.3678  0.4978
16724TIP3    H171587   6.585   4.117  15.998 -0.0186  1.3975  1.4863
16724TIP3    H271588   6.632   4.252  15.948  0.7481  1.3962  2.1799
16725TIP3   OH271589   1.388   5.261   2.549  0.4236  0.6604 -0.0390
16725TIP3    H171590   1.377   5.299   2.636  0.8597 -0.8092  0.6979
16725TIP3    H271591   1.300   5.233   2.523  0.4894 -0.1131  0.5365
16726TIP3   OH271592   3.708   5.271  15.381  0.8806  0.4415  0.6238
16726TIP3    H171593   3.657   5.287  15.301 -0.0738 -1.0931  0.8920
16726TIP3    H271594   3.727   5.359  15.415  1.6725  1.1510 -1.4810
16727TIP3   OH271595   2.472   5.643  15.410 -0.2304 -0.2033  0.2794
16727TIP3    H171596   2.386   5.671  15.378 -0.2424  0.8793  1.2041
16727TIP3    H271597   2.525   5.634  15.331 -0.6393  1.0811 -0.1616
16728TIP3   OH271598   4.184   4.913  10.764  0.2222 -0.0936  0.0798
16728TIP3    H171599   4.144   4.844  10.712 -0.3478  0.0665  0.3039
16728TIP3    H271600   4.275   4.884  10.775  1.2163  1.2665 -3.4456
16729TIP3   OH271601   1.721   5.454   5.907  0.1085 -0.4572 -0.3880
16729TIP3    H171602   1.790   5.392   5.928 -0.1691 -0.6360  0.0043
16729TIP3    H271603   1.749   5.536   5.947 -0.7064 -0.9413  1.2449
16730TIP3   OH271604   0.743   3.551   0.946 -0.5214 -0.3502 -0.6723
16730TIP3    H171605   0.798   3.544   0.867 -0.4905 -0.8282 -0.6077
16730TIP3    H271606   0.660   3.510   0.921 -0.8218  0.2890 -0.7395
16731TIP3   OH271607   5.189   1.361  12.439 -0.0580  0.0150  0.2616
16731TIP3    H171608   5.208   1.283  12.491 -0.7140 -0.9931 -0.9554
16731TIP3    H271609   5.266   1.417  12.451  0.0245 -0.4048  1.8777
16732TIP3   OH271610   4.656   0.319   2.452  0.8131 -0.6663 -0.0946
16732TIP3    H171611   4.611   0.404   2.450  1.1238 -0.2410  3.6458
16732TIP3    H271612   4.698   0.312   2.366 -1.0160  1.9148 -1.3411
16733TIP3   OH271613   0.417   6.474   1.072 -0.3984 -0.2338  0.0011
16733TIP3    H171614   0.412   6.514   0.986  3.0648 -2.0989 -1.2377
16733TIP3    H271615   0.446   6.544   1.130 -1.1503  0.6300 -0.6399
16734TIP3   OH271616   4.948   0.822  11.394 -1.2536 -0.1168  0.8648
16734TIP3    H171617   4.899   0.888  11.443 -0.4452  1.0893  0.1088
16734TIP3    H271618   5.015   0.872  11.347 -0.2941 -1.5391  0.6484
16735TIP3   OH271619   1.458   1.259  13.371 -0.6858  0.7479  0.4797
16735TIP3    H171620   1.422   1.341  13.337 -0.6426 -0.0216 -1.5534
16735TIP3    H271621   1.392   1.193  13.350 -0.2056  0.0728  1.0525
16736TIP3   OH271622   4.446   5.558   4.444  0.1316  0.1401 -0.0201
16736TIP3    H171623   4.507   5.592   4.378 -0.7756  0.1075 -0.9140
16736TIP3    H271624   4.362   5.556   4.398 -0.1419 -1.8370  0.4884
16737TIP3   OH271625   1.465   5.761   1.274 -0.3389 -0.2589  0.2705
16737TIP3    H171626   1.553   5.724   1.285 -1.1425 -1.9955  1.2507
16737TIP3    H271627   1.414   5.691   1.233 -1.1251  0.9834 -0.9765
16738TIP3   OH271628   0.910   1.330   2.607  0.0300 -0.0957  0.1582
16738TIP3    H171629   0.833   1.300   2.558 -1.2801  1.3968  1.2254
16738TIP3    H271630   0.878   1.402   2.660  1.4981 -1.2698  2.8185
16739TIP3   OH271631   2.415   6.713   4.957 -0.2317 -0.7761  0.1463
16739TIP3    H171632   2.383   6.655   5.026 -2.6114  0.7762  0.4894
16739TIP3    H271633   2.339   6.727   4.901  0.2521  1.9006  0.0422
16740TIP3   OH271634   1.995   1.768  15.143 -0.1601 -0.1755 -0.0217
16740TIP3    H171635   2.086   1.753  15.120 -0.1993  0.1777 -0.4406
16740TIP3    H271636   1.985   1.731  15.230  0.8009  1.2306  0.7323
16741TIP3   OH271637   6.722   6.092   4.747  0.2634  0.1525 -0.3746
16741TIP3    H171638   6.631   6.109   4.771  0.7048  0.6151  1.0483
16741TIP3    H271639   6.755   6.035   4.816  0.9192 -0.4467 -1.1617
16742TIP3   OH271640   3.756   0.708  15.744  0.5622  0.3622  0.6500
16742TIP3    H171641   3.690   0.761  15.698 -0.5850 -0.5974  1.1152
16742TIP3    H271642   3.840   0.739  15.710 -0.1649  0.9446 -0.7109
16743TIP3   OH271643   0.667   4.143  12.392 -0.1004  0.3675 -0.2178
16743TIP3    H171644   0.604   4.207  12.358  0.6174  1.1578 -0.1096
16743TIP3    H271645   0.664   4.071  12.329 -1.9427 -0.1545  0.3945
16744TIP3   OH271646   2.897   4.693  13.397  0.3270  0.2017 -0.0296
16744TIP3    H171647   2.949   4.683  13.477 -0.5413 -0.6483  0.4356
16744TIP3    H271648   2.963   4.697  13.327  1.0296 -0.9855  0.5368
16745TIP3   OH271649   0.915   4.484   6.576 -0.2515  0.1393 -0.5431
16745TIP3    H171650   0.949   4.407   6.530 -2.4470 -0.6090 -1.0081
16745TIP3    H271651   0.849   4.450   6.636  0.2127  1.4715  0.8135
16746TIP3   OH271652   3.253   3.214  14.546 -0.0213 -0.4179  0.0284
16746TIP3    H171653   3.321   3.280  14.535  0.5592 -0.9320  0.4944
16746TIP3    H271654   3.175   3.253  14.506  1.1950 -0.9312 -3.1229
16747TIP3   OH271655   0.580   6.020   2.631 -0.4146  0.3448  0.2978
16747TIP3    H171656   0.659   6.004   2.682  1.4350  2.3020 -1.7417
16747TIP3    H271657   0.538   6.095   2.673 -0.2410  0.3989  0.3738
16748TIP3   OH271658   4.828   0.993  16.544  0.5031 -0.0019  0.1166
16748TIP3    H171659   4.809   0.969  16.635  0.3896 -2.1572 -0.4072
16748TIP3    H271660   4.923   0.989  16.537  0.5444  0.6542  0.2482
16749TIP3   OH271661   6.150   2.222  15.407 -0.4531 -0.0910 -0.4571
16749TIP3    H171662   6.213   2.169  15.358  1.3667 -0.9529  2.5742
16749TIP3    H271663   6.168   2.203  15.499 -1.7891  3.4608  0.7382
16750TIP3   OH271664   5.376   1.807  15.460 -0.2692  0.6224  0.3682
16750TIP3    H171665   5.318   1.824  15.534 -0.0655  0.6248  0.5258
16750TIP3    H271666   5.359   1.880  15.400 -3.1439 -1.2006 -1.2977
16751TIP3   OH271667   2.243   3.927   4.210  0.1697 -0.2790  0.0716
16751TIP3    H171668   2.218   3.835   4.207  0.1552 -0.2903  0.4556
16751TIP3    H271669   2.170   3.973   4.169 -0.6688 -0.2831  1.4841
16752TIP3   OH271670   6.075   2.817   2.279  0.0021 -0.7205  0.0721
16752TIP3    H171671   6.162   2.840   2.312  0.0349 -0.8338  0.0631
16752TIP3    H271672   6.018   2.887   2.311 -0.0899 -1.1804  0.9461
16753TIP3   OH271673   3.391   2.409  12.249  0.2373 -0.5882  0.3498
16753TIP3    H171674   3.440   2.438  12.172  0.4941  0.0902  0.7527
16753TIP3    H271675   3.397   2.483  12.310 -0.0092 -1.0913  0.9994
16754TIP3   OH271676   2.442   3.291  11.305 -0.2327  0.4496 -0.1080
16754TIP3    H171677   2.462   3.292  11.212  1.1920 -0.0089  0.1675
16754TIP3    H271678   2.415   3.381  11.324 -0.8702  0.4647 -1.0099
16755TIP3   OH271679   2.972   0.774   3.520 -0.1123  0.1823 -0.4166
16755TIP3    H171680   2.990   0.866   3.540 -3.3019  0.8322 -0.0873
16755TIP3    H271681   3.037   0.725   3.571  0.0281  2.2031  1.4582
16756TIP3   OH271682   3.143   1.061  14.073 -0.4844 -0.5983 -0.0926
16756TIP3    H171683   3.175   1.078  14.162 -0.6816  0.5966 -0.2470
16756TIP3    H271684   3.197   1.116  14.017 -2.3193  0.9573 -0.4265
16757TIP3   OH271685   3.329   0.314  16.440 -0.1384  0.5882  0.4221
16757TIP3    H171686   3.299   0.403  16.455 -1.7623 -0.1263  1.7424
16757TIP3    H271687   3.262   0.275  16.384 -2.0366 -1.0862  3.5581
16758TIP3   OH271688   1.649   2.251  16.713 -0.3353 -0.0619  0.1327
16758TIP3    H171689   1.721   2.227  16.771 -0.1120 -1.3307 -0.6366
16758TIP3    H271690   1.580   2.187  16.732 -0.4412 -0.1904 -0.6278
16759TIP3   OH271691   5.922   1.844  15.731  0.1621  0.2171  0.0325
16759TIP3    H171692   5.888   1.916  15.785  0.3775  0.2781  0.0878
16759TIP3    H271693   5.859   1.774  15.743 -0.7072  0.7995 -0.9739
16760TIP3   OH271694   3.504   4.946   4.216  0.0247 -0.5024  0.1368
16760TIP3    H171695   3.477   5.037   4.229 -2.9569 -1.2005 -0.2719
16760TIP3    H271696   3.488   4.904   4.300  2.0818 -0.5511  0.5393
16761TIP3   OH271697   2.678   0.531  12.582 -0.5909 -0.1692 -0.6090
16761TIP3    H171698   2.763   0.500  12.612 -0.6019 -0.8593 -1.2561
16761TIP3    H271699   2.679   0.516  12.487 -1.7627 -1.0518 -0.5130
16762TIP3   OH271700   1.681   6.329  16.550 -0.0186  0.1483  0.2326
16762TIP3    H171701   1.748   6.268  16.582  0.4507  0.9231  0.7698
16762TIP3    H271702   1.646   6.370  16.629  0.5678  1.4884 -0.1667
16763TIP3   OH271703   4.864   3.471  14.932  0.0362 -0.0350 -0.5272
16763TIP3    H171704   4.926   3.462  15.005 -0.2946  1.5120 -0.0257
16763TIP3    H271705   4.916   3.506  14.860 -0.0763  0.4505 -0.3723
16764TIP3   OH271706   4.656   4.919  13.287  0.0878 -0.3187 -0.1410
16764TIP3    H171707   4.719   4.890  13.221  0.6944  1.4486 -0.4013
16764TIP3    H271708   4.637   5.010  13.264 -2.3515 -0.6948  0.1298
16765TIP3   OH271709   5.614   0.491  11.999  0.0404 -0.6526 -0.0967
16765TIP3    H171710   5.649   0.487  11.909 -1.2768  2.5796 -0.9144
16765TIP3    H271711   5.524   0.460  11.991 -0.6432  1.2310 -0.3639
16766TIP3   OH271712   5.136   4.403  12.773 -0.5872  0.8198 -0.5988
16766TIP3    H171713   5.195   4.451  12.831 -2.6872  0.7309  1.7944
16766TIP3    H271714   5.190   4.380  12.697  1.9545  2.1428  0.6821
16767TIP3   OH271715   1.815   3.537   0.009  0.6544  0.0546  0.2031
16767TIP3    H171716   1.903   3.544   0.045  0.4172 -0.5170  0.9257
16767TIP3    H271717   1.765   3.491   0.077 -0.0909 -0.0188 -0.3811
16768TIP3   OH271718   4.398   3.462  11.313  0.4207 -0.6550  0.5984
16768TIP3    H171719   4.420   3.466  11.406 -0.1337  1.3860  0.6872
16768TIP3    H271720   4.475   3.498  11.269 -0.0830  0.2416  0.4293
16769TIP3   OH271721   4.347   0.994   4.178  0.9293  0.2908  0.3129
16769TIP3    H171722   4.276   1.027   4.124 -0.2684 -2.0565  0.3392
16769TIP3    H271723   4.411   0.960   4.116 -0.1048 -1.7155  0.2551
16770TIP3   OH271724   5.498   4.982   4.524  0.7003  0.0128  0.4440
16770TIP3    H171725   5.445   5.050   4.483 -0.9890 -1.4837  0.0516
16770TIP3    H271726   5.512   4.917   4.456  2.0057 -0.2242  0.9092
16771TIP3   OH271727   6.687   3.718  14.741  0.0500  0.1275 -0.2624
16771TIP3    H171728   6.750   3.707  14.670 -1.0960 -0.2452 -1.2752
16771TIP3    H271729   6.623   3.648  14.726 -0.2752  0.1228  1.0862
16772TIP3   OH271730   0.729   2.547  15.888 -0.2736 -0.1376 -0.3764
16772TIP3    H171731   0.665   2.618  15.885  1.6117  1.6186 -0.4676
16772TIP3    H271732   0.771   2.555  15.973  0.1709 -0.9876 -0.4993
16773TIP3   OH271733   0.916   1.612   4.864  0.3555 -0.0736  0.1942
16773TIP3    H171734   0.978   1.678   4.834  0.8253  0.3173  1.9005
16773TIP3    H271735   0.953   1.579   4.946 -1.2022 -0.5214  0.7688
16774TIP3   OH271736   2.168   3.598  12.919 -0.0274  0.0758 -0.8785
16774TIP3    H171737   2.120   3.523  12.954  1.1340  0.2032  1.1280
16774TIP3    H271738   2.143   3.601  12.826 -1.0634 -2.0127 -0.7326
16775TIP3   OH271739   3.280   0.027   2.947 -0.5918 -0.6972 -0.3795
16775TIP3    H171740   3.205   0.039   3.005 -3.1426  1.3823 -3.7294
16775TIP3    H271741   3.305  -0.064   2.958 -1.6571 -0.7057  3.0017
16776TIP3   OH271742   3.823   3.968  11.731  0.3227 -0.5992 -0.7334
16776TIP3    H171743   3.771   3.897  11.692  0.7248 -0.5120 -1.4437
16776TIP3    H271744   3.891   3.986  11.666 -0.5149  1.3085 -1.1578
16777TIP3   OH271745   3.816   4.310  12.166 -0.3675  0.5113  0.1311
16777TIP3    H171746   3.739   4.307  12.110  0.0339 -0.7912 -0.3927
16777TIP3    H271747   3.871   4.237  12.136 -0.5258 -0.8288  2.8007
16778TIP3   OH271748   0.318   3.609   4.214  0.1321  0.6353 -0.1429
16778TIP3    H171749   0.289   3.541   4.276 -0.0231  0.7081 -0.1358
16778TIP3    H271750   0.318   3.565   4.129 -0.0920  0.6611 -0.1576
16779TIP3   OH271751   0.110   4.987  13.335  0.8435  0.0167  0.6960
16779TIP3    H171752   0.103   5.080  13.356  0.1305  0.3689 -0.9348
16779TIP3    H271753   0.100   4.984  13.240  0.5908 -1.7626  0.7553
16780TIP3   OH271754   1.777   3.457   5.492  0.2732 -0.1592 -0.3674
16780TIP3    H171755   1.749   3.397   5.561  1.6168  0.5550  0.8576
16780TIP3    H271756   1.697   3.502   5.465 -0.7829 -2.5234 -1.4061
16781TIP3   OH271757   1.799   0.060  12.598 -0.0039  1.0102  0.0396
16781TIP3    H171758   1.859   0.057  12.673 -0.6390 -0.7657  0.5530
16781TIP3    H271759   1.834  -0.006  12.537 -1.0360  0.4338  0.0506
16782TIP3   OH271760   6.205   5.225  10.698 -0.0191 -0.4709 -0.3190
16782TIP3    H171761   6.280   5.211  10.640 -0.3712  1.2990 -1.2943
16782TIP3    H271762   6.237   5.289  10.762 -0.3399 -0.5909 -0.0372
16783TIP3   OH271763   3.957   0.261  13.049 -0.2644  0.2310 -0.3133
16783TIP3    H171764   3.883   0.271  12.989  0.4251 -0.1512 -1.2462
16783TIP3    H271765   3.942   0.176  13.091 -0.4999  0.2815 -0.2941
16784TIP3   OH271766   0.094   4.992   2.487  0.1164 -0.0912  0.4312
16784TIP3    H171767   0.180   5.009   2.525 -0.3795  0.3362  1.3742
16784TIP3    H271768   0.043   4.951   2.557  0.0161 -1.8314 -0.5807
16785TIP3   OH271769   0.516   2.679   2.382  0.0498 -0.2195  0.1442
16785TIP3    H171770   0.472   2.594   2.377 -0.8913  0.2288  0.4800
16785TIP3    H271771   0.481   2.719   2.462 -0.9366  1.2424 -0.9561
16786TIP3   OH271772   4.906   0.065  11.575 -0.4631  0.5680  0.3845
16786TIP3    H171773   4.838   0.089  11.638 -0.8376 -0.2164  0.2858
16786TIP3    H271774   4.968   0.012  11.626 -0.9531 -0.3760  0.0277
16787TIP3   OH271775   0.582   0.446   0.709 -0.5844  0.2250 -0.1904
16787TIP3    H171776   0.613   0.529   0.673 -0.4687  0.5750  0.6853
16787TIP3    H271777   0.605   0.381   0.643  0.9131  0.6408 -0.1165
16788TIP3   OH271778   2.793   1.726   5.265 -0.4050 -0.2457 -0.1727
16788TIP3    H171779   2.851   1.759   5.197 -1.1039 -0.2987 -0.8087
16788TIP3    H271780   2.800   1.631   5.260 -0.0214 -0.2413  0.2203
16789TIP3   OH271781   1.531   4.255   5.688 -0.4368  1.2273 -0.1012
16789TIP3    H171782   1.496   4.271   5.776 -1.5500  3.5362 -0.8713
16789TIP3    H271783   1.560   4.164   5.690 -1.8074  0.7468  2.1977
16790TIP3   OH271784   5.973   5.799   2.077  0.4051  0.3957  0.2316
16790TIP3    H171785   5.959   5.893   2.089 -1.0697  0.2638 -0.3759
16790TIP3    H271786   5.891   5.766   2.042  2.2495 -0.3569 -4.0049
16791TIP3   OH271787   1.817   3.365  16.477 -0.1961 -0.0181  0.0305
16791TIP3    H171788   1.757   3.340  16.406  0.7647  2.2260 -1.6997
16791TIP3    H271789   1.873   3.288  16.488 -0.4000 -0.4522 -1.6469
16792TIP3   OH271790   0.311   2.481   2.621 -0.5939 -0.3609 -0.3684
16792TIP3    H171791   0.222   2.473   2.656 -1.5955  2.2176 -2.0668
16792TIP3    H271792   0.316   2.570   2.587  2.6949 -0.4038 -0.3120
16793TIP3   OH271793   3.829   3.933   1.050 -0.4779 -0.2743 -0.1984
16793TIP3    H171794   3.766   3.955   1.118 -0.1812 -0.5472  0.1665
16793TIP3    H271795   3.828   4.009   0.991  1.5293  1.3681  1.7495
16794TIP3   OH271796   3.901   3.209  17.262  0.2886 -0.1336 -0.4032
16794TIP3    H171797   3.994   3.200  17.240  0.0478 -0.6765 -1.2735
16794TIP3    H271798   3.900   3.229  17.355  1.2971  0.3103 -0.4765
16795TIP3   OH271799   5.528   2.164  12.929 -0.4184  0.2139 -0.7876
16795TIP3    H171800   5.586   2.206  12.866  0.8543 -2.2190 -1.3491
16795TIP3    H271801   5.445   2.212  12.921  0.7894  2.2861 -1.6336
16796TIP3   OH271802   0.030   1.637   5.079  0.6080  0.0992  0.9424
16796TIP3    H171803   0.081   1.715   5.102  0.6967 -0.0210  1.1548
16796TIP3    H271804   0.096   1.576   5.045  0.6956 -0.2759  1.7632
16797TIP3   OH271805   4.809   2.171  13.873 -0.1179 -0.0597 -0.1363
16797TIP3    H171806   4.751   2.110  13.920  0.1150  0.5963  1.0564
16797TIP3    H271807   4.851   2.117  13.806 -0.0553 -1.1762  0.7702
16798TIP3   OH271808   2.689   6.354   3.974 -0.0800 -0.1513 -0.5891
16798TIP3    H171809   2.724   6.353   3.885 -0.8262 -0.7725 -0.8847
16798TIP3    H271810   2.643   6.271   3.982  0.8321 -0.5542  0.7327
16799TIP3   OH271811   2.811   5.264  13.626 -0.5046 -0.4527 -0.4754
16799TIP3    H171812   2.768   5.180  13.640 -0.3848 -0.4243  0.0859
16799TIP3    H271813   2.787   5.288  13.537 -1.1939 -0.7077 -0.3715
16800TIP3   OH271814   1.986   0.331   5.910 -0.1327  0.1810  0.1239
16800TIP3    H171815   1.994   0.319   6.005 -0.9580  0.8081  0.2830
16800TIP3    H271816   2.054   0.395   5.888 -0.5323  0.7348  0.4537
16801TIP3   OH271817   4.283   2.560   3.239  0.2856  0.1534 -0.0585
16801TIP3    H171818   4.208   2.578   3.297  0.0116 -0.1026 -0.3328
16801TIP3    H271819   4.248   2.501   3.173 -0.2037  2.6916 -2.2479
16802TIP3   OH271820   4.724   1.744   1.885  0.0071 -0.1150 -0.4822
16802TIP3    H171821   4.801   1.785   1.846  0.2950 -1.2678 -1.1717
16802TIP3    H271822   4.701   1.801   1.958 -0.5829  2.1674 -2.3232
16803TIP3   OH271823   2.423   2.997  15.625  0.3820 -0.4375  0.0380
16803TIP3    H171824   2.377   2.913  15.634  0.2971 -0.6188 -1.6537
16803TIP3    H271825   2.438   3.005  15.531  0.7943  1.2422  0.2207
16804TIP3   OH271826   4.879   2.765  11.482 -0.0069  0.6536 -0.3162
16804TIP3    H171827   4.861   2.859  11.485 -0.3121  0.6381 -1.3179
16804TIP3    H271828   4.902   2.742  11.572 -0.6522  1.5381  0.0844
16805TIP3   OH271829   5.910   3.769   3.383  0.2536  0.4372  0.4883
16805TIP3    H171830   5.924   3.705   3.314 -0.9109  0.3863  0.2774
16805TIP3    H271831   5.841   3.732   3.437  0.3614  0.9997  1.0262
16806TIP3   OH271832   2.326   1.290  14.026  0.5741  0.1261 -0.1418
16806TIP3    H171833   2.328   1.373  14.074  0.6141  0.2528 -0.3623
16806TIP3    H271834   2.333   1.315  13.934  1.4864 -0.1678 -0.1657
16807TIP3   OH271835   3.944   4.329  16.742 -0.1074  0.0296  0.2341
16807TIP3    H171836   3.945   4.236  16.764 -1.6956 -0.4705 -1.5494
16807TIP3    H271837   3.893   4.370  16.812 -1.6634 -0.8863 -0.3089
16808TIP3   OH271838   5.544   1.114  15.660  0.3208  0.0522 -0.3747
16808TIP3    H171839   5.525   1.167  15.583  0.0412  1.1117  0.4093
16808TIP3    H271840   5.460   1.074  15.683  0.5608 -0.8626 -1.0481
16809TIP3   OH271841   1.796   3.910   2.474  0.0526 -0.2452  0.4198
16809TIP3    H171842   1.709   3.888   2.439 -0.7223  1.0409  1.4381
16809TIP3    H271843   1.808   3.849   2.547  0.5195 -1.1745 -0.4145
16810TIP3   OH271844   6.462   4.449   2.976  0.1698 -0.0301 -0.0135
16810TIP3    H171845   6.376   4.489   2.970  0.2464  0.0800 -0.4258
16810TIP3    H271846   6.475   4.433   3.070 -0.6889 -0.9139 -0.0276
16811TIP3   OH271847   0.511   0.438   6.028 -0.0612  0.2254 -0.0284
16811TIP3    H171848   0.417   0.453   6.036 -0.3657 -0.0082 -2.4066
16811TIP3    H271849   0.551   0.516   6.067 -1.2683  0.8010  0.1109
16812TIP3   OH271850   4.303   0.721   1.055 -0.2361 -0.2253 -0.1621
16812TIP3    H171851   4.329   0.630   1.068 -1.5438 -0.4868  0.7973
16812TIP3    H271852   4.305   0.733   0.960  0.2015 -1.1812 -0.2857
16813TIP3   OH271853   1.816   2.083   1.764 -0.4443  0.0976  0.5348
16813TIP3    H171854   1.865   2.054   1.688 -0.5480  0.2307  0.4159
16813TIP3    H271855   1.763   2.156   1.732 -1.1854 -0.4362  0.5078
16814TIP3   OH271856   3.533   5.321   5.186 -0.7867 -0.4448 -0.0659
16814TIP3    H171857   3.545   5.233   5.152  0.9742 -0.1338 -0.3660
16814TIP3    H271858   3.551   5.314   5.279  1.2669 -0.1086 -0.3965
16815TIP3   OH271859   0.100   1.639   1.786  0.2178 -0.3720  0.4565
16815TIP3    H171860   0.104   1.622   1.692  0.6613  2.3784 -0.0883
16815TIP3    H271861   0.166   1.580   1.824 -0.5958 -2.1912 -0.7723
16816TIP3   OH271862   5.280   4.309  11.538 -0.3342  0.2032 -0.2018
16816TIP3    H171863   5.268   4.221  11.503 -0.3783  0.9020 -2.0360
16816TIP3    H271864   5.360   4.341  11.496 -0.1695  0.9557  0.6466
16817TIP3   OH271865   3.274   2.205   5.830 -0.4591  0.1151  0.2336
16817TIP3    H171866   3.213   2.275   5.806 -0.1242 -0.3405 -2.1866
16817TIP3    H271867   3.358   2.249   5.842 -0.8170  0.4712  1.5339
16818TIP3   OH271868   1.499   4.603   3.411  0.0209 -0.0065  0.1230
16818TIP3    H171869   1.480   4.516   3.376 -1.4412  0.7183 -0.9910
16818TIP3    H271870   1.460   4.602   3.499  0.7690 -0.7323  0.4657
16819TIP3   OH271871   5.120   4.101  13.759 -0.2152 -0.1488 -0.2056
16819TIP3    H171872   5.039   4.121  13.805 -1.9569 -5.9035  0.0255
16819TIP3    H271873   5.183   4.078  13.827  0.3998  0.4692 -0.5374
16820TIP3   OH271874   3.903   0.493  15.448 -0.2102 -0.2676 -1.0530
16820TIP3    H171875   3.906   0.588  15.460  0.0975 -0.4332  0.2191
16820TIP3    H271876   3.809   0.472  15.451 -0.3521  0.0866 -2.2635
16821TIP3   OH271877   0.801   5.113   0.461  0.1715 -0.1518 -0.1005
16821TIP3    H171878   0.721   5.104   0.409 -1.4580 -1.8456  2.4869
16821TIP3    H271879   0.783   5.187   0.519  1.2571  0.6141 -0.7115
16822TIP3   OH271880   2.881   3.061   5.692 -0.1349 -0.0403  0.2045
16822TIP3    H171881   2.965   3.016   5.699  0.5132  1.0983  0.0732
16822TIP3    H271882   2.817   2.991   5.679  0.9614 -0.8472 -1.0946
16823TIP3   OH271883   0.238   0.006  13.043  0.1779 -0.1519 -0.1631
16823TIP3    H171884   0.288   0.028  12.964 -1.2507 -1.6561 -1.5431
16823TIP3    H271885   0.147   0.025  13.020 -0.0325  2.5886  2.3240
16824TIP3   OH271886   4.768   6.256  13.892 -0.4940  0.8384 -0.3841
16824TIP3    H171887   4.847   6.239  13.944 -1.2428  2.9238  1.6541
16824TIP3    H271888   4.705   6.190  13.922 -0.5028  1.2050  0.4478
16825TIP3   OH271889   5.920   0.582  16.427 -0.2204  0.4067 -0.3721
16825TIP3    H171890   5.850   0.605  16.489 -0.7741  0.5498 -1.0385
16825TIP3    H271891   5.999   0.575  16.481 -1.2863 -3.2477  1.0277
16826TIP3   OH271892   6.534   6.317   2.849 -0.8393  0.3551  0.1143
16826TIP3    H171893   6.531   6.281   2.760  0.9932  0.2340  0.0683
16826TIP3    H271894   6.480   6.257   2.900  1.1127 -1.8580 -0.2055
16827TIP3   OH271895   0.009   4.560   2.469 -0.4173 -0.2067 -0.6910
16827TIP3    H171896  -0.025   4.474   2.491 -0.3930 -0.0080  0.1572
16827TIP3    H271897  -0.064   4.604   2.424 -1.5052  0.3798  1.5127
16828TIP3   OH271898   5.995   1.004  16.833  0.7568  0.0265 -0.2396
16828TIP3    H171899   6.078   1.031  16.874  0.5552 -1.0438  0.9599
16828TIP3    H271900   5.928   1.041  16.890  0.3985  0.9590 -1.2588
16829TIP3   OH271901   1.845   3.488  12.707  0.0295  0.4286 -0.6484
16829TIP3    H171902   1.757   3.511  12.734 -0.2547 -0.7333 -0.5201
16829TIP3    H271903   1.849   3.393  12.718  1.5543  0.5575  0.0977
16830TIP3   OH271904   2.154   5.824   2.688  0.1123 -0.2993 -0.0507
16830TIP3    H171905   2.128   5.907   2.729  0.2741 -0.3707  0.1977
16830TIP3    H271906   2.076   5.769   2.697 -0.0807 -0.1010 -0.4311
16831TIP3   OH271907   6.592   0.512  15.452  0.0921 -0.7557 -0.2852
16831TIP3    H171908   6.499   0.511  15.427 -0.8242  1.4047  2.5372
16831TIP3    H271909   6.598   0.452  15.526  0.8799 -0.6428 -0.2475
16832TIP3   OH271910   5.659   0.032  13.800  0.5008 -0.1713  0.5292
16832TIP3    H171911   5.672  -0.063  13.795  1.0297 -0.0487 -2.7453
16832TIP3    H271912   5.745   0.066  13.825  0.4895 -0.5096  1.0504
16833TIP3   OH271913   5.667   1.400  16.697 -0.3165  0.0834 -0.6013
16833TIP3    H171914   5.659   1.412  16.791  0.8341  1.2026 -0.6134
16833TIP3    H271915   5.760   1.417  16.679 -0.6623  0.6118 -2.0235
16834TIP3   OH271916   2.699   1.452   1.367 -0.2665  0.1182 -0.0704
16834TIP3    H171917   2.686   1.469   1.461 -1.1990 -1.8570  0.2230
16834TIP3    H271918   2.793   1.432   1.360 -0.5694 -1.9905  0.9313
16835TIP3   OH271919   1.695   4.486   5.292 -0.6352 -0.3177  0.5090
16835TIP3    H171920   1.696   4.580   5.305 -2.1710 -0.0704 -0.7571
16835TIP3    H271921   1.702   4.449   5.380  1.9622  0.8907  0.8909
16836TIP3   OH271922   5.548   6.657  14.120  0.6553  0.1221 -0.2018
16836TIP3    H171923   5.521   6.612  14.040 -0.2842  1.0771 -0.4444
16836TIP3    H271924   5.482   6.725  14.133  1.5213  0.8305  0.6646
16837TIP3   OH271925   5.506   0.191   1.863  0.0038 -0.3915  0.3715
16837TIP3    H171926   5.428   0.214   1.814 -0.9406 -1.0042  1.5204
16837TIP3    H271927   5.473   0.144   1.940  1.5511 -1.5341  0.3998
16838TIP3   OH271928   6.337   2.632   3.604  0.0332 -0.0960 -0.6703
16838TIP3    H171929   6.418   2.592   3.574  0.4395  0.2075  0.0048
16838TIP3    H271930   6.272   2.561   3.599  0.7794 -0.9165  0.6696
16839TIP3   OH271931   3.552   0.499   1.582 -0.1024  0.5728 -0.1457
16839TIP3    H171932   3.541   0.452   1.500 -0.6920  1.8037 -0.7977
16839TIP3    H271933   3.638   0.473   1.614 -0.8188 -1.7186  0.0471
16840TIP3   OH271934   1.130   6.031   0.349  0.0863  0.6671 -0.3189
16840TIP3    H171935   1.058   5.974   0.376  2.4804 -0.8932  3.4398
16840TIP3    H271936   1.190   5.974   0.301 -0.1550  1.4947 -1.6694
16841TIP3   OH271937   0.031   1.276   3.531  0.6972  0.1157 -0.2146
16841TIP3    H171938   0.038   1.348   3.469 -1.1819  0.0859 -0.5209
16841TIP3    H271939  -0.043   1.224   3.500 -0.4615  0.2127  2.1266
16842TIP3   OH271940   5.532   6.760  15.858 -0.0198  0.6300  0.0047
16842TIP3    H171941   5.571   6.683  15.899  1.6132  1.7630  0.7074
16842TIP3    H271942   5.525   6.738  15.765  0.3716 -0.3634  0.2018
16843TIP3   OH271943   3.227   5.181   0.472  0.3931 -0.1905  0.3582
16843TIP3    H171944   3.229   5.098   0.520  1.4495 -0.1083  0.4691
16843TIP3    H271945   3.282   5.240   0.524 -1.0373  0.8612  0.7621
16844TIP3   OH271946   2.437   3.361   4.332  0.5729 -0.1312  0.2294
16844TIP3    H171947   2.431   3.436   4.391  1.1101  0.4483 -0.4347
16844TIP3    H271948   2.476   3.396   4.252  1.7084 -1.2957  0.2336
16845TIP3   OH271949   3.798   4.604  14.778  0.4259 -0.0722  0.0360
16845TIP3    H171950   3.798   4.607  14.683  0.8155 -0.8579  0.0065
16845TIP3    H271951   3.876   4.652  14.804  0.2045  0.3298 -0.0243
16846TIP3   OH271952   4.655   6.302  15.229 -0.1678 -0.1529 -0.3700
16846TIP3    H171953   4.658   6.326  15.136  1.8604  0.1983 -0.2587
16846TIP3    H271954   4.638   6.384  15.275  2.3592  0.3961 -0.2665
16847TIP3   OH271955   4.337   5.084  10.603 -0.2790 -0.1973 -0.5126
16847TIP3    H171956   4.288   5.033  10.667  0.3808  0.3645  0.4584
16847TIP3    H271957   4.401   5.134  10.655  1.0229 -0.5700 -1.6949
16848TIP3   OH271958   3.373   2.950  14.989 -0.2336  0.3437 -0.7562
16848TIP3    H171959   3.350   2.949  14.896  0.1381 -0.1137 -0.8504
16848TIP3    H271960   3.312   3.012  15.029 -2.1675 -1.4247 -0.8399
16849TIP3   OH271961   6.604   4.054  15.280 -0.3421 -0.4399  0.2528
16849TIP3    H171962   6.632   4.127  15.225  2.8720 -0.6280  1.4055
16849TIP3    H271963   6.596   3.980  15.220 -1.1464  0.2714 -0.5500
16850TIP3   OH271964   5.076   1.634   0.458 -0.4196  0.1901 -0.5725
16850TIP3    H171965   4.981   1.627   0.449 -0.4555  1.2962 -1.3060
16850TIP3    H271966   5.102   1.555   0.505 -1.6067 -0.5334 -1.0829
16851TIP3   OH271967   4.477   5.914  13.234  0.0854  0.1645  0.2322
16851TIP3    H171968   4.419   5.984  13.265 -0.6379  0.1007 -0.9147
16851TIP3    H271969   4.423   5.835  13.238 -0.6874  0.4158 -2.8124
16852TIP3   OH271970   5.460   3.893   1.953  0.0495 -0.2604 -0.4667
16852TIP3    H171971   5.456   3.935   1.867  0.1224 -0.8500 -0.7674
16852TIP3    H271972   5.377   3.915   1.995  1.6598  3.8023  1.1520
16853TIP3   OH271973   6.012   4.320  16.931  0.2178  0.5409 -0.0060
16853TIP3    H171974   5.931   4.288  16.969  1.5332 -1.6771  1.1043
16853TIP3    H271975   6.014   4.413  16.953 -2.0281  0.6597 -0.1478
16854TIP3   OH271976   6.015   2.293   5.967  0.3745  1.0705  0.4146
16854TIP3    H171977   6.104   2.268   5.942  0.1131  2.0763 -1.6690
16854TIP3    H271978   5.984   2.221   6.021  1.6770 -0.3451 -0.6606
16855TIP3   OH271979   1.420   6.640   1.554  0.2974  0.2779 -0.5100
16855TIP3    H171980   1.348   6.603   1.605  1.0788  0.0614  0.4763
16855TIP3    H271981   1.492   6.577   1.566  0.4580  0.1547 -2.0064
16856TIP3   OH271982   2.089   2.690  11.610 -0.2527  0.0524 -0.2674
16856TIP3    H171983   2.085   2.714  11.517 -0.0317  0.0485 -0.2807
16856TIP3    H271984   2.183   2.690  11.630 -0.3347  0.7869  0.1542
16857TIP3   OH271985   0.280   4.789  14.075  0.0446  0.4534  0.3483
16857TIP3    H171986   0.202   4.748  14.111 -0.6306  0.4820 -1.0134
16857TIP3    H271987   0.332   4.716  14.041  0.3564  0.4826  0.7511
16858TIP3   OH271988   3.837   0.572  12.498 -0.5673 -0.8012  0.3914
16858TIP3    H171989   3.886   0.650  12.524 -2.3552  0.9725 -1.2924
16858TIP3    H271990   3.882   0.500  12.544 -1.1743  1.5260  5.2430
16859TIP3   OH271991   6.421   5.681   5.502  0.6125  0.2621  0.0097
16859TIP3    H171992   6.381   5.639   5.578 -3.4256  1.6132 -1.1015
16859TIP3    H271993   6.392   5.772   5.507  0.5392  0.4894 -2.9189
16860TIP3   OH271994   3.038   3.825  14.231  0.2267 -0.0379 -0.7328
16860TIP3    H171995   3.048   3.907  14.182 -0.3339  1.1617  1.0758
16860TIP3    H271996   2.959   3.838  14.284  2.3631 -0.0398  2.7467
16861TIP3   OH271997   4.577   0.845   2.019  0.2199 -0.3988  0.0205
16861TIP3    H171998   4.496   0.806   1.985 -0.3157  2.1796 -1.9807
16861TIP3    H271999   4.646   0.811   1.963  0.6024 -2.5134  1.6596
16862TIP3   OH272000   2.385   6.409  15.463 -0.2979 -0.6457  0.4996
16862TIP3    H172001   2.356   6.404  15.372 -1.6659 -0.0298  0.8854
16862TIP3    H272002   2.481   6.402  15.458 -0.3649 -0.7610 -0.9657
16863TIP3   OH272003   3.680   1.750   6.200 -0.2874  0.0577 -0.0020
16863TIP3    H172004   3.686   1.672   6.145 -0.1715  0.3098 -0.3599
16863TIP3    H272005   3.586   1.769   6.205 -0.2779  0.2638 -0.4613
16864TIP3   OH272006   5.183   2.222   0.077 -0.3857 -0.4849  0.2576
16864TIP3    H172007   5.253   2.268   0.124 -0.7541  1.1785 -0.7597
16864TIP3    H272008   5.116   2.205   0.144  0.5378 -1.2239  1.0302
16865TIP3   OH272009   1.134   4.037  16.560 -0.3489  0.3958 -0.2993
16865TIP3    H172010   1.084   4.109  16.599 -1.2901 -1.2320  1.6861
16865TIP3    H272011   1.224   4.071  16.555 -0.7190  1.6389  0.7598
16866TIP3   OH272012   2.122   0.020   4.918 -0.3908  0.3270  0.2144
16866TIP3    H172013   2.074  -0.059   4.941 -2.0587  1.6582  1.6218
16866TIP3    H272014   2.163   0.048   5.000 -0.1462  1.1266 -0.1693
16867TIP3   OH272015   2.453   4.894   3.225  0.1200  0.3080  0.6932
16867TIP3    H172016   2.411   4.967   3.181  0.6493  0.9713  1.2623
16867TIP3    H272017   2.417   4.816   3.183 -1.7705  0.8315  1.2356
16868TIP3   OH272018   4.453   5.130   2.660  0.3603  0.0220  0.3555
16868TIP3    H172019   4.511   5.132   2.736  1.2036 -1.8201 -0.1655
16868TIP3    H272020   4.445   5.221   2.632  0.1674  0.7086  2.5214
16869TIP3   OH272021   0.498   5.682  11.165 -0.3793  0.2540 -0.1800
16869TIP3    H172022   0.457   5.767  11.147 -1.0928  0.5029  2.2819
16869TIP3    H272023   0.576   5.703  11.216 -1.3047 -0.5689  1.6736
16870TIP3   OH272024   0.558   6.460   4.811  0.6500 -1.2423  0.4867
16870TIP3    H172025   0.554   6.378   4.763  0.0404 -0.8410 -0.1834
16870TIP3    H272026   0.613   6.517   4.757  1.6438 -1.4095  1.2883
16871TIP3   OH272027   4.337   0.677  11.459 -0.3139 -0.7839  0.8714
16871TIP3    H172028   4.242   0.683  11.446 -0.0379  0.3388 -1.2649
16871TIP3    H272029   4.357   0.584  11.450 -0.9400 -0.7483 -1.7095
16872TIP3   OH272030   4.051   1.449  11.831 -0.2809 -0.3759 -0.6535
16872TIP3    H172031   4.140   1.483  11.820 -0.2499  0.1242  0.9293
16872TIP3    H272032   4.062   1.363  11.870 -0.4811 -0.6003 -1.0818
16873TIP3   OH272033   6.759   3.435  16.440  0.1088 -0.0081  0.7055
16873TIP3    H172034   6.785   3.476  16.523  1.4536  0.1060  0.2545
16873TIP3    H272035   6.713   3.355  16.465  1.5318 -0.5870  1.5749
16874TIP3   OH272036   3.144   0.086  15.219  0.4489 -0.3541 -0.4061
16874TIP3    H172037   3.214   0.030  15.254 -0.3986 -0.5633  1.0193
16874TIP3    H272038   3.065   0.032  15.224 -0.2023  0.6103  0.0497
16875TIP3   OH272039   5.035   1.618  12.798  0.1288  0.0225 -0.3350
16875TIP3    H172040   5.003   1.542  12.847  0.7740 -1.1018 -1.6056
16875TIP3    H272041   5.049   1.586  12.709  0.7327  1.5533 -0.8296
16876TIP3   OH272042   0.966   6.680  14.843 -0.0163  0.0818 -0.7100
16876TIP3    H172043   0.970   6.608  14.906  0.3748 -0.5712 -1.4647
16876TIP3    H272044   1.056   6.711  14.837 -0.1569  0.5340 -0.5118
16877TIP3   OH272045   4.271   5.241   1.178 -0.3806  0.9325  0.1795
16877TIP3    H172046   4.237   5.314   1.127  1.4129  1.8935  0.2641
16877TIP3    H272047   4.268   5.271   1.269  0.9566  1.1918  0.1590
16878TIP3   OH272048   0.332   5.219   1.364 -0.3983  0.5000 -0.2766
16878TIP3    H172049   0.237   5.209   1.375 -0.2468  0.9405  2.0271
16878TIP3    H272050   0.369   5.138   1.400  0.1215  0.2457 -1.3455
16879TIP3   OH272051   4.920   5.804  15.140 -0.6326 -0.6701 -0.0339
16879TIP3    H172052   4.932   5.770  15.229 -1.1195 -0.6241  0.0511
16879TIP3    H272053   4.835   5.771  15.113 -0.5117 -0.6313 -0.4624
16880TIP3   OH272054   5.892   0.437  10.701 -0.2159  0.1007  0.0371
16880TIP3    H172055   5.874   0.528  10.674 -0.6616  0.0121  0.0342
16880TIP3    H272056   5.806   0.397  10.708  0.0195 -0.9689 -2.1840
16881TIP3   OH272057   6.397   2.626   3.302 -0.3880  0.4536  0.1556
16881TIP3    H172058   6.458   2.674   3.246  0.6960  1.1986  1.8856
16881TIP3    H272059   6.331   2.691   3.327 -0.7566  0.1760 -0.0860
16882TIP3   OH272060   1.896   4.149  12.412 -0.2428  0.3798  0.4534
16882TIP3    H172061   1.969   4.198  12.451  0.8957 -2.1754  1.7681
16882TIP3    H272062   1.912   4.154  12.318 -1.0334  3.6504  0.3431
16883TIP3   OH272063   2.976   0.444  17.304  0.5057  0.1201  0.2106
16883TIP3    H172064   2.964   0.414  17.394  1.5042 -1.4442 -0.1302
16883TIP3    H272065   2.920   0.522  17.297 -0.9354 -0.7078  1.6664
16884TIP3   OH272066   2.883   2.179   4.132  0.2604  0.3227 -0.4703
16884TIP3    H172067   2.958   2.234   4.109 -0.7481  1.3831 -1.4216
16884TIP3    H272068   2.837   2.229   4.199 -0.3222  0.3510 -0.8837
16885TIP3   OH272069   0.397   3.955  15.367  0.8104 -0.2912 -0.1191
16885TIP3    H172070   0.431   3.871  15.338 -0.0155 -0.9671  0.8043
16885TIP3    H272071   0.302   3.948  15.354  0.8062  0.8207 -0.8258
16886TIP3   OH272072   5.731   2.719   2.055  0.0806 -0.3545  0.3062
16886TIP3    H172073   5.799   2.728   2.123 -0.9431  0.2456  1.2810
16886TIP3    H272074   5.753   2.638   2.010  1.6258 -0.0104  0.3930
16887TIP3   OH272075   1.997   2.823  17.278 -0.6688  0.2343  0.8047
16887TIP3    H172076   1.947   2.884  17.225  1.4160  2.1921  0.9242
16887TIP3    H272077   2.052   2.776  17.215 -0.7973 -0.0656  0.9128
16888TIP3   OH272078   6.161   6.531  12.967 -0.4895  0.1708 -0.5017
16888TIP3    H172079   6.075   6.504  13.000 -0.8822  0.9923 -0.7988
16888TIP3    H272080   6.192   6.594  13.031  0.3059 -0.7817  0.0671
16889TIP3   OH272081   1.268   2.385   4.829  0.0144 -0.1091 -0.4347
16889TIP3    H172082   1.275   2.312   4.891 -1.6592 -0.0558 -0.1385
16889TIP3    H272083   1.237   2.345   4.748 -0.8515  0.2458 -0.2906
16890TIP3   OH272084   4.768   3.139   0.732 -0.0751  0.4537  0.6575
16890TIP3    H172085   4.808   3.052   0.739 -0.6649  0.1024 -0.2132
16890TIP3    H272086   4.724   3.152   0.816  0.9670  0.4039  1.2311
16891TIP3   OH272087   1.561   0.657  11.392  0.0476  0.5229 -0.1617
16891TIP3    H172088   1.525   0.570  11.409  0.7422 -0.2333 -2.2957
16891TIP3    H272089   1.519   0.686  11.311  1.9629  0.8740 -1.0984
16892TIP3   OH272090   1.922   6.184  16.459  0.3427 -0.2440  0.2038
16892TIP3    H172091   1.864   6.180  16.384 -0.0030  0.5016  0.4230
16892TIP3    H272092   1.932   6.093  16.487 -1.0011 -0.3520  0.3777
16893TIP3   OH272093   4.663   5.384   4.386  0.1490 -0.4972 -0.2698
16893TIP3    H172094   4.678   5.447   4.456  0.1345 -0.0743 -0.6432
16893TIP3    H272095   4.569   5.367   4.388  0.2019 -0.7576  0.0418
16894TIP3   OH272096   2.914   2.497   1.431  0.0134 -0.2208  0.0969
16894TIP3    H172097   2.841   2.461   1.381  0.3820 -0.1973 -0.4691
16894TIP3    H272098   2.992   2.464   1.386  0.3813  1.8476 -0.8606
16895TIP3   OH272099   6.715   3.710   4.741 -0.1261 -0.3384 -0.3520
16895TIP3    H172100   6.661   3.786   4.719 -0.1192 -0.3953 -0.5655
16895TIP3    H272101   6.657   3.635   4.728  0.8615 -0.6892 -3.6970
16896TIP3   OH272102   2.718   0.130   5.869 -0.7907  0.3831 -0.4229
16896TIP3    H172103   2.754   0.120   5.781 -0.8387 -1.7972 -0.2373
16896TIP3    H272104   2.624   0.141   5.856 -0.7590  0.3675 -0.6576
16897TIP3   OH272105   4.430   1.842  15.691  0.0826 -0.1657  0.3491
16897TIP3    H172106   4.481   1.903  15.744  0.6000 -1.8121  1.7973
16897TIP3    H272107   4.488   1.768  15.676 -0.7671 -0.6296 -0.8174
16898TIP3   OH272108   1.655   6.192   6.707 -0.2357 -0.3127  0.0428
16898TIP3    H172109   1.623   6.145   6.630 -1.3824  0.2479  0.1592
16898TIP3    H272110   1.596   6.267   6.716  0.2450 -0.0420  1.1236
16899TIP3   OH272111   1.215   1.509   3.808 -0.0330  0.0057  0.0599
16899TIP3    H172112   1.141   1.467   3.764 -0.3079  0.7379 -0.1851
16899TIP3    H272113   1.187   1.518   3.899  0.2904 -0.9394  0.2637
16900TIP3   OH272114   3.993   0.384  17.177  0.2253 -0.3064  0.1470
16900TIP3    H172115   3.937   0.311  17.204 -2.4458  1.9834  1.1666
16900TIP3    H272116   3.974   0.396  17.084  0.6934 -0.8706 -0.0320
16901TIP3   OH272117   3.887   4.175   1.302 -0.5634 -0.2756  0.1754
16901TIP3    H172118   3.895   4.080   1.314 -0.9545 -0.1482  1.5331
16901TIP3    H272119   3.809   4.185   1.247  0.3570 -0.7977 -1.2807
16902TIP3   OH272120   0.492   4.423  13.183  0.0351  0.1522  0.2115
16902TIP3    H172121   0.568   4.421  13.124  0.9426  1.2999  1.2593
16902TIP3    H272122   0.472   4.517  13.191 -1.1990 -0.1128  0.3405
16903TIP3   OH272123   5.978   2.090   3.174 -0.4765 -0.2255 -0.0738
16903TIP3    H172124   6.048   2.027   3.191 -0.7188 -0.1389  1.4064
16903TIP3    H272125   6.022   2.165   3.134  0.1974 -0.3557  0.4077
16904TIP3   OH272126   0.502   1.285  13.047  0.0593  0.4257 -0.1837
16904TIP3    H172127   0.521   1.364  12.997 -1.6505 -0.1970 -1.9253
16904TIP3    H272128   0.474   1.316  13.133 -0.8532  1.7386 -0.9314
16905TIP3   OH272129   1.539   4.774  16.965  0.5454 -0.5095 -0.5110
16905TIP3    H172130   1.536   4.771  16.869 -0.8294 -2.7297 -0.4717
16905TIP3    H272131   1.624   4.736  16.987  1.2696  0.8754 -0.8339
16906TIP3   OH272132   1.271   2.230  14.458 -0.3594 -0.4650 -0.1519
16906TIP3    H172133   1.181   2.259  14.471  0.1934  1.7191 -0.7678
16906TIP3    H272134   1.316   2.253  14.540 -0.5935 -2.9343  0.7798
16907TIP3   OH272135   4.644   0.106   4.015 -0.0368  0.0431 -0.3008
16907TIP3    H172136   4.622   0.162   4.089 -0.6652  0.2657 -0.6492
16907TIP3    H272137   4.596   0.143   3.941  0.0928 -0.5372 -0.6879
16908TIP3   OH272138   1.201   2.438   2.220  0.4126  0.2476 -0.8676
16908TIP3    H172139   1.238   2.363   2.174  1.1522  0.5272 -0.7426
16908TIP3    H272140   1.276   2.495   2.237  0.0534  0.4471  0.1191
16909TIP3   OH272141   6.605   4.676   2.313  0.5248  0.2549 -0.1808
16909TIP3    H172142   6.530   4.690   2.372  1.2778  1.7144  0.4884
16909TIP3    H272143   6.616   4.761   2.270 -0.4888 -0.9485 -3.0903
16910TIP3   OH272144   0.645   1.921   4.198 -0.1401 -0.2971 -0.0048
16910TIP3    H172145   0.613   1.831   4.208 -0.9356  0.1124  1.3205
16910TIP3    H272146   0.591   1.958   4.129 -1.3427 -0.1786  0.9629
16911TIP3   OH272147   3.751   0.040   5.588  0.0736  0.3794  0.2941
16911TIP3    H172148   3.794  -0.031   5.637  2.0289  1.1077 -0.2679
16911TIP3    H272149   3.741   0.110   5.652  0.3001  0.4211  0.2865
16912TIP3   OH272150   0.002   3.346  12.405  0.5574 -0.2877 -0.4759
16912TIP3    H172151  -0.072   3.288  12.424 -0.1678 -0.3512 -3.0554
16912TIP3    H272152  -0.037   3.433  12.396  1.3805  0.3514  1.5885
16913TIP3   OH272153   2.284   2.673  12.287 -0.0734  0.7316  0.1963
16913TIP3    H172154   2.278   2.755  12.337  0.0531  0.6474  0.3511
16913TIP3    H272155   2.369   2.678  12.244 -1.4080  2.2491 -2.5654
16914TIP3   OH272156   6.655   0.099  14.543  0.3020  0.5520  0.0285
16914TIP3    H172157   6.740   0.109  14.585  1.2999 -0.9593 -1.5416
16914TIP3    H272158   6.597   0.068  14.613  1.0583  1.3673  1.0519
16915TIP3   OH272159   6.752   2.474   5.336  0.1942  0.0860  0.4065
16915TIP3    H172160   6.738   2.567   5.316  0.0136  0.1107  0.6416
16915TIP3    H272161   6.698   2.428   5.272  1.9875  0.0577 -1.1992
16916TIP3   OH272162   4.344   0.863  13.475 -0.0370 -0.5606 -0.2360
16916TIP3    H172163   4.425   0.914  13.479  0.7956 -1.9140  1.8021
16916TIP3    H272164   4.274   0.928  13.484  0.8735  0.4773 -0.4287
16917TIP3   OH272165   2.239   6.700   2.162  0.2604  0.3312  0.4345
16917TIP3    H172166   2.261   6.771   2.222  1.4371 -0.2271  0.6947
16917TIP3    H272167   2.324   6.670   2.128 -0.1455 -1.4389  0.8988
16918TIP3   OH272168   4.419   5.472  16.703  0.2095  0.1846 -0.2626
16918TIP3    H172169   4.438   5.390  16.750  1.1523 -0.4290 -1.6505
16918TIP3    H272170   4.383   5.530  16.770 -0.1215 -1.2331  0.8368
16919TIP3   OH272171   6.201   6.417  15.236  0.0675  0.5011 -0.3070
16919TIP3    H172172   6.236   6.339  15.192 -2.5410 -0.7672 -0.3593
16919TIP3    H272173   6.155   6.465  15.166  0.9440  1.6782 -0.1016
16920TIP3   OH272174   3.355   1.007   2.315 -0.0539  0.7539  0.2761
16920TIP3    H172175   3.413   1.076   2.283 -0.7351  2.4520  2.4636
16920TIP3    H272176   3.384   0.993   2.405 -0.5886 -1.1444  0.1858
16921TIP3   OH272177   1.941   1.730   3.962 -0.1650 -0.1823 -0.0040
16921TIP3    H172178   1.943   1.753   4.054 -1.3207 -0.4491  0.1020
16921TIP3    H272179   1.848   1.716   3.942  0.2542 -2.7139 -0.5396
16922TIP3   OH272180   0.560   2.756   1.325 -0.6966 -0.3177 -0.0240
16922TIP3    H172181   0.613   2.698   1.271  1.5815  0.6445  1.0146
16922TIP3    H272182   0.508   2.697   1.380  0.9506 -1.4205  0.4366
16923TIP3   OH272183   4.144   6.565  17.082 -0.0164  0.0723 -0.0860
16923TIP3    H172184   4.134   6.650  17.040  1.5853  0.0521 -0.5443
16923TIP3    H272185   4.064   6.555  17.135 -1.4885  0.6624 -2.0832
16924TIP3   OH272186   0.690   3.827   0.214 -0.0322  0.3470  0.2407
16924TIP3    H172187   0.785   3.831   0.227 -0.2080  2.6927  1.4255
16924TIP3    H272188   0.669   3.911   0.174 -1.5978 -0.2430 -0.2185
16925TIP3   OH272189   5.491   3.140  13.437  0.1306 -0.0101 -0.0955
16925TIP3    H172190   5.474   3.065  13.494 -0.0226 -0.1039 -0.2634
16925TIP3    H272191   5.586   3.155  13.445  0.3572 -0.9077 -0.8959
16926TIP3   OH272192   3.537   0.799  16.736 -0.0857  0.5250  0.0172
16926TIP3    H172193   3.482   0.845  16.799  0.5186  0.7345  0.4039
16926TIP3    H272194   3.591   0.741  16.790  2.0830  2.3848 -0.0394
16927TIP3   OH272195   5.218   4.789   3.498 -0.3351  0.2225 -0.0068
16927TIP3    H172196   5.312   4.792   3.480  0.2273 -0.9674  2.2845
16927TIP3    H272197   5.193   4.879   3.516  0.0835  0.7164 -1.7880
16928TIP3   OH272198   5.155   6.244  11.235 -0.6122 -0.2707 -0.0685
16928TIP3    H172199   5.200   6.219  11.315  0.3388  0.4862 -0.3525
16928TIP3    H272200   5.105   6.322  11.259  0.0917  0.2711 -0.3287
16929TIP3   OH272201   5.816   5.293  15.885  0.4236 -0.3621 -0.3436
16929TIP3    H172202   5.796   5.285  15.979 -1.4455 -0.7650 -0.7227
16929TIP3    H272203   5.842   5.205  15.858 -1.4535 -0.8640 -0.6608
16930TIP3   OH272204   6.605   5.618   4.175  0.3623  0.3069 -0.3434
16930TIP3    H172205   6.673   5.635   4.240 -0.9757  1.6973  0.7919
16930TIP3    H272206   6.570   5.532   4.198  0.3988  0.4679  0.3415
16931TIP3   OH272207   2.704   5.707   2.269  0.1677  0.0436  0.4397
16931TIP3    H172208   2.670   5.701   2.359 -0.2009  1.4185  0.4111
16931TIP3    H272209   2.780   5.648   2.269  0.0505 -0.1377  1.5910
16932TIP3   OH272210   5.957   4.862  14.922 -0.0721 -0.9889 -0.0516
16932TIP3    H172211   5.924   4.839  15.009 -0.8443 -0.7847 -0.2904
16932TIP3    H272212   5.904   4.936  14.894  0.6240 -0.6132 -0.4195
16933TIP3   OH272213   6.233   0.172  14.293 -0.1854 -0.3177 -0.8078
16933TIP3    H172214   6.179   0.223  14.353 -0.5646 -1.2897 -0.3002
16933TIP3    H272215   6.322   0.197  14.315 -0.4027  1.3407 -1.6849
16934TIP3   OH272216   3.786   2.754   1.038 -0.3579 -0.6625  0.1163
16934TIP3    H172217   3.841   2.808   0.981  0.8372 -4.0860 -2.2751
16934TIP3    H272218   3.786   2.801   1.122  1.1568  2.5655 -1.4903
16935TIP3   OH272219   5.978   0.372  11.862 -0.1310 -0.1504  0.3765
16935TIP3    H172220   5.960   0.292  11.811 -0.4181 -0.3535  0.7884
16935TIP3    H272221   5.978   0.442  11.797 -2.2066 -0.1700  0.2729
16936TIP3   OH272222   3.669   1.608   2.978  0.0780 -0.3492 -0.0376
16936TIP3    H172223   3.701   1.564   3.057  0.4217 -0.3643 -0.1874
16936TIP3    H272224   3.595   1.661   3.009  2.3071  2.4129  0.9863
16937TIP3   OH272225   2.479   5.850  12.946  0.3022  0.2148  0.1376
16937TIP3    H172226   2.481   5.943  12.967  1.5946  0.6957 -1.7774
16937TIP3    H272227   2.392   5.835  12.909  0.0803  0.6485  0.4731
16938TIP3   OH272228   0.238   5.433   1.225  0.5992  0.7035  0.0171
16938TIP3    H172229   0.275   5.519   1.246 -0.4941  1.1514  0.2264
16938TIP3    H272230   0.282   5.373   1.285 -0.5376  1.5564  1.8019
16939TIP3   OH272231   2.414   2.261  15.681 -0.0032  0.1412  0.1524
16939TIP3    H172232   2.320   2.258  15.698  0.2559 -0.4082  1.6361
16939TIP3    H272233   2.437   2.170  15.662  0.4744 -0.0190  1.3936
16940TIP3   OH272234   2.480   1.470   2.544 -0.3982 -0.0204  0.5167
16940TIP3    H172235   2.392   1.437   2.528 -0.0865 -0.9021  0.5710
16940TIP3    H272236   2.500   1.445   2.634  0.3636 -0.9159  0.1159
16941TIP3   OH272237   0.903   5.903  16.256  0.3400  0.0787  0.2815
16941TIP3    H172238   0.812   5.932  16.264  0.2338 -0.3488  0.6776
16941TIP3    H272239   0.912   5.834  16.322  0.4936 -1.0114 -0.8420
16942TIP3   OH272240   4.402   0.410   1.866 -0.4178  0.0447  0.0472
16942TIP3    H172241   4.443   0.493   1.840 -0.5938  0.5969  1.4020
16942TIP3    H272242   4.414   0.407   1.961  0.1968 -1.8374 -0.0417
16943TIP3   OH272243   2.979   0.664   0.500  0.1815  0.3094  0.4197
16943TIP3    H172244   2.970   0.573   0.475  2.2507  0.0694  0.4093
16943TIP3    H272245   2.977   0.663   0.596  0.7823  0.1784  0.4320
16944TIP3   OH272246   5.574   5.348   5.268 -0.4896 -0.7932  0.1491
16944TIP3    H172247   5.514   5.379   5.200 -0.5764  2.7657  1.6132
16944TIP3    H272248   5.661   5.354   5.228 -0.4976  1.6377  0.3063
16945TIP3   OH272249   1.604   4.694   3.912  0.2751  0.4176  0.0268
16945TIP3    H172250   1.514   4.683   3.881  0.6253 -0.1530 -0.8209
16945TIP3    H272251   1.595   4.729   4.001 -0.8145 -1.7470  0.8378
16946TIP3   OH272252   0.355   6.485  14.814 -0.3398  0.0593  0.0235
16946TIP3    H172253   0.351   6.398  14.853 -0.2192 -0.4711 -1.1058
16946TIP3    H272254   0.424   6.479  14.748 -2.9790 -0.2518 -2.9548
16947TIP3   OH272255   2.797   0.727   6.179 -0.3085 -0.1998 -0.0213
16947TIP3    H172256   2.840   0.810   6.201  0.3198 -0.2588 -0.9691
16947TIP3    H272257   2.740   0.748   6.105 -0.2448 -0.5868 -0.1810
16948TIP3   OH272258   5.315   0.997  12.869  0.4434  0.1798 -0.4139
16948TIP3    H172259   5.301   0.930  12.803 -0.9906 -0.0048  0.0482
16948TIP3    H272260   5.228   1.028  12.892  0.8600 -0.0508  1.6842
16949TIP3   OH272261   2.499   3.415   0.724 -0.0095 -0.1215  0.5348
16949TIP3    H172262   2.569   3.480   0.731  0.0633 -0.1081 -0.2619
16949TIP3    H272263   2.438   3.439   0.794 -0.6579  1.6248 -0.5632
16950TIP3   OH272264   0.075   0.295  15.246  0.0135 -0.2941 -0.0081
16950TIP3    H172265   0.161   0.261  15.223  0.3247  0.3686  0.1626
16950TIP3    H272266   0.074   0.384  15.210 -0.5933 -0.2945  0.0011
16951TIP3   OH272267   0.050   5.256  12.971 -0.1670  0.3614 -0.4003
16951TIP3    H172268  -0.025   5.315  12.981 -0.2964  0.1477 -0.1158
16951TIP3    H272269   0.056   5.243  12.876 -1.5904 -1.0160 -0.3480
16952TIP3   OH272270   5.284   0.136  12.751 -0.3110 -0.4020  0.1846
16952TIP3    H172271   5.333   0.217  12.762  0.0127 -0.7581  1.5835
16952TIP3    H272272   5.201   0.163  12.710 -0.7481  0.8423  1.7745
16953TIP3   OH272273   5.400   3.190   4.158 -0.0752 -0.4631 -0.2945
16953TIP3    H172274   5.493   3.165   4.159  0.3103  0.6468  2.6123
16953TIP3    H272275   5.400   3.281   4.129 -0.0715 -0.0487  0.9581
16954TIP3   OH272276   0.361   4.510  16.481 -0.2085 -0.0853  1.0157
16954TIP3    H172277   0.423   4.440  16.502 -0.5686  0.1493  3.0661
16954TIP3    H272278   0.416   4.586  16.461  0.1892 -0.9319 -1.4732
16955TIP3   OH272279   2.130   3.205  14.965 -0.0526 -0.7131 -0.1787
16955TIP3    H172280   2.043   3.233  14.994 -0.0799 -1.4132  0.4570
16955TIP3    H272281   2.146   3.124  15.014  1.2572 -0.2097  0.2772
16956TIP3   OH272282   2.660   2.281  16.510 -0.2701  0.6910 -0.5340
16956TIP3    H172283   2.677   2.191  16.537 -3.6410 -0.7893 -2.7832
16956TIP3    H272284   2.724   2.297  16.440 -0.4188 -0.3962 -0.9372
16957TIP3   OH272285   2.599   6.739  15.454 -0.3977  0.1828  0.0834
16957TIP3    H172286   2.647   6.754  15.535  1.1817  0.1615 -0.7982
16957TIP3    H272287   2.510   6.768  15.472  0.1719  1.1292  1.4900
16958TIP3   OH272288   6.647   4.119  12.184  0.4290  0.3344  0.0915
16958TIP3    H172289   6.704   4.173  12.128  0.8815 -1.4269 -1.2434
16958TIP3    H272290   6.559   4.153  12.167  0.5293 -0.2436 -1.8883
16959TIP3   OH272291   1.720   2.831  10.784  0.1887 -0.2928  0.4672
16959TIP3    H172292   1.768   2.851  10.864  1.4685 -1.9075  0.1737
16959TIP3    H272293   1.630   2.858  10.802  0.3977 -0.8018  2.5275
16960TIP3   OH272294   2.787   0.018   2.890  0.6142 -0.4531  0.3532
16960TIP3    H172295   2.714  -0.024   2.936  1.3825 -1.4944  0.6710
16960TIP3    H272296   2.756   0.106   2.871 -1.8646 -1.7063 -2.1340
16961TIP3   OH272297   1.952   6.066  16.738 -0.3096  0.0961  0.3841
16961TIP3    H172298   2.000   6.146  16.755 -0.8959 -0.1388  3.9172
16961TIP3    H272299   2.014   6.009  16.693  2.2623  0.4042  3.2401
16962TIP3   OH272300   5.172   3.364  14.270  0.1133 -0.0190  0.0808
16962TIP3    H172301   5.253   3.345  14.223 -1.2346 -0.2614 -2.3312
16962TIP3    H272302   5.108   3.303  14.234 -1.6453  1.5615  0.3487
16963TIP3   OH272303   4.711   3.298   0.221 -0.5587 -0.4235  1.1983
16963TIP3    H172304   4.695   3.213   0.261  1.2561 -0.0840  2.7914
16963TIP3    H272305   4.798   3.324   0.252 -0.3139  1.2346 -0.6451
16964TIP3   OH272306   5.719   0.217   5.928  0.0463  0.4016  0.4102
16964TIP3    H172307   5.783   0.224   5.999 -0.7215 -1.1649  1.3055
16964TIP3    H272308   5.762   0.161   5.864  0.0512  0.3757  0.4359
16965TIP3   OH272309   3.715   3.210   5.810 -0.0433 -0.0882 -0.1770
16965TIP3    H172310   3.799   3.232   5.770  1.1627 -1.4423  1.4460
16965TIP3    H272311   3.655   3.277   5.778  1.6281  0.9138 -1.4091
16966TIP3   OH272312   6.570   6.588   5.409 -0.8503 -0.1364 -0.7239
16966TIP3    H172313   6.571   6.515   5.471  1.9481  0.6402  0.2664
16966TIP3    H272314   6.479   6.592   5.378 -1.4679 -2.9102  0.4808
16967TIP3   OH272315   2.711   3.441  11.403  0.2732  0.0814  0.0732
16967TIP3    H172316   2.758   3.492  11.470 -0.2288  2.2303 -1.1360
16967TIP3    H272317   2.623   3.430  11.439  0.7335 -1.1463  0.9093
16968TIP3   OH272318   2.243   1.496   0.609 -0.1069 -0.2593 -0.4002
16968TIP3    H172319   2.315   1.437   0.589  0.5104  0.9722 -1.9434
16968TIP3    H272320   2.166   1.453   0.572  0.0095 -0.9548  0.1267
16969TIP3   OH272321   5.071   0.454   3.190 -0.4050  0.1571 -0.0725
16969TIP3    H172322   5.109   0.521   3.246 -0.3375 -0.0182  0.0949
16969TIP3    H272323   5.021   0.399   3.250 -1.5431  0.8161 -0.3862
16970TIP3   OH272324   2.124   4.441  10.666  0.3531  0.7509  0.1321
16970TIP3    H172325   2.199   4.500  10.663  0.9865 -0.0262 -2.5687
16970TIP3    H272326   2.140   4.384  10.741  1.6891  1.5447  0.4755
16971TIP3   OH272327   0.888   6.200   4.959 -1.1311 -0.2464 -0.1962
16971TIP3    H172328   0.833   6.203   5.038 -2.2841  0.3406 -0.9840
16971TIP3    H272329   0.836   6.149   4.896 -0.3612 -0.4544 -0.6693
16972TIP3   OH272330   5.115   3.351   5.313 -0.1740  0.0802  0.0303
16972TIP3    H172331   5.159   3.266   5.313 -1.2467 -0.4884 -0.0039
16972TIP3    H272332   5.049   3.344   5.382 -0.0619  1.0038  0.2446
16973TIP3   OH272333   3.170   6.130   6.037  1.0683 -0.0739  0.5599
16973TIP3    H172334   3.145   6.048   6.080  1.1698  0.0194  0.7973
16973TIP3    H272335   3.242   6.106   5.979 -0.1421 -0.5261 -0.8185
16974TIP3   OH272336   6.179   4.703  14.049 -0.0671 -0.0073 -0.2485
16974TIP3    H172337   6.249   4.671  14.106 -0.9475  1.5178  1.8235
16974TIP3    H272338   6.123   4.627  14.034 -0.4649 -0.2157  1.9901
16975TIP3   OH272339   2.391   6.107   4.619 -0.0009  0.4612 -0.1213
16975TIP3    H172340   2.400   6.156   4.537  2.2508  1.5975  0.7445
16975TIP3    H272341   2.480   6.094   4.650 -0.7092 -1.4141  1.3574
16976TIP3   OH272342   3.499   5.782   1.438 -0.9264 -0.3856  0.1316
16976TIP3    H172343   3.419   5.760   1.486  0.7195 -0.0694  3.2570
16976TIP3    H272344   3.498   5.878   1.431 -0.3203 -0.2847  1.2163
16977TIP3   OH272345   4.868   1.120   4.920 -0.4657 -0.0670 -0.4700
16977TIP3    H172346   4.834   1.038   4.955  0.6269  0.3618  1.7138
16977TIP3    H272347   4.832   1.124   4.831 -1.5967 -2.2526 -0.1811
16978TIP3   OH272348   6.052   0.870   0.441  0.0136 -0.2896  0.6914
16978TIP3    H172349   6.021   0.958   0.460 -0.2929 -0.0092 -0.9149
16978TIP3    H272350   5.999   0.842   0.366  3.4509  0.1545 -2.1635
16979TIP3   OH272351   4.272   0.770   5.293 -0.9259  0.3915  0.1634
16979TIP3    H172352   4.334   0.698   5.280  0.5614  1.4683  0.9290
16979TIP3    H272353   4.265   0.811   5.207 -1.4778 -0.4140 -0.1862
16980TIP3   OH272354   3.770   3.310  14.823 -0.1567  0.3626  0.3070
16980TIP3    H172355   3.712   3.235  14.832  1.6087 -0.8975  1.6355
16980TIP3    H272356   3.843   3.292  14.881  2.1362  1.3856 -2.0525
16981TIP3   OH272357   3.426   5.315  17.075 -0.1465 -0.0516 -0.5527
16981TIP3    H172358   3.394   5.344  17.160  1.7961 -1.6393  0.7998
16981TIP3    H272359   3.364   5.353  17.012 -0.5149  2.8640  1.3611
16982TIP3   OH272360   1.855   6.123   5.593 -0.0278  0.0807  0.1820
16982TIP3    H172361   1.848   6.146   5.500  1.3470 -0.5551 -0.1036
16982TIP3    H272362   1.850   6.027   5.594 -0.0802  0.0898  0.7616
16983TIP3   OH272363   4.541   2.360   4.444 -0.5121  0.1595  0.2520
16983TIP3    H172364   4.540   2.376   4.350 -0.6107  1.7972  0.4951
16983TIP3    H272365   4.631   2.332   4.463 -0.1658  0.9222 -0.1888
16984TIP3   OH272366   1.065   2.656   4.597 -0.0043 -0.5421  0.4943
16984TIP3    H172367   1.139   2.627   4.650  0.4337  0.8458  0.7012
16984TIP3    H272368   1.093   2.642   4.507  0.7233  0.3817  0.5584
16985TIP3   OH272369   2.406   3.151  16.590 -0.1851  0.5753 -0.0881
16985TIP3    H172370   2.454   3.080  16.632 -3.1434 -1.3012  0.4488
16985TIP3    H272371   2.418   3.226  16.648 -0.2256 -0.6408  1.5788
16986TIP3   OH272372   4.792   6.345   0.394 -0.0507 -0.4226 -0.1893
16986TIP3    H172373   4.749   6.269   0.353 -1.4707 -2.3075  4.2251
16986TIP3    H272374   4.864   6.307   0.445 -0.2658  1.2825  1.4717
16987TIP3   OH272375   5.704   0.273  12.724 -0.1877 -0.2600  0.3218
16987TIP3    H172376   5.681   0.315  12.642  0.0856 -0.3107  0.2185
16987TIP3    H272377   5.652   0.319  12.790 -2.0147 -1.5730 -0.1143
16988TIP3   OH272378   0.766   3.714   3.689 -0.3949  0.4956 -0.1145
16988TIP3    H172379   0.731   3.662   3.616 -3.5380 -1.4116  2.4596
16988TIP3    H272380   0.697   3.777   3.709  1.2954  2.4098  0.0150
16989TIP3   OH272381   4.675   5.082   4.417  0.0346  0.4225 -0.5189
16989TIP3    H172382   4.645   5.151   4.358  0.3723  0.0045 -1.1904
16989TIP3    H272383   4.727   5.023   4.362  0.8774  0.3471  0.3139
16990TIP3   OH272384   1.586   5.941  13.928 -0.5616 -0.2061 -0.4502
16990TIP3    H172385   1.631   5.862  13.959 -1.1383 -0.2609  0.2595
16990TIP3    H272386   1.501   5.939  13.971 -0.1352  1.4573  0.5939
16991TIP3   OH272387   4.497   6.670  15.435  0.0306  0.2809  0.6394
16991TIP3    H172388   4.528   6.610  15.504 -0.1170  0.6974  1.0711
16991TIP3    H272389   4.461   6.612  15.368 -0.6314 -0.1028  1.3130
16992TIP3   OH272390   5.098   5.716   0.658 -0.0591  0.2757 -0.4264
16992TIP3    H172391   5.103   5.636   0.605  2.2551  1.6281 -2.4669
16992TIP3    H272392   5.005   5.725   0.679 -0.5051 -2.4673 -0.8545
16993TIP3   OH272393   0.868   1.503  11.679  0.4471 -0.1626  0.0333
16993TIP3    H172394   0.949   1.471  11.716  0.9062 -0.2602 -1.0134
16993TIP3    H272395   0.870   1.474  11.587 -1.1634 -0.9318  0.1983
16994TIP3   OH272396   2.552   6.380   2.307  0.6889  0.0615 -0.0877
16994TIP3    H172397   2.552   6.353   2.399  2.9844 -2.4310 -0.7278
16994TIP3    H272398   2.621   6.446   2.302  0.1410  0.6573  0.0613
16995TIP3   OH272399   2.571   3.536  14.659  0.2308  1.3188 -0.1073
16995TIP3    H172400   2.566   3.520  14.753 -1.6589  2.8726  0.1079
16995TIP3    H272401   2.663   3.521  14.637  0.7627  1.1868  2.0287
16996TIP3   OH272402   4.825   1.422  16.818 -0.1435  0.1985  0.6460
16996TIP3    H172403   4.885   1.354  16.847  0.2008 -0.0047 -0.4986
16996TIP3    H272404   4.776   1.381  16.746  0.6657  1.4068 -0.6365
16997TIP3   OH272405   4.555   0.536   0.268 -0.6573  0.2521 -0.3496
16997TIP3    H172406   4.529   0.444   0.270 -2.3313  0.6952  1.8077
16997TIP3    H272407   4.520   0.569   0.185  1.0532 -1.2598 -1.7591
16998TIP3   OH272408   5.697   2.091  10.754 -0.7670  0.1612 -0.2250
16998TIP3    H172409   5.688   2.173  10.705 -0.7189  0.6021  0.4777
16998TIP3    H272410   5.791   2.073  10.754 -0.4476  1.4329  1.6509
16999TIP3   OH272411   5.753   6.212  15.545  0.6096  0.3680  0.0972
16999TIP3    H172412   5.679   6.240  15.490  0.7694  0.5073 -0.0488
16999TIP3    H272413   5.781   6.129  15.505  0.1908  0.0418  0.4772
17000TIP3   OH272414   4.947   3.912   1.058 -0.2399 -0.8034  0.0422
17000TIP3    H172415   4.964   4.004   1.076  0.9542 -0.7491 -1.2413
17000TIP3    H272416   4.941   3.871   1.144 -2.4413  0.7212  0.6930
17001TIP3   OH272417   5.863   2.023  11.646  0.0091  0.1723 -0.1108
17001TIP3    H172418   5.939   2.040  11.591 -1.5841  3.0786 -1.6082
17001TIP3    H272419   5.890   2.049  11.734  1.5356 -1.4151 -0.0647
17002TIP3   OH272420   6.640   3.928   6.014 -0.2267  0.0513 -0.1978
17002TIP3    H172421   6.562   3.900   5.965 -0.5503  2.6435 -1.3345
17002TIP3    H272422   6.630   4.023   6.022  3.1490  0.5883 -0.9938
17003TIP3   OH272423   2.711   6.076   1.098  0.2082  0.2962 -0.6306
17003TIP3    H172424   2.713   6.025   1.179  0.2491 -2.3276 -2.1766
17003TIP3    H272425   2.801   6.106   1.086 -0.2145  2.7538  1.3831
17004TIP3   OH272426   0.969   5.520   5.806  0.0465  0.4924  0.0929
17004TIP3    H172427   0.925   5.444   5.769 -0.5490  1.5061 -1.3967
17004TIP3    H272428   1.061   5.510   5.782 -0.5314  1.8630 -3.2046
17005TIP3   OH272429   6.238   4.799  11.527 -0.0936  0.1934  0.0998
17005TIP3    H172430   6.177   4.789  11.600 -0.6983 -0.7379 -0.5183
17005TIP3    H272431   6.183   4.796  11.449  0.7493 -0.8400 -0.4753
17006TIP3   OH272432   1.100   1.180   0.525 -0.1750  0.1141  0.3692
17006TIP3    H172433   1.142   1.126   0.458 -1.6089 -1.3370  0.5620
17006TIP3    H272434   1.170   1.235   0.560  0.7223  0.5705 -1.9521
17007TIP3   OH272435   5.061   5.561   0.077 -0.0809  0.5820 -0.3892
17007TIP3    H172436   4.974   5.571   0.039 -0.5727 -1.5623  0.0511
17007TIP3    H272437   5.095   5.480   0.039  1.0265  0.4731  0.7425
17008TIP3   OH272438   1.705   1.039  14.317  0.5084  0.0042  0.0543
17008TIP3    H172439   1.711   1.039  14.221 -0.4290  0.4429 -0.0209
17008TIP3    H272440   1.782   1.087  14.346  0.8281 -0.1748 -0.4818
17009TIP3   OH272441   4.660   2.736  13.330  0.4125  0.0377  0.6862
17009TIP3    H172442   4.674   2.816  13.280 -0.3062 -0.7620 -0.8500
17009TIP3    H272443   4.737   2.729  13.387  1.6878  0.5327 -0.9212
17010TIP3   OH272444   1.490   0.364  12.237 -0.2398  0.2712  0.0834
17010TIP3    H172445   1.510   0.451  12.272 -2.3822 -0.0446  2.4002
17010TIP3    H272446   1.542   0.304  12.291  1.2630  0.0418 -1.5341
17011TIP3   OH272447   5.427   4.775   0.431  0.2441 -0.2167  0.5053
17011TIP3    H172448   5.522   4.776   0.419  0.3311  0.4876  1.2093
17011TIP3    H272449   5.400   4.689   0.399  0.7104  0.7107 -2.7170
17012TIP3   OH272450   3.797   1.753  12.218  0.0699 -0.2018 -1.1070
17012TIP3    H172451   3.815   1.684  12.153  0.0125  0.7670 -2.1958
17012TIP3    H272452   3.792   1.707  12.301  3.2202 -1.1170 -1.3015
17013TIP3   OH272453   3.087   4.631   2.903  0.2650 -0.1832  0.6362
17013TIP3    H172454   3.027   4.705   2.917  0.8130  0.1270  1.3890
17013TIP3    H272455   3.135   4.654   2.823 -0.8909 -0.6287 -0.2154
17014TIP3   OH272456   5.555   2.117  13.379  0.3184 -0.4478 -0.1089
17014TIP3    H172457   5.618   2.104  13.308  0.9682 -0.1801  0.4100
17014TIP3    H272458   5.599   2.176  13.440 -0.3657 -0.4052  0.3565
17015TIP3   OH272459   5.822   4.587   5.444 -0.1359 -0.1748 -0.2562
17015TIP3    H172460   5.870   4.548   5.371 -0.0694  0.4194 -0.5381
17015TIP3    H272461   5.775   4.661   5.405  0.4331  0.5600  0.4242
17016TIP3   OH272462   1.085   0.442   4.027 -0.3030 -0.4591 -0.0136
17016TIP3    H172463   1.140   0.506   3.981 -1.1445  0.4953  0.2631
17016TIP3    H272464   1.032   0.401   3.958 -1.4056  0.8129  0.0266
17017TIP3   OH272465   0.189   3.141  16.448 -0.2612 -0.1826  0.2032
17017TIP3    H172466   0.105   3.171  16.413  0.4192 -0.0583 -1.4083
17017TIP3    H272467   0.166   3.097  16.530 -1.8185  0.4292  0.1375
17018TIP3   OH272468   3.575   3.424   4.373 -0.6864 -0.8199  0.0034
17018TIP3    H172469   3.562   3.495   4.436  0.5698  0.8533 -1.4898
17018TIP3    H272470   3.519   3.448   4.299  1.7065  0.1265 -1.6116
17019TIP3   OH272471   5.894   6.147  14.227 -0.6702 -0.5341  0.6504
17019TIP3    H172472   5.864   6.168  14.138  0.8389 -0.2740  0.1797
17019TIP3    H272473   5.897   6.052  14.230 -1.1663 -0.5530  0.5781
17020TIP3   OH272474   2.012   4.218  14.246 -0.5141  0.0226  0.2922
17020TIP3    H172475   2.052   4.171  14.174 -0.3474 -0.6284  0.8011
17020TIP3    H272476   2.067   4.296  14.257 -2.1261  1.6410 -2.0759
17021TIP3   OH272477   0.788   5.514   3.304  0.2945 -0.2646 -0.1030
17021TIP3    H172478   0.872   5.491   3.264  0.1621 -0.5249 -0.2353
17021TIP3    H272479   0.812   5.559   3.385  0.5628  0.2617 -0.4648
17022TIP3   OH272480   5.949   4.071   0.525 -0.0141  0.2261  0.1705
17022TIP3    H172481   5.929   4.159   0.493 -1.7222  1.2044  3.4930
17022TIP3    H272482   5.866   4.025   0.521  1.1242 -1.8552 -2.8383
17023TIP3   OH272483   2.726   6.596  12.057 -0.5670  0.3637  0.1882
17023TIP3    H172484   2.809   6.573  12.100  0.6278  1.1712 -1.5905
17023TIP3    H272485   2.700   6.678  12.098  1.1976  1.7694 -1.3678
17024TIP3   OH272486   4.441   4.449  14.530 -0.5011 -0.0934  0.1940
17024TIP3    H172487   4.517   4.508  14.528 -1.4045  1.0996 -0.1256
17024TIP3    H272488   4.414   4.443  14.438 -0.7817 -0.5227  0.3066
17025TIP3   OH272489   4.499   2.722   1.726  0.3354 -0.3480 -0.2345
17025TIP3    H172490   4.468   2.769   1.803  1.7946  0.5537 -0.1690
17025TIP3    H272491   4.568   2.664   1.759  0.3644 -0.6003 -0.7272
17026TIP3   OH272492   3.165   0.455   5.821 -0.3144  0.0841  0.1507
17026TIP3    H172493   3.225   0.518   5.862  2.0701 -2.7106  1.2925
17026TIP3    H272494   3.113   0.420   5.894  2.6703 -3.5592  0.8454
17027TIP3   OH272495   3.674   4.582   2.329  0.0992  0.5961  0.1897
17027TIP3    H172496   3.666   4.529   2.250  0.6035  2.8708 -1.4669
17027TIP3    H272497   3.739   4.649   2.307  0.1330  1.3991  2.4878
17028TIP3   OH272498   1.542   0.473  17.301 -0.6342  0.2980  0.1906
17028TIP3    H172499   1.568   0.445  17.388 -0.5142 -0.5909 -0.1153
17028TIP3    H272500   1.576   0.405  17.243 -1.7761  0.2302 -0.4300
17029TIP3   OH272501   2.551   5.231   1.688 -0.5330 -0.4667 -0.4585
17029TIP3    H172502   2.620   5.285   1.648 -0.3045  0.7389  1.4194
17029TIP3    H272503   2.598   5.155   1.724 -0.5110 -0.7509 -1.0816
17030TIP3   OH272504   4.635   0.730   3.694  0.6670 -0.5989 -0.3956
17030TIP3    H172505   4.548   0.752   3.729  0.0799 -0.7051 -1.7267
17030TIP3    H272506   4.646   0.637   3.717  0.6332 -0.4636  0.1822
17031TIP3   OH272507   4.802   4.785   0.873  0.0933  0.4659 -0.0917
17031TIP3    H172508   4.709   4.806   0.865 -0.2321 -0.8557 -0.1447
17031TIP3    H272509   4.833   4.841   0.944 -1.5564 -1.3010  2.2390
17032TIP3   OH272510   3.194   2.125   3.561  0.6330  0.7714 -0.2901
17032TIP3    H172511   3.261   2.058   3.548  0.2446  0.4704 -0.7804
17032TIP3    H272512   3.146   2.096   3.638  0.4210  0.4420 -0.5422
17033TIP3   OH272513   5.261   6.727   6.230  0.3999  0.1354 -0.0219
17033TIP3    H172514   5.196   6.658   6.240  0.2016  0.7063  5.4627
17033TIP3    H272515   5.343   6.680   6.213 -0.0659 -1.3796  1.5996
17034TIP3   OH272516   4.971   6.597   0.370  0.4563  0.2181 -0.1893
17034TIP3    H172517   4.901   6.532   0.361  0.1508  0.5038  0.1098
17034TIP3    H272518   5.025   6.584   0.292  0.2318 -0.1986 -0.2781
17035TIP3   OH272519   6.208   0.879   1.907 -0.2111  0.7255 -0.3038
17035TIP3    H172520   6.138   0.816   1.894 -2.0966  1.9937  2.7083
17035TIP3    H272521   6.268   0.837   1.969 -0.9141  1.4123  0.8801
17036TIP3   OH272522   1.972   6.468  16.189  1.0307 -0.5045 -0.0718
17036TIP3    H172523   1.898   6.421  16.227  0.2614 -0.0998 -1.0399
17036TIP3    H272524   2.046   6.444  16.244  0.3805 -1.7280  0.3022
17037TIP3   OH272525   4.479   4.334   2.944 -0.4006 -0.2558  0.6186
17037TIP3    H172526   4.446   4.274   3.011 -0.8902 -0.2727  0.3686
17037TIP3    H272527   4.567   4.302   2.924  0.2757  0.5273  2.1964
17038TIP3   OH272528   1.712   4.820  13.250 -0.1402 -0.1893  0.0519
17038TIP3    H172529   1.780   4.841  13.313 -0.0925  1.5890 -0.5388
17038TIP3    H272530   1.731   4.730  13.223  0.5759 -0.5430  1.5989
17039TIP3   OH272531   1.295   5.760  12.987  0.3936  0.4684 -0.7084
17039TIP3    H172532   1.337   5.797  13.064  0.9342 -1.9873  0.2641
17039TIP3    H272533   1.320   5.668  12.987 -3.2796 -0.7146 -1.2315
17040TIP3   OH272534   0.724   2.129   0.472  0.4341  0.4484  0.3709
17040TIP3    H172535   0.687   2.140   0.385 -0.6557  1.3224  0.9112
17040TIP3    H272536   0.811   2.093   0.457  0.9953  2.2907 -1.1693
17041TIP3   OH272537   5.418   1.015   5.348  0.5040  0.4927  0.0779
17041TIP3    H172538   5.380   1.102   5.353  1.2787  0.7768  2.0395
17041TIP3    H272539   5.362   0.961   5.403  1.5551  0.4049  1.1104
17042TIP3   OH272540   6.485   4.083   5.075  0.2630 -0.1928  0.0925
17042TIP3    H172541   6.449   4.093   5.163  2.7198  0.1021  1.1563
17042TIP3    H272542   6.574   4.117   5.082  1.3136 -2.2247 -1.9222
17043TIP3   OH272543   2.581   5.297  16.351  0.0477  0.3888 -0.4848
17043TIP3    H172544   2.633   5.368  16.314 -0.4302  0.1378 -1.7144
17043TIP3    H272545   2.539   5.336  16.428  0.5941  1.1275 -0.5441
17044TIP3   OH272546   5.602   5.853   1.522  0.1537 -0.0303 -0.0424
17044TIP3    H172547   5.558   5.774   1.491  2.2213 -1.3664  0.2196
17044TIP3    H272548   5.556   5.925   1.479 -0.6748 -1.4759 -1.6857
17045TIP3   OH272549   4.719   5.538   1.427 -0.1501 -0.4599 -0.0799
17045TIP3    H172550   4.638   5.529   1.377 -0.1791 -0.0138 -0.1167
17045TIP3    H272551   4.788   5.533   1.361 -0.2363  1.7733 -0.4170
17046TIP3   OH272552   2.857   0.222  10.682 -0.3333 -0.0581 -0.0920
17046TIP3    H172553   2.829   0.292  10.740  0.2458 -0.0721  0.2150
17046TIP3    H272554   2.883   0.267  10.601  0.0232  0.0841  0.0983
17047TIP3   OH272555   0.805   5.217   1.426  0.2329  0.1122 -0.1879
17047TIP3    H172556   0.808   5.174   1.512 -1.0428  0.0320 -0.1650
17047TIP3    H272557   0.893   5.255   1.416  0.4024  0.1456  1.1609
17048TIP3   OH272558   2.690   1.654  10.895  0.2451 -0.3701  0.1513
17048TIP3    H172559   2.673   1.667  10.802  1.4089 -0.6094 -0.1174
17048TIP3    H272560   2.785   1.644  10.901 -0.0040 -3.1183  1.0202
17049TIP3   OH272561   3.178   2.504   1.805  0.5381 -0.2067  0.1449
17049TIP3    H172562   3.234   2.428   1.790  1.0774  0.3657 -0.9328
17049TIP3    H272563   3.238   2.578   1.807  0.1058  0.1458  1.9585
17050TIP3   OH272564   2.159   4.680  16.699  0.0870  0.1601 -0.4296
17050TIP3    H172565   2.226   4.732  16.744  0.2320  0.8227 -1.3962
17050TIP3    H272566   2.189   4.589  16.711 -0.2814  0.2492  1.4428
17051TIP3   OH272567   5.911   2.130  16.112 -0.1739 -0.2462  0.7604
17051TIP3    H172568   5.904   2.136  16.207  0.4434 -1.9325  0.9459
17051TIP3    H272569   5.950   2.044  16.096  0.9540  0.5371 -0.9764
17052TIP3   OH272570   5.795   6.446   6.855 -0.6021 -0.6242  0.6396
17052TIP3    H172571   5.863   6.440   6.788  0.2625 -2.8158  1.6213
17052TIP3    H272572   5.717   6.410   6.813 -0.3276 -1.0310  0.4649
17053TIP3   OH272573   2.224   5.452  14.638 -0.1236 -0.3790 -0.7540
17053TIP3    H172574   2.208   5.441  14.732  0.0909 -0.7331 -0.7572
17053TIP3    H272575   2.197   5.542  14.620  0.2959 -0.1433 -0.2502
17054TIP3   OH272576   2.566   5.418   4.561 -0.2279 -0.4885 -0.0480
17054TIP3    H172577   2.654   5.442   4.589 -0.6220 -1.7208  2.4902
17054TIP3    H272578   2.573   5.326   4.535 -0.3768 -0.0051 -1.9955
17055TIP3   OH272579   2.875   5.703  12.346  0.7071 -0.0406 -0.4340
17055TIP3    H172580   2.908   5.793  12.344  0.9049 -0.1079 -0.2604
17055TIP3    H272581   2.857   5.686  12.438  1.3099 -0.4068 -0.3767
17056TIP3   OH272582   0.494   4.090   4.641 -0.4408 -0.1282 -0.2587
17056TIP3    H172583   0.515   4.030   4.570  0.4023  0.2077 -0.3046
17056TIP3    H272584   0.557   4.161   4.632 -0.1602 -0.1995  0.9596
17057TIP3   OH272585   1.112   6.466   3.614 -0.2382 -0.2517  0.4907
17057TIP3    H172586   1.182   6.503   3.669  0.0590  0.8619 -0.6074
17057TIP3    H272587   1.117   6.372   3.630  2.0991 -0.3136 -0.1793
17058TIP3   OH272588   0.922   1.812   6.034  0.6877 -0.0865  0.2703
17058TIP3    H172589   1.008   1.776   6.053  1.3293  1.2814  0.0533
17058TIP3    H272590   0.899   1.774   5.949  1.5973  0.4264 -0.2212
17059TIP3   OH272591   3.207   5.839  11.721  0.5003  0.3431  0.0938
17059TIP3    H172592   3.117   5.870  11.716  0.4281  0.0759 -0.3109
17059TIP3    H272593   3.237   5.836  11.630  0.7200 -0.1432  0.1764
17060TIP3   OH272594   0.019   6.414   4.172  0.3881 -0.2289 -0.3686
17060TIP3    H172595   0.061   6.428   4.257  1.0714 -1.8284 -0.3884
17060TIP3    H272596   0.037   6.494   4.123 -1.8242  1.6502  1.6357
17061TIP3   OH272597   0.633   5.990  16.326  0.3489 -0.2968  0.2090
17061TIP3    H172598   0.596   5.962  16.410 -0.7900 -0.8680 -0.4558
17061TIP3    H272599   0.597   5.927  16.263  1.1783  0.1392 -0.7041
17062TIP3   OH272600   1.437   2.687   1.493 -0.0388 -0.3628  0.0450
17062TIP3    H172601   1.516   2.739   1.506 -0.7457  0.6522  0.4315
17062TIP3    H272602   1.367   2.752   1.483 -1.0619 -1.2335  1.2668
17063TIP3   OH272603   2.577   4.508   2.495  0.0347 -0.0380  0.1054
17063TIP3    H172604   2.587   4.598   2.525 -2.0544  0.4587 -0.4752
17063TIP3    H272605   2.572   4.456   2.575 -1.7858  0.7984  0.5963
17064TIP3   OH272606   1.424   0.142  13.464  0.0241  0.1007 -0.1270
17064TIP3    H172607   1.375   0.064  13.488  1.7881 -1.0295  0.0238
17064TIP3    H272608   1.391   0.211  13.522  1.2585 -1.5524  2.7375
17065TIP3   OH272609   4.174   0.942  16.555  0.4458  0.3706  0.2231
17065TIP3    H172610   4.198   1.023  16.600  0.1551  0.5927 -0.0199
17065TIP3    H272611   4.190   0.960  16.462 -1.4794  0.8531 -0.0698
17066TIP3   OH272612   3.521   0.446  14.561 -0.1715 -0.1592 -0.0388
17066TIP3    H172613   3.608   0.478  14.537  0.1543  1.2057  2.6295
17066TIP3    H272614   3.536   0.385  14.633 -1.4919  2.5629  2.7511
17067TIP3   OH272615   6.570   3.359  11.857 -1.2800 -0.1811  0.9845
17067TIP3    H172616   6.608   3.438  11.896  1.3400 -1.7187  1.7807
17067TIP3    H272617   6.558   3.381  11.765  2.2789  0.3180  0.4896
17068TIP3   OH272618   6.667   3.840  13.699 -0.1637 -0.0507  0.0684
17068TIP3    H172619   6.598   3.841  13.765  0.4253  1.1627  0.6894
17068TIP3    H272620   6.623   3.865  13.618 -0.5078  0.4919  0.4164
17069TIP3   OH272621   4.122   0.039  13.484 -0.5285 -0.6085  0.4079
17069TIP3    H172622   4.043   0.049  13.536  0.1446 -0.0571  1.3488
17069TIP3    H272623   4.183  -0.007  13.541  0.2842  0.1738  0.1925
17070TIP3   OH272624   1.713   4.659  13.823 -0.4300 -0.2694  0.0426
17070TIP3    H172625   1.776   4.669  13.894 -0.8944 -0.3675  0.4706
17070TIP3    H272626   1.739   4.726  13.759  0.3345 -0.5598  0.0377
17071TIP3   OH272627   2.628   3.093  16.128 -0.3787 -0.2973  0.3560
17071TIP3    H172628   2.652   3.081  16.036  1.1818  0.2203  0.6801
17071TIP3    H272629   2.695   3.151  16.164 -0.5081 -1.1246  2.0315
17072TIP3   OH272630   2.307   6.540   0.774 -0.2021  0.1768 -0.1711
17072TIP3    H172631   2.376   6.597   0.808 -2.4815  2.4130  1.0649
17072TIP3    H272632   2.239   6.600   0.743 -3.0067 -1.7651  1.7224
17073TIP3   OH272633   2.738   4.080  14.804  0.8184 -0.0224 -0.4588
17073TIP3    H172634   2.771   4.151  14.749  0.3387 -0.0260 -0.7585
17073TIP3    H272635   2.717   4.010  14.742 -2.9555  1.1278 -0.7813
17074TIP3   OH272636   1.789   0.940   1.110 -0.3952 -0.3143  0.0109
17074TIP3    H172637   1.779   0.859   1.161 -0.1035 -0.1343  0.3654
17074TIP3    H272638   1.796   1.009   1.177  2.4599 -0.3362 -0.1404
17075TIP3   OH272639   4.571   4.974  16.893  0.4137  0.3877 -0.4973
17075TIP3    H172640   4.496   4.990  16.950  0.6694 -0.1903  0.0153
17075TIP3    H272641   4.585   4.880  16.898 -1.2127 -0.1644 -3.6092
17076TIP3   OH272642   1.544   1.473   4.135 -0.4077  0.2131  0.1742
17076TIP3    H172643   1.628   1.487   4.180 -0.2335  0.6191 -0.2653
17076TIP3    H272644   1.564   1.405   4.071  0.0002  1.3787 -0.9837
17077TIP3   OH272645   3.004   2.575  15.730 -0.2922  0.0950 -0.2166
17077TIP3    H172646   2.960   2.594  15.647  0.6444  1.4812 -0.4333
17077TIP3    H272647   3.053   2.494  15.712  1.4175  1.3574 -1.6977
17078TIP3   OH272648   1.883   4.587  10.636 -0.1872 -0.3275  0.0025
17078TIP3    H172649   1.937   4.509  10.644 -1.1458 -1.0423 -0.2992
17078TIP3    H272650   1.880   4.624  10.724 -1.3220 -1.7293  0.5849
17079TIP3   OH272651   6.746   6.532  16.131  0.4649  0.2075  0.3539
17079TIP3    H172652   6.764   6.626  16.123 -1.0350  0.6703  1.8266
17079TIP3    H272653   6.651   6.526  16.135  0.5160 -1.4544 -0.3421
17080TIP3   OH272654   1.932   4.169   1.605 -0.1586  0.0647 -0.0686
17080TIP3    H172655   2.008   4.148   1.660  0.1187  0.6343 -0.2322
17080TIP3    H272656   1.869   4.210   1.665  0.5042  1.5239 -0.3352
17081TIP3   OH272657   4.052   1.287   4.005  0.0270 -0.2858  0.0387
17081TIP3    H172658   4.131   1.310   4.055 -1.0112 -0.2335  1.7160
17081TIP3    H272659   4.026   1.369   3.963 -0.0816  0.1198  0.8729
17082TIP3   OH272660   4.872   4.425  17.135  0.0906  0.5704  0.0170
17082TIP3    H172661   4.778   4.416  17.119  0.4481 -1.8873 -1.2184
17082TIP3    H272662   4.907   4.456  17.051  0.6029 -0.6764 -0.2505
17083TIP3   OH272663   0.130   2.454   6.240 -0.0246  0.0316  0.4345
17083TIP3    H172664   0.158   2.383   6.298  0.7444 -0.3174 -0.3307
17083TIP3    H272665   0.143   2.533   6.291 -0.7369 -0.3601  1.2474
17084TIP3   OH272666   0.912   3.724  16.322  0.4378 -0.4024 -0.1678
17084TIP3    H172667   0.842   3.787  16.302  0.2123 -0.8479 -0.8110
17084TIP3    H272668   0.939   3.690  16.236 -1.0773 -2.9340  0.2540
17085TIP3   OH272669   5.417   0.773  15.149 -0.3650 -0.2225 -0.1943
17085TIP3    H172670   5.464   0.798  15.229  1.0041 -0.9020 -0.7602
17085TIP3    H272671   5.358   0.703  15.177  1.1109 -1.4372 -0.0138
17086TIP3   OH272672   6.499   3.477  11.622  0.1087  0.0305 -0.3613
17086TIP3    H172673   6.469   3.492  11.532 -0.6946 -0.1403 -0.1274
17086TIP3    H272674   6.432   3.516  11.677 -1.2443 -2.8451  0.2377
17087TIP3   OH272675   3.702   3.447   3.249 -0.0415 -0.7596  0.1743
17087TIP3    H172676   3.621   3.415   3.210  0.1945 -0.3182 -0.7116
17087TIP3    H272677   3.675   3.513   3.312 -0.3831 -0.7884  0.0573
17088TIP3   OH272678   0.657   3.758   1.342  0.1717  0.1904  0.1609
17088TIP3    H172679   0.638   3.781   1.251  0.7398 -0.1554 -0.0522
17088TIP3    H272680   0.611   3.676   1.357  0.8549 -0.2425 -0.1104
17089TIP3   OH272681   3.315   3.887   5.597  0.7830 -0.0045 -0.8412
17089TIP3    H172682   3.374   3.811   5.591  0.4298 -0.2684 -1.0328
17089TIP3    H272683   3.243   3.866   5.537  0.8793  0.6683 -1.2006
17090TIP3   OH272684   2.842   3.940  16.634  0.7705  0.3258 -0.1888
17090TIP3    H172685   2.832   3.864  16.692 -0.8529  0.4850 -0.2081
17090TIP3    H272686   2.867   3.902  16.549  2.0027  0.0016  0.2968
17091TIP3   OH272687   6.126   2.401   1.798 -0.6479 -0.5220  0.4486
17091TIP3    H172688   6.106   2.331   1.736  0.0676 -0.3954  0.0622
17091TIP3    H272689   6.173   2.357   1.869  2.5272 -0.0610 -1.1893
17092TIP3   OH272690   3.004   2.990   1.951 -0.2889 -0.0858  0.4371
17092TIP3    H172691   3.044   3.047   1.886  0.9584 -0.9990  0.3928
17092TIP3    H272692   2.938   2.941   1.902 -0.7669  0.6746  0.2976
17093TIP3   OH272693   5.437   3.529   2.037 -0.0783 -0.9102 -0.0136
17093TIP3    H172694   5.508   3.590   2.059 -0.7751 -0.1829  0.2544
17093TIP3    H272695   5.446   3.458   2.101  0.1269 -0.5872  0.3246
17094TIP3   OH272696   0.957   2.208   3.111  0.3648  0.1697 -0.1403
17094TIP3    H172697   0.896   2.274   3.141  1.4277  0.3176  1.8615
17094TIP3    H272698   1.037   2.257   3.090 -0.0108 -0.0519 -2.4479
17095TIP3   OH272699   4.280   2.299   2.254  0.8819 -0.1555  0.0051
17095TIP3    H172700   4.195   2.308   2.212  0.0260 -1.8827  1.2323
17095TIP3    H272701   4.288   2.378   2.308  0.3323  0.2999 -0.5688
17096TIP3   OH272702   1.571   5.862  16.481  0.0425 -0.3481  0.2612
17096TIP3    H172703   1.530   5.878  16.565 -1.5344  0.5232 -0.6315
17096TIP3    H272704   1.503   5.881  16.416  1.0607 -1.4357 -1.2063
17097TIP3   OH272705   4.712   3.887   0.905 -0.3993 -0.1174  0.2607
17097TIP3    H172706   4.800   3.902   0.938 -0.2525  0.0814 -0.2228
17097TIP3    H272707   4.690   3.799   0.937  0.8023 -1.0722 -1.3795
17098TIP3   OH272708   3.015   2.349   0.565 -0.5023 -0.4007 -0.1309
17098TIP3    H172709   3.023   2.271   0.510 -2.5160 -1.2663  0.7161
17098TIP3    H272710   2.931   2.387   0.540  0.2707  1.3405 -0.2596
17099TIP3   OH272711   3.523   3.256   0.635 -0.0380  0.1512  0.0518
17099TIP3    H172712   3.460   3.275   0.706 -1.5846 -1.3472 -0.8502
17099TIP3    H272713   3.485   3.298   0.558  0.6267  0.1409 -0.2820
17100TIP3   OH272714   6.696   2.571  13.101 -0.2252  1.0667 -0.1805
17100TIP3    H172715   6.629   2.630  13.066 -0.1106  0.9249 -0.6488
17100TIP3    H272716   6.727   2.614  13.181  0.2950  1.9499 -0.8422
17101TIP3   OH272717   4.086   2.178   1.236  0.7346 -0.0573 -0.3022
17101TIP3    H172718   4.062   2.118   1.307  0.3729  2.1173  1.5127
17101TIP3    H272719   4.008   2.182   1.181 -0.1587  0.6360  0.9699
17102TIP3   OH272720   4.646   2.257  12.368  0.3562  0.4188  0.1752
17102TIP3    H172721   4.605   2.265  12.282 -0.0881  2.2855  0.5316
17102TIP3    H272722   4.733   2.297  12.357  0.6444 -0.1418  0.3765
17103TIP3   OH272723   6.600   6.290  14.736 -0.2191  0.7047  0.6647
17103TIP3    H172724   6.541   6.364  14.720  0.5729  0.9580 -1.4026
17103TIP3    H272725   6.543   6.222  14.772 -1.3116  1.6955  0.9040
17104TIP3   OH272726   4.127   6.514   3.910  0.5024 -0.2647 -0.0595
17104TIP3    H172727   4.127   6.419   3.922  0.4981 -0.2155  0.3379
17104TIP3    H272728   4.135   6.549   3.998  0.7624  0.1028 -0.2293
17105TIP3   OH272729   0.707   5.972   6.621  0.0933  0.3094 -0.2179
17105TIP3    H172730   0.734   5.948   6.709  0.9847  0.7334 -0.3602
17105TIP3    H272731   0.767   6.044   6.596 -1.9161  2.1121 -0.1192
17106TIP3   OH272732   5.687   3.060   4.781 -0.2119  0.0976 -0.4998
17106TIP3    H172733   5.657   3.111   4.857  1.5186 -0.2777  0.4739
17106TIP3    H272734   5.732   3.124   4.726 -1.4248  0.3598 -1.2278
17107TIP3   OH272735   6.256   1.006  11.513 -0.4534  0.7579 -0.2536
17107TIP3    H172736   6.273   1.088  11.466  1.1159  0.3419 -0.4748
17107TIP3    H272737   6.248   1.033  11.605  1.4887  1.0403 -0.1217
17108TIP3   OH272738   3.463   0.129  11.990 -0.1864 -0.2109 -0.2388
17108TIP3    H172739   3.437   0.041  12.018  0.6754 -0.9062 -1.5257
17108TIP3    H272740   3.399   0.187  12.032  0.3087 -1.2603  2.1354
17109TIP3   OH272741   4.055   2.154  11.082  0.1080  0.7649  0.2139
17109TIP3    H172742   4.126   2.161  11.146 -0.3663 -0.0985  0.8687
17109TIP3    H272743   4.095   2.109  11.007  0.2544  0.2391  0.5985
17110TIP3   OH272744   0.555   0.825   5.605 -0.1477 -0.3910 -0.6369
17110TIP3    H172745   0.609   0.900   5.628 -2.1294  0.5788  1.2197
17110TIP3    H272746   0.615   0.751   5.604  1.2462  0.6376  1.2697
17111TIP3   OH272747   3.960   6.511  12.292 -0.0707 -0.1562 -0.2097
17111TIP3    H172748   3.952   6.460  12.373  0.1585 -1.0983 -0.7557
17111TIP3    H272749   3.874   6.502  12.251  0.4487 -1.4785 -1.0720
17112TIP3   OH272750   5.947   2.388   2.145 -0.4979  0.5859 -0.0182
17112TIP3    H172751   5.919   2.421   2.230 -1.9487 -0.6025  0.0154
17112TIP3    H272752   6.029   2.341   2.163  1.4478  3.6858 -0.0297
17113TIP3   OH272753   4.161   6.463  15.575  0.0132  0.1402  0.1110
17113TIP3    H172754   4.126   6.514  15.502 -1.1628 -0.0152  0.5416
17113TIP3    H272755   4.103   6.483  15.648  1.1376  0.2439  0.9937
17114TIP3   OH272756   4.785   4.762   0.162  0.7437 -0.0199 -0.3967
17114TIP3    H172757   4.773   4.738   0.254 -0.5262 -0.2446 -0.6080
17114TIP3    H272758   4.778   4.857   0.161  1.2361  0.0215 -0.1995
17115TIP3   OH272759   6.766   3.563  11.046 -0.5368  0.2539  0.1201
17115TIP3    H172760   6.720   3.504  10.986  1.4939 -0.7717 -0.5529
17115TIP3    H272761   6.799   3.633  10.989  0.7660 -0.3279  0.1194
17116TIP3   OH272762   5.120   5.343  12.711  0.1239 -0.7955  0.3648
17116TIP3    H172763   5.184   5.278  12.742  1.6611 -0.1829 -1.3159
17116TIP3    H272764   5.136   5.348  12.617  0.9503  2.8736  0.5743
17117TIP3   OH272765   5.047   4.725  11.170  0.1171  0.0087  0.7580
17117TIP3    H172766   5.024   4.732  11.077  1.3235 -2.0984  0.2300
17117TIP3    H272767   5.138   4.755  11.175  0.5508 -1.2567  0.9526
17118TIP3   OH272768   6.748   0.974  11.478 -0.3691  0.1107 -0.7426
17118TIP3    H172769   6.774   1.040  11.541 -1.0351  0.3946 -0.7586
17118TIP3    H272770   6.816   0.907  11.483  0.6409  1.0793 -1.1603
17119TIP3   OH272771   0.141   0.052  14.574 -0.4188  0.0406  0.3112
17119TIP3    H172772   0.209  -0.015  14.576 -1.7568 -1.3854  0.2388
17119TIP3    H272773   0.188   0.135  14.562  1.3073 -0.8381  0.7493
17120TIP3   OH272774   2.467   5.627  14.851  0.5045  0.0024 -0.2668
17120TIP3    H172775   2.465   5.694  14.782 -0.8193  0.3833  0.1161
17120TIP3    H272776   2.390   5.573  14.834  0.5943 -0.3597  0.4583
17121TIP3   OH272777   2.197   4.035  12.207 -0.3347 -0.6916 -0.4800
17121TIP3    H172778   2.225   3.959  12.156  0.5417 -1.3119  0.8705
17121TIP3    H272779   2.172   3.998  12.292  1.3518  0.6233  0.6556
17122TIP3   OH272780   0.967   2.126  13.227  0.5383 -0.0161  0.3761
17122TIP3    H172781   0.879   2.089  13.215  0.2357  0.2958  1.5005
17122TIP3    H272782   0.954   2.220  13.223  0.9934  0.0238 -0.4435
17123TIP3   OH272783   3.732   0.900   3.341 -0.2893 -0.3830  0.3583
17123TIP3    H172784   3.653   0.868   3.297 -0.6235  0.9709 -0.0930
17123TIP3    H272785   3.758   0.829   3.399 -2.4518 -0.4802  1.3043
17124TIP3   OH272786   4.196   2.962   0.970  0.2396 -0.1659  0.7363
17124TIP3    H172787   4.116   2.924   0.933 -0.3932 -0.5495  2.4040
17124TIP3    H272788   4.165   3.034   1.025  1.2042  0.8561 -0.0111
17125TIP3   OH272789   0.373   2.293   1.880  0.0705 -0.3936  0.1667
17125TIP3    H172790   0.419   2.367   1.920 -0.8046  0.1458  0.2192
17125TIP3    H272791   0.331   2.248   1.954 -1.0282  0.2325 -0.0570
17126TIP3   OH272792   4.018   6.288  11.938 -0.4315  0.0240 -0.3798
17126TIP3    H172793   3.966   6.210  11.918  0.8398 -0.9256 -0.0913
17126TIP3    H272794   4.092   6.283  11.877 -0.5900  1.2798 -0.6950
17127TIP3   OH272795   5.368   4.575  13.708  0.0779 -0.1486  0.3211
17127TIP3    H172796   5.406   4.654  13.746 -0.5031  0.0249  0.5584
17127TIP3    H272797   5.336   4.604  13.622 -0.6626  0.0334  0.6443
17128TIP3   OH272798   2.409   2.096   6.392 -0.0133  0.7545  0.4756
17128TIP3    H172799   2.470   2.158   6.353 -0.3830  0.3942 -0.7102
17128TIP3    H272800   2.322   2.134   6.376 -0.3024 -0.4747 -1.0599
17129TIP3   OH272801   3.298   6.062  14.052 -0.2669  0.5095 -0.2048
17129TIP3    H172802   3.233   6.130  14.037  0.5246  1.3312  0.0190
17129TIP3    H272803   3.382   6.103  14.033  0.1633 -0.7291 -1.1551
17130TIP3   OH272804   0.549   3.444  14.476 -0.5358  0.2039 -0.1456
17130TIP3    H172805   0.571   3.488  14.558  0.3811 -2.2808  1.0505
17130TIP3    H272806   0.495   3.370  14.503  1.8232 -2.1291 -1.3999
17131TIP3   OH272807   1.861   6.116  11.605 -0.5881 -1.2679  0.1772
17131TIP3    H172808   1.801   6.181  11.641 -1.1169 -1.5161 -0.2455
17131TIP3    H272809   1.937   6.119  11.664  0.5440  1.5280 -1.2596
17132TIP3   OH272810   5.364   1.844   5.093 -0.2566 -0.1026 -0.2747
17132TIP3    H172811   5.395   1.852   5.183 -3.3322  1.4619  0.7644
17132TIP3    H272812   5.412   1.769   5.058  0.7988 -0.9784  2.7299
17133TIP3   OH272813   4.097   2.361   4.263  0.0319  0.2574 -0.7986
17133TIP3    H172814   4.147   2.429   4.308 -1.0853  0.9138 -0.5097
17133TIP3    H272815   4.064   2.403   4.183 -0.5262  0.0143 -0.7031
17134TIP3   OH272816   5.585   2.514  13.303 -0.1406 -0.2113 -0.3986
17134TIP3    H172817   5.501   2.507  13.348 -0.0791  0.8343 -0.1091
17134TIP3    H272818   5.646   2.464  13.358 -0.7219 -1.6957 -1.0534
17135TIP3   OH272819   4.703   4.873  15.850 -0.1772 -0.6995  0.2405
17135TIP3    H172820   4.760   4.814  15.900 -1.3330  0.6734  3.4918
17135TIP3    H272821   4.639   4.815  15.809 -1.2725 -1.8891  3.3039
17136TIP3   OH272822   5.383   5.754   0.728  0.0195 -0.5464  0.4721
17136TIP3    H172823   5.403   5.846   0.742  0.1388 -0.4516 -0.2504
17136TIP3    H272824   5.307   5.755   0.670  1.7353 -0.8402 -1.9791
17137TIP3   OH272825   2.847   0.298  16.594 -0.5001 -0.4194 -0.2377
17137TIP3    H172826   2.850   0.235  16.523 -0.4134  0.4252 -1.0023
17137TIP3    H272827   2.767   0.349  16.578 -0.1292  0.2103 -0.1174
17138TIP3   OH272828   0.217   1.793  14.830 -0.3133  0.4606 -0.5616
17138TIP3    H172829   0.295   1.845  14.809  0.0011  0.8326  1.3121
17138TIP3    H272830   0.230   1.710  14.784  2.0344 -0.1279  0.9917
17139TIP3   OH272831   2.775   1.561  15.755  0.2968  0.3691 -0.0933
17139TIP3    H172832   2.844   1.496  15.768  1.3561  1.6284  0.8081
17139TIP3    H272833   2.821   1.643  15.741 -1.0180  1.0924 -0.3575
17140TIP3   OH272834   0.994   3.661  15.683 -0.4382 -0.4227 -0.4797
17140TIP3    H172835   0.988   3.669  15.588  0.7612 -0.6250 -0.5930
17140TIP3    H272836   1.082   3.692  15.705 -0.5533 -0.7332  0.5184
17141TIP3   OH272837   2.205   1.952  14.906  0.4276  0.6038  0.7259
17141TIP3    H172838   2.208   1.934  14.812 -0.9690  1.0605  0.5638
17141TIP3    H272839   2.131   1.900  14.938  1.3397 -0.1365  1.7396
17142TIP3   OH272840   2.662   6.211   2.909  0.0538  0.0538  0.3401
17142TIP3    H172841   2.695   6.243   2.993 -0.2064  0.5375  0.2598
17142TIP3    H272842   2.710   6.262   2.844  1.0582 -1.0729  0.1541
17143TIP3   OH272843   2.247   2.246   0.791  0.0005 -0.2145 -0.5288
17143TIP3    H172844   2.261   2.199   0.873 -0.0389 -1.1310 -1.0331
17143TIP3    H272845   2.173   2.201   0.750 -0.3346  0.5767 -0.8244
17144TIP3   OH272846   0.068   3.432   4.847  0.5728  0.3673  0.1716
17144TIP3    H172847   0.113   3.484   4.913  1.5221 -0.2905  0.0664
17144TIP3    H272848  -0.021   3.421   4.881  1.2651 -0.6813  1.7945
17145TIP3   OH272849   1.550   3.744   3.214  0.1024 -0.2732 -0.0107
17145TIP3    H172850   1.476   3.713   3.266 -0.7906  0.0779 -1.0248
17145TIP3    H272851   1.621   3.757   3.277 -0.8387 -0.1860  1.0539
17146TIP3   OH272852   6.348   1.326   0.416 -0.3650  0.2883  0.1600
17146TIP3    H172853   6.428   1.284   0.385 -1.2138 -0.0930 -1.6819
17146TIP3    H272854   6.364   1.344   0.508  1.1947 -1.2840  0.2441
17147TIP3   OH272855   1.103   6.198  15.157  0.0068 -0.3804 -0.5650
17147TIP3    H172856   1.144   6.284  15.146 -1.5187  0.3261 -0.9962
17147TIP3    H272857   1.134   6.167  15.242  0.4505  0.6701 -0.3290
17148TIP3   OH272858   4.957   0.445  11.779 -0.1310 -0.2029  0.1856
17148TIP3    H172859   5.008   0.364  11.782 -1.1747 -0.8794 -0.0033
17148TIP3    H272860   4.991   0.491  11.702  0.4468 -0.4736  0.2739
17149TIP3   OH272861   3.111   4.936  17.276 -0.4267 -0.0653  0.1429
17149TIP3    H172862   3.071   4.892  17.351  0.4811 -0.7875  0.2093
17149TIP3    H272863   3.074   4.892  17.200 -1.2689  0.6000  0.1438
17150TIP3   OH272864   2.280   4.362   2.679 -0.6246 -0.8439 -0.5034
17150TIP3    H172865   2.345   4.431   2.691 -1.9542  0.2323  1.1938
17150TIP3    H272866   2.215   4.401   2.620 -2.0062 -0.0533  1.4094
17151TIP3   OH272867   1.740   1.764   5.278  0.2360 -0.3382 -0.0759
17151TIP3    H172868   1.787   1.682   5.263  0.2702 -0.0598 -1.7221
17151TIP3    H272869   1.791   1.829   5.229 -1.1474  0.2039 -0.8402
17152TIP3   OH272870   0.810   2.934   0.631 -0.2057 -0.1127  0.2523
17152TIP3    H172871   0.841   2.994   0.699  0.8842 -0.6744  0.2800
17152TIP3    H272872   0.790   2.991   0.556  1.4722  0.2484  0.0409
17153TIP3   OH272873   4.818   4.486   2.927 -0.2347  0.0135 -0.0608
17153TIP3    H172874   4.881   4.455   2.992 -0.8290  1.9037  1.5271
17153TIP3    H272875   4.777   4.406   2.893  0.5715 -1.0741  1.4028
17154TIP3   OH272876   6.130   0.659   4.613  0.2921 -0.6523  0.2765
17154TIP3    H172877   6.103   0.632   4.526 -0.7070 -0.8148  0.6235
17154TIP3    H272878   6.055   0.640   4.669  1.0622 -0.9278  1.2500
17155TIP3   OH272879   0.705   3.407   0.506  0.2126  0.1421  0.3086
17155TIP3    H172880   0.614   3.385   0.488 -0.0051  0.8451  0.5276
17155TIP3    H272881   0.721   3.487   0.455  0.7485 -0.0546  0.1602
17156TIP3   OH272882   5.651   5.633   2.712  0.2596  1.0439 -0.1238
17156TIP3    H172883   5.714   5.618   2.782  0.8597 -0.2655 -0.9137
17156TIP3    H272884   5.632   5.727   2.716  2.2101  1.4580  0.1666
17157TIP3   OH272885   1.744   5.737  14.045  0.0523 -0.6586 -0.2935
17157TIP3    H172886   1.746   5.652  14.001 -0.0789  0.0903 -1.8157
17157TIP3    H272887   1.751   5.716  14.138  0.6812 -2.2883 -0.6754
17158TIP3   OH272888   2.400   3.994  14.641  0.6862  0.4948  0.7445
17158TIP3    H172889   2.485   3.964  14.608  0.4948 -0.0246  0.7225
17158TIP3    H272890   2.365   3.920  14.690 -0.2315  0.3335 -0.1318
17159TIP3   OH272891   5.465   1.414   5.678 -0.2918  1.0658 -0.3459
17159TIP3    H172892   5.456   1.319   5.666  1.4197  0.9732 -1.1374
17159TIP3    H272893   5.407   1.452   5.613 -0.8286  0.5671 -0.1689
17160TIP3   OH272894   1.455   6.670  14.395  0.2138 -0.0890 -0.4831
17160TIP3    H172895   1.380   6.695  14.341 -0.6791 -2.2623 -0.3544
17160TIP3    H272896   1.447   6.575  14.406  1.3796 -0.0103  1.9412
17161TIP3   OH272897   1.954   5.674   5.341  0.3753  0.1981 -0.2385
17161TIP3    H172898   1.915   5.586   5.338  0.7234 -0.0286  1.0140
17161TIP3    H272899   2.045   5.660   5.317  0.1513  0.4146 -1.2266
17162TIP3   OH272900   5.543   4.964  15.169  0.0983 -0.1498 -0.2043
17162TIP3    H172901   5.497   5.036  15.126  1.3164 -0.1712 -1.6022
17162TIP3    H272902   5.598   5.007  15.234 -2.2426 -0.1634  1.9519
17163TIP3   OH272903   3.260   4.177  13.001 -0.2959 -0.7904  0.0368
17163TIP3    H172904   3.180   4.163  12.951  0.3593  0.1088 -1.3424
17163TIP3    H272905   3.250   4.265  13.038 -0.5804 -1.2735  1.1467
17164TIP3   OH272906   6.408   2.341   4.267 -0.0340  0.2013  0.1736
17164TIP3    H172907   6.438   2.321   4.178 -1.2812  1.0419 -0.4801
17164TIP3    H272908   6.322   2.382   4.254  0.2324  1.3341  1.7112
17165TIP3   OH272909   4.136   5.351   1.796 -0.3567 -0.2107 -0.1218
17165TIP3    H172910   4.226   5.334   1.766  0.1425 -0.0728  1.2482
17165TIP3    H272911   4.085   5.358   1.715  0.7875 -0.7030 -0.9133
17166TIP3   OH272912   3.430   3.140   3.845 -0.3319 -0.2136 -0.1340
17166TIP3    H172913   3.391   3.170   3.927  1.3456  1.5609  0.0824
17166TIP3    H272914   3.524   3.135   3.863  0.1346  0.6379 -2.0446
17167TIP3   OH272915   4.683   4.748  10.909 -0.0477 -0.4982  0.6526
17167TIP3    H172916   4.700   4.664  10.952 -0.1897 -1.7800 -1.6584
17167TIP3    H272917   4.768   4.790  10.903 -0.0777 -0.1030  2.4735
17168TIP3   OH272918   2.230   4.295  13.494  0.3000 -0.1513 -0.0247
17168TIP3    H172919   2.263   4.247  13.418  0.8978  0.0882  0.0837
17168TIP3    H272920   2.135   4.289  13.485  0.3626 -0.9790 -0.2514
17169TIP3   OH272921   6.213   1.518   1.445  0.1953 -0.8111  0.3820
17169TIP3    H172922   6.130   1.564   1.431  0.9414 -0.0385 -1.9604
17169TIP3    H272923   6.203   1.435   1.399  0.9360 -0.4403 -0.4672
17170TIP3   OH272924   2.285   5.129  15.655  0.0421  0.2514  0.2865
17170TIP3    H172925   2.258   5.038  15.672 -0.7898  0.6656  1.2734
17170TIP3    H272926   2.367   5.140  15.703  1.0900 -0.4786 -1.2600
17171TIP3   OH272927   5.481   5.703  16.553 -0.2173  0.0863  0.0721
17171TIP3    H172928   5.472   5.799  16.552 -0.0809  0.1253  1.4258
17171TIP3    H272929   5.572   5.688  16.578 -0.2513 -0.4058 -0.1033
17172TIP3   OH272930   5.868   5.998  12.739  0.0938  0.0068 -0.0582
17172TIP3    H172931   5.868   5.973  12.647 -1.6544  0.9250 -0.3419
17172TIP3    H272932   5.877   6.093  12.738  0.9384 -0.0541  0.7670
17173TIP3   OH272933   3.083   6.550   0.798 -0.0392  0.6237 -0.3588
17173TIP3    H172934   3.057   6.517   0.711 -1.3282  1.0058 -0.1488
17173TIP3    H272935   3.031   6.497   0.859  2.0770 -0.7938  0.3177
17174TIP3   OH272936   3.809   1.529   0.269 -0.1606  0.1132 -0.3599
17174TIP3    H172937   3.771   1.506   0.355 -0.8735  0.2259 -0.6377
17174TIP3    H272938   3.740   1.507   0.206  0.6970 -0.8311 -0.9928
17175TIP3   OH272939   0.040   1.467  10.805 -0.3930  0.0788 -0.1947
17175TIP3    H172940   0.134   1.484  10.798 -0.1219 -0.6974  1.1492
17175TIP3    H272941  -0.001   1.553  10.793  0.5345  0.5474 -0.1012
17176TIP3   OH272942   5.185   0.747  15.777  0.7733  0.1768 -0.3986
17176TIP3    H172943   5.247   0.712  15.840  2.3435  1.1878 -1.3068
17176TIP3    H272944   5.201   0.842  15.777 -0.4315  0.4027 -1.0132
17177TIP3   OH272945   3.397   3.205  11.400 -0.4715 -0.4783  0.3018
17177TIP3    H172946   3.411   3.114  11.374 -2.1386 -0.5511 -0.4879
17177TIP3    H272947   3.353   3.199  11.484 -0.9977 -0.4267  0.0345
17178TIP3   OH272948   4.114   2.005   4.511 -0.3261  0.0152  0.7740
17178TIP3    H172949   4.087   2.030   4.599  1.0220  0.9442  0.9607
17178TIP3    H272950   4.209   2.021   4.510 -0.6106  2.1264 -1.4940
17179TIP3   OH272951   3.913   6.005  11.936  0.1503 -0.2232 -0.3183
17179TIP3    H172952   3.871   5.919  11.939 -2.6923  0.9591 -1.9086
17179TIP3    H272953   3.921   6.031  12.028  0.0192 -1.7115  0.1319
17180TIP3   OH272954   4.676   1.108  12.106 -0.3687  0.0007  0.3272
17180TIP3    H172955   4.717   1.176  12.052  0.1567  0.2885  1.0652
17180TIP3    H272956   4.606   1.073  12.051 -1.1281  1.6278  0.1834
17181TIP3   OH272957   0.975   3.109   5.572  0.4240 -0.3300 -0.0216
17181TIP3    H172958   1.045   3.132   5.633 -0.5180  0.5542  0.7415
17181TIP3    H272959   0.894   3.127   5.619 -0.3659  2.0579 -2.0774
17182TIP3   OH272960   3.313   5.595   2.813  0.6167 -0.1960 -0.5534
17182TIP3    H172961   3.265   5.614   2.894 -0.4286  0.6758 -1.3335
17182TIP3    H272962   3.359   5.513   2.830 -2.6210 -2.1436 -0.3462
17183TIP3   OH272963   5.217   2.952  10.621 -0.1760 -0.6455  0.4994
17183TIP3    H172964   5.249   2.868  10.652 -1.0402 -1.5488 -0.9676
17183TIP3    H272965   5.139   2.931  10.570 -0.2638  1.0097 -0.1117
17184TIP3   OH272966   4.103   2.304   3.715  0.1029 -0.4003  0.0210
17184TIP3    H172967   4.100   2.347   3.630  2.6769  0.0592  0.0908
17184TIP3    H272968   4.128   2.214   3.696  0.7111 -0.2893  0.2839
17185TIP3   OH272969   5.241   4.950   6.996  0.1766 -0.4367 -0.2665
17185TIP3    H172970   5.211   5.038   6.973  1.3710  0.0905  0.0970
17185TIP3    H272971   5.181   4.891   6.951 -0.4823  0.5690 -0.7294
17186TIP3   OH272972   0.518   3.047  12.348  0.3298  0.2409 -0.2177
17186TIP3    H172973   0.457   3.112  12.385 -0.3156 -1.0640  1.1263
17186TIP3    H272974   0.499   3.046  12.255 -1.5023  0.0997  0.1279
17187TIP3   OH272975   2.591   0.522   4.394 -0.2465 -0.0524  0.1201
17187TIP3    H172976   2.522   0.466   4.359 -0.4502 -0.3614  0.9931
17187TIP3    H272977   2.638   0.467   4.457  0.4117  0.3416 -0.0110
17188TIP3   OH272978   0.464   6.059   5.384  0.3805 -0.3627  0.1408
17188TIP3    H172979   0.379   6.077   5.426 -0.4208  0.8517 -1.8362
17188TIP3    H272980   0.475   5.965   5.392 -0.4757 -0.3756  1.6492
17189TIP3   OH272981   4.074   4.574  11.656 -0.3494 -0.6701 -0.4683
17189TIP3    H172982   4.105   4.485  11.673 -1.0858 -0.9094 -0.3244
17189TIP3    H272983   3.992   4.562  11.607 -0.0193 -0.0508 -1.1878
17190TIP3   OH272984   0.828   5.705   1.840  0.3509 -0.2111  0.0558
17190TIP3    H172985   0.883   5.755   1.779  0.4680  0.0098  0.3397
17190TIP3    H272986   0.767   5.770   1.876  1.9294  0.2390  2.1064
17191TIP3   OH272987   3.430   1.619  15.931 -0.1325 -0.4848 -0.1204
17191TIP3    H172988   3.449   1.699  15.883  1.4205 -0.6874  0.1064
17191TIP3    H272989   3.349   1.586  15.892 -1.1122  1.4506  0.1439
17192TIP3   OH272990   0.309   1.736  12.970  0.5314  0.0897 -0.0165
17192TIP3    H172991   0.261   1.803  12.922  1.3280 -0.0219 -1.0120
17192TIP3    H272992   0.401   1.764  12.964  0.8779 -1.1023 -0.4877
17193TIP3   OH272993   3.541   4.654  15.581  0.4376  0.2737 -0.7103
17193TIP3    H172994   3.465   4.685  15.532  1.0256  2.5101 -0.3301
17193TIP3    H272995   3.615   4.672  15.523  0.8502  0.0826 -0.2489
17194TIP3   OH272996   5.471   0.374  14.817 -0.1553 -0.0561  0.5555
17194TIP3    H172997   5.403   0.418  14.766  1.6606 -0.4488 -2.4857
17194TIP3    H272998   5.518   0.444  14.861 -0.7461  0.4954  0.3219
17195TIP3   OH272999   2.367   0.429  12.942 -0.1248  0.0026 -0.0851
17195TIP3    H173000   2.335   0.338  12.942 -0.9127  0.2757 -0.2132
17195TIP3    H273001   2.455   0.422  12.904  0.9620 -1.0732  2.4033
17196TIP3   OH273002   0.237   0.519  13.977 -0.4596 -0.4583  0.6155
17196TIP3    H173003   0.227   0.526  14.072 -1.0446 -2.8692  0.7882
17196TIP3    H273004   0.301   0.448  13.965 -1.1381 -0.8613 -0.7994
17197TIP3   OH273005   5.868   1.277   4.362 -0.2598 -0.1149 -0.2396
17197TIP3    H173006   5.896   1.269   4.271  1.2519  0.5662  0.1280
17197TIP3    H273007   5.773   1.292   4.357  0.0121  1.3433 -1.7867
17198TIP3   OH273008   6.426   5.187   0.329 -0.0342 -0.1825 -0.3103
17198TIP3    H173009   6.518   5.162   0.343  0.7716  2.1749 -0.8460
17198TIP3    H273010   6.397   5.217   0.415 -0.6114 -1.6761  0.0487
17199TIP3   OH273011   3.537   0.460  16.094 -0.1124  0.5827  0.1886
17199TIP3    H173012   3.467   0.521  16.073 -0.4832 -0.0276 -0.3909
17199TIP3    H273013   3.564   0.483  16.183  0.1858  1.9930 -0.2484
17200TIP3   OH273014   0.114   0.297   5.396 -0.2732  0.1097  0.2539
17200TIP3    H173015   0.073   0.293   5.482  0.2732  0.5528  0.5417
17200TIP3    H273016   0.161   0.380   5.396  2.1083 -1.1465  0.6285
17201TIP3   OH273017   6.608   2.389  12.436  0.2562  0.1427 -0.1991
17201TIP3    H173018   6.699   2.360  12.426  0.3241  0.7622 -1.6073
17201TIP3    H273019   6.612   2.484  12.426 -0.5582  0.1727 -0.2604
17202TIP3   OH273020   2.649   3.900   4.328  0.7989  0.0731 -0.4240
17202TIP3    H173021   2.590   3.940   4.264 -1.1141  2.1983  2.4461
17202TIP3    H273022   2.730   3.951   4.321  0.7183  0.1025 -1.2881
17203TIP3   OH273023   2.314   3.843  17.078  0.1835 -0.8773 -0.6569
17203TIP3    H173024   2.349   3.899  17.008  1.9078  1.6261  1.9571
17203TIP3    H273025   2.223   3.872  17.088  0.4444  0.0202 -0.7476
17204TIP3   OH273026   2.152   5.353   3.761 -0.0427  0.2807 -0.0966
17204TIP3    H173027   2.128   5.272   3.716  0.4183  0.1170 -0.0629
17204TIP3    H273028   2.133   5.423   3.699 -0.0095  0.1071 -0.3034
17205TIP3   OH273029   2.059   2.705  10.827 -0.1919 -0.1692  0.3886
17205TIP3    H173030   2.123   2.638  10.803 -0.5072 -0.0336 -0.8854
17205TIP3    H273031   1.996   2.705  10.755 -0.0774  1.6524  0.2438
17206TIP3   OH273032   1.355   4.806  15.536 -0.1710  0.4283  0.2520
17206TIP3    H173033   1.344   4.755  15.456 -0.9726  0.5340  0.2926
17206TIP3    H273034   1.273   4.855  15.545  0.2323  1.0356  0.7001
17207TIP3   OH273035   3.591   2.325   6.000 -0.5894  0.6261 -0.3892
17207TIP3    H173036   3.674   2.279   5.989  0.3709  1.9495  0.8460
17207TIP3    H273037   3.559   2.298   6.086 -0.0921  2.0499  0.2867
17208TIP3   OH273038   4.127   2.311   1.532  0.1850  0.1783 -0.1152
17208TIP3    H173039   4.136   2.231   1.482  0.3370  0.0557  0.1064
17208TIP3    H273040   4.217   2.342   1.545  0.0796  2.1139 -2.9459
17209TIP3   OH273041   1.607   6.503   3.473  0.0169 -0.3128  0.0826
17209TIP3    H173042   1.527   6.458   3.500 -0.8107 -0.0758 -1.8406
17209TIP3    H273043   1.676   6.439   3.488 -0.7059 -1.0279  0.4658
17210TIP3   OH273044   2.632   3.839  11.916 -0.0520  0.2541 -0.3594
17210TIP3    H173045   2.646   3.744  11.915  0.9527  0.3749  0.2853
17210TIP3    H273046   2.644   3.866  11.825  0.6980 -0.1161 -0.3863
17211TIP3   OH273047   4.604   6.764   4.357  0.1340  0.4497 -0.4749
17211TIP3    H173048   4.569   6.813   4.432  1.0420  1.1763 -0.5110
17211TIP3    H273049   4.680   6.814   4.328  0.9501 -0.8460 -0.6799
17212TIP3   OH273050   1.923   6.277  17.123 -0.3572 -0.0291  0.0439
17212TIP3    H173051   1.867   6.338  17.075 -0.0242  1.3334  1.3001
17212TIP3    H273052   1.875   6.259  17.204  1.0439  1.3467  1.2502
17213TIP3   OH273053   2.182   3.697   0.514  0.3951  0.3075 -0.5710
17213TIP3    H173054   2.263   3.740   0.488  0.3689  1.9075  1.6892
17213TIP3    H273055   2.153   3.744   0.592 -0.9299 -2.3503  0.7129
17214TIP3   OH273056   4.821   2.432  14.021 -0.5985 -0.4126  0.0204
17214TIP3    H173057   4.905   2.419  14.064 -1.5326 -1.6221  1.6187
17214TIP3    H273058   4.791   2.344  14.000 -1.7078 -0.0436 -0.0029
17215TIP3   OH273059   2.984   2.969  14.830 -0.0727  0.1273  0.2426
17215TIP3    H173060   2.922   3.034  14.798 -0.3591 -1.0706 -1.8651
17215TIP3    H273061   2.930   2.895  14.858  0.3219 -0.5519 -0.7159
17216TIP3   OH273062   5.717   2.385  14.385 -0.0387  0.1122  0.4390
17216TIP3    H173063   5.771   2.431  14.449 -0.2643 -0.4103  1.0059
17216TIP3    H273064   5.747   2.420  14.300  1.1805 -0.1565  0.7341
17217TIP3   OH273065   1.340   1.057  12.567 -0.1493 -0.3813 -0.4479
17217TIP3    H173066   1.329   1.100  12.652  0.4912 -0.0631 -0.5139
17217TIP3    H273067   1.373   0.970  12.589  1.6704  0.2601 -0.3843
17218TIP3   OH273068   4.466   3.055  12.037 -0.3887  0.4248  0.2269
17218TIP3    H173069   4.508   3.138  12.017 -0.9941  0.4853 -0.8446
17218TIP3    H273070   4.454   3.013  11.952 -1.8671  0.1118  0.5595
17219TIP3   OH273071   0.229   2.538  13.256 -0.3175 -0.0668  0.6770
17219TIP3    H173072   0.166   2.606  13.233 -0.1640  0.0594  0.6184
17219TIP3    H273073   0.312   2.571  13.220 -0.2218 -0.2312  0.7488
17220TIP3   OH273074   4.414   3.964   1.868 -0.4322  0.3840  0.3642
17220TIP3    H173075   4.428   3.918   1.785 -1.0049  1.3008 -0.2588
17220TIP3    H273076   4.329   4.006   1.858 -0.3730  0.7469  1.3090
17221TIP3   OH273077   0.859   0.559   0.554  0.3415 -0.0130 -0.1170
17221TIP3    H173078   0.807   0.631   0.520 -0.3695  0.2595  1.4946
17221TIP3    H273079   0.830   0.482   0.504 -0.1875  0.4859 -0.5771
17222TIP3   OH273080   2.874   6.600   1.322  0.1833  0.3396  0.3913
17222TIP3    H173081   2.892   6.689   1.293 -0.7316 -0.0596 -1.6186
17222TIP3    H273082   2.786   6.604   1.359 -0.2342  0.1298 -0.5456
17223TIP3   OH273083   2.114   0.913  13.420  0.1206  0.3384 -0.7507
17223TIP3    H173084   2.073   0.851  13.481 -0.6203  0.6838 -0.8817
17223TIP3    H273085   2.208   0.900  13.432  0.0143 -1.9234 -1.9089
17224TIP3   OH273086   5.814   5.905   2.751  0.4345  0.2071 -0.0822
17224TIP3    H173087   5.790   5.985   2.797  1.1193  0.0777  0.5169
17224TIP3    H273088   5.846   5.846   2.820 -0.9766 -0.9455 -0.3834
17225TIP3   OH273089   1.937   3.252  14.490 -0.5402  0.1054 -0.7927
17225TIP3    H173090   1.980   3.196  14.426 -0.6255 -0.0150 -0.7455
17225TIP3    H273091   1.989   3.243  14.569 -0.5031  0.1622 -0.8109
17226TIP3   OH273092   4.935   5.644   5.837 -0.2188 -0.2786 -0.0314
17226TIP3    H173093   4.926   5.560   5.881  0.4916 -0.9424 -1.1152
17226TIP3    H273094   4.960   5.705   5.906 -2.3525 -0.5754  1.0896
17227TIP3   OH273095   0.683   0.228   0.211  0.3091  0.1206  0.3344
17227TIP3    H173096   0.686   0.290   0.138 -0.8390  0.8213  0.8429
17227TIP3    H273097   0.696   0.142   0.171  2.3077  0.6938 -0.3461
17228TIP3   OH273098   3.836   1.835   2.287  0.1642 -0.2245  0.1488
17228TIP3    H173099   3.888   1.915   2.281  1.6170 -1.0856  0.8426
17228TIP3    H273100   3.780   1.837   2.209  2.3578 -0.0314 -1.5004
17229TIP3   OH273101   3.433   4.039   3.065  0.4780  0.2262  0.4892
17229TIP3    H173102   3.494   4.020   2.994  0.6313  2.9471 -0.2516
17229TIP3    H273103   3.405   4.129   3.048 -0.2911  0.6162  3.3194
17230TIP3   OH273104   0.294   0.271   1.733  0.8633  0.0463  0.1008
17230TIP3    H173105   0.309   0.350   1.785 -0.4580  2.5372 -2.9490
17230TIP3    H273106   0.334   0.290   1.649 -0.8325 -1.8916 -1.2361
17231TIP3   OH273107   2.459   6.676   2.001 -0.1943  0.5019 -0.8607
17231TIP3    H173108   2.539   6.623   2.004 -0.8434 -0.4662 -0.1449
17231TIP3    H273109   2.443   6.689   1.908 -0.3163 -1.0657 -1.0920
17232TIP3   OH273110   1.151   5.073  13.110  0.0051 -0.3429  0.3713
17232TIP3    H173111   1.057   5.065  13.095  0.0583  0.1171 -0.2118
17232TIP3    H273112   1.165   5.167  13.119  0.3915 -0.4229  0.5898
17233TIP3   OH273113   0.942   4.891   0.610  1.0813 -0.2835 -0.3067
17233TIP3    H173114   0.888   4.822   0.572  0.7869 -1.8032  2.6069
17233TIP3    H273115   0.892   4.971   0.596  0.2699 -0.9977 -1.6594
17234TIP3   OH273116   6.196   4.759   5.692 -0.5253  0.7730 -1.0005
17234TIP3    H173117   6.133   4.732   5.759 -1.0230 -0.2244 -1.8331
17234TIP3    H273118   6.280   4.761   5.737 -0.7343 -0.6106 -0.5025
17235TIP3   OH273119   3.540   2.504  13.444 -0.0135 -0.0720 -0.0331
17235TIP3    H173120   3.574   2.578  13.495 -1.2383  1.0500 -0.7798
17235TIP3    H273121   3.459   2.537  13.406  0.0505 -1.4109 -1.3975
17236TIP3   OH273122   3.902   3.714  15.000 -0.5823  0.2583  0.1329
17236TIP3    H173123   3.821   3.707  15.051 -0.4246  0.8892  0.4790
17236TIP3    H273124   3.873   3.707  14.909 -1.0082  0.3376  0.2585
17237TIP3   OH273125   1.487   6.574  13.953 -0.1495  0.7679  0.1447
17237TIP3    H173126   1.397   6.606  13.939 -0.7820 -1.1168 -0.3584
17237TIP3    H273127   1.525   6.571  13.865 -0.3577 -0.5562  0.0925
17238TIP3   OH273128   4.813   3.753  11.175 -0.4493 -0.2848 -0.0148
17238TIP3    H173129   4.830   3.833  11.125 -0.1028 -0.7198 -0.6134
17238TIP3    H273130   4.875   3.756  11.248 -2.4012  1.4286  1.7133
17239TIP3   OH273131   1.546   6.059   3.331  0.2634 -0.1253 -0.4310
17239TIP3    H173132   1.478   6.007   3.373  1.5379 -0.2547  1.6218
17239TIP3    H273133   1.585   6.001   3.266 -0.2624 -0.7199 -0.2163
17240TIP3   OH273134   0.445   3.310  15.260 -0.7436 -0.1853  0.3151
17240TIP3    H173135   0.417   3.223  15.232 -1.4393  0.3067 -0.5727
17240TIP3    H273136   0.372   3.368  15.237 -0.5619  0.5388  1.4875
17241TIP3   OH273137   1.627   6.144  14.432 -0.4374 -0.7087  0.6831
17241TIP3    H173138   1.628   6.050  14.416  2.4756 -0.9754  1.8266
17241TIP3    H273139   1.538   6.163  14.460 -1.2806 -2.9743 -0.2503
17242TIP3   OH273140   4.267   2.543   1.352 -0.4683 -0.1500 -0.5587
17242TIP3    H173141   4.361   2.524   1.352 -0.2275  0.9918 -0.9086
17242TIP3    H273142   4.259   2.629   1.311 -1.4329  0.9199  1.6709
17243TIP3   OH273143   5.661   4.360  17.304  0.8997 -0.0991 -0.1496
17243TIP3    H173144   5.660   4.269  17.335  0.7874  0.1804  0.6733
17243TIP3    H273145   5.746   4.394  17.332  1.2082 -0.1286 -1.0103
17244TIP3   OH273146   0.190   0.046   0.871 -0.1853 -0.5145 -0.1642
17244TIP3    H173147   0.111  -0.002   0.852  1.2095 -2.2863 -1.8736
17244TIP3    H273148   0.198   0.110   0.799  0.1698 -0.6682 -0.2657
17245TIP3   OH273149   1.742   1.723  12.880  0.1152 -0.7383  0.3474
17245TIP3    H173150   1.824   1.770  12.862 -0.2829 -0.4288 -0.7623
17245TIP3    H273151   1.754   1.638  12.837  0.3882 -1.2278  1.3745
17246TIP3   OH273152   2.172   3.075   2.243  0.6384  0.3587 -0.2347
17246TIP3    H173153   2.252   3.077   2.294 -1.1217  0.3567  2.7565
17246TIP3    H273154   2.142   3.166   2.242  0.0865  0.1847 -0.2775
17247TIP3   OH273155   3.825   6.463   3.746  0.4167 -0.4899  0.5215
17247TIP3    H173156   3.920   6.467   3.756  0.5073 -1.8018  0.3404
17247TIP3    H273157   3.804   6.370   3.759 -0.6726 -0.4518 -0.8455
17248TIP3   OH273158   3.370   1.469  12.799  0.1923  0.7391  0.0678
17248TIP3    H173159   3.305   1.407  12.829  0.9542 -0.2657 -0.2922
17248TIP3    H273160   3.321   1.533  12.748 -0.9577  1.8103  2.3662
17249TIP3   OH273161   2.703   2.579  14.276  0.0948  0.1614  0.3389
17249TIP3    H173162   2.703   2.675  14.278  0.1772  0.1569  0.5209
17249TIP3    H273163   2.764   2.553  14.345 -0.6983 -0.0372  0.9781
17250TIP3   OH273164   5.972   2.063  10.746 -0.1244  0.3227 -0.4629
17250TIP3    H173165   6.002   2.153  10.763  1.7754 -0.5360  1.0393
17250TIP3    H273166   6.053   2.014  10.728 -0.8791 -1.5458  0.9441
17251TIP3   OH273167   6.005   2.632   1.174 -0.7450 -0.6968 -0.2180
17251TIP3    H173168   6.060   2.710   1.176 -0.0031 -1.1980  1.8815
17251TIP3    H273169   5.924   2.659   1.218 -0.6732 -0.9884  0.0907
17252TIP3   OH273170   1.728   6.565  12.084  0.5037  0.0385  0.6234
17252TIP3    H173171   1.757   6.622  12.013  0.4189  0.7678  1.1686
17252TIP3    H273172   1.667   6.618  12.135 -0.0021 -0.7176  0.8307
17253TIP3   OH273173   0.022   2.810   1.190  0.2284  0.2750 -0.1457
17253TIP3    H173174  -0.009   2.777   1.275 -0.0765  0.9627  0.0134
17253TIP3    H273175   0.107   2.848   1.208  0.9786 -1.1458 -0.4888
17254TIP3   OH273176   2.954   6.476  12.177  0.1256 -0.3585  0.4302
17254TIP3    H173177   3.040   6.496  12.142 -0.8583  1.8445 -0.9767
17254TIP3    H273178   2.962   6.388  12.214  3.0143 -0.0834  0.6431
17255TIP3   OH273179   1.105   3.326   1.794 -0.1482 -0.2621  0.0810
17255TIP3    H173180   1.150   3.262   1.849 -2.1748 -0.6165  1.4492
17255TIP3    H273181   1.055   3.273   1.732  0.7678  0.1041 -0.9926
17256TIP3   OH273182   4.245   1.350   5.218  0.4278 -0.4669  0.6353
17256TIP3    H173183   4.273   1.437   5.246 -0.3353 -0.6192  1.9583
17256TIP3    H273184   4.298   1.289   5.270  1.9854 -0.8550 -1.3031
17257TIP3   OH273185   3.224   5.021   2.258 -0.0479 -0.2667  0.0574
17257TIP3    H173186   3.282   5.041   2.184  0.5788 -0.8252  0.3917
17257TIP3    H273187   3.198   4.930   2.245  0.6766 -0.6089  0.9288
17258TIP3   OH273188   1.844   1.317  15.155  0.4424 -0.5248 -0.1228
17258TIP3    H173189   1.923   1.270  15.181 -0.3431 -0.9823  1.5233
17258TIP3    H273190   1.776   1.250  15.152 -0.4574  0.2935  1.1977
17259TIP3   OH273191   6.364   5.779   1.213 -0.4850  0.3424 -0.1573
17259TIP3    H173192   6.403   5.693   1.193 -0.5214  0.0912  0.7821
17259TIP3    H273193   6.311   5.763   1.292 -0.3083  1.2802  0.1611
17260TIP3   OH273194   1.464   0.709  11.134  0.0165  0.1226  0.4297
17260TIP3    H173195   1.422   0.780  11.086 -1.4409 -0.1309  1.2822
17260TIP3    H273196   1.392   0.661  11.174  1.0301 -1.3051  0.6198
17261TIP3   OH273197   0.459   1.443  13.480 -0.6209 -0.3886 -0.0473
17261TIP3    H173198   0.388   1.461  13.417 -2.1912 -3.3092  0.7116
17261TIP3    H273199   0.415   1.442  13.565  0.9099  0.4389  0.7824
17262TIP3   OH273200   1.150   5.265   5.000 -0.5646  0.3596  0.1892
17262TIP3    H173201   1.225   5.286   5.054 -0.0154 -1.0796  0.0175
17262TIP3    H273202   1.169   5.178   4.964 -1.3573  0.8447 -1.5106
17263TIP3   OH273203   4.527   1.403   2.100 -0.0424  0.2345  0.4108
17263TIP3    H173204   4.565   1.317   2.117 -1.0652 -0.4338 -0.5500
17263TIP3    H273205   4.536   1.415   2.006 -1.9465  0.1295  0.1605
17264TIP3   OH273206   3.060   4.517   2.593  0.0960  0.0653  0.6948
17264TIP3    H173207   3.144   4.531   2.549 -1.4601  3.5257 -1.6461
17264TIP3    H273208   3.023   4.440   2.550  1.4453 -0.6993  0.8291
17265TIP3   OH273209   3.676   6.152  12.390 -0.0854 -0.2890  0.0251
17265TIP3    H173210   3.636   6.167  12.476  0.2951  0.7947  0.0212
17265TIP3    H273211   3.760   6.197  12.395 -0.5700  0.8040 -1.3311
17266TIP3   OH273212   0.584   5.153   3.294  0.0796 -0.2652  0.5019
17266TIP3    H173213   0.664   5.170   3.343  0.1151 -0.9667  0.7065
17266TIP3    H273214   0.614   5.123   3.208  0.0393 -0.3607  0.5202
17267TIP3   OH273215   2.842   5.654  14.030 -0.5321  0.0318  0.7863
17267TIP3    H173216   2.864   5.712  13.957 -2.7185  0.7448  0.6460
17267TIP3    H273217   2.810   5.574  13.989  0.6629 -0.5804  0.9945
17268TIP3   OH273218   4.234   1.606   2.099  0.1327 -0.2142  0.1781
17268TIP3    H173219   4.285   1.597   2.179  0.2913  1.1058  0.2403
17268TIP3    H273220   4.249   1.524   2.052 -0.4178 -1.2659  1.7310
17269TIP3   OH273221   4.790   1.220   3.084  0.2157  0.1725 -0.2555
17269TIP3    H173222   4.789   1.163   3.007  1.8484  1.8110 -1.6149
17269TIP3    H273223   4.834   1.300   3.053 -0.0046  1.3026  2.1272
17270TIP3   OH273224   6.769   1.254  14.865 -0.3879  0.9306  0.4243
17270TIP3    H173225   6.821   1.203  14.928 -1.3117 -0.3814  0.1668
17270TIP3    H273226   6.785   1.345  14.890  2.1090  0.6126  0.2811
17271TIP3   OH273227   3.728   5.816   0.521  0.1770  0.0461 -0.4711
17271TIP3    H173228   3.685   5.887   0.571 -1.1926  0.5366 -2.2397
17271TIP3    H273229   3.788   5.776   0.584  0.9019  2.6726  0.6588
17272TIP3   OH273230   3.495   3.316   3.099  0.3934 -0.1486  0.4444
17272TIP3    H173231   3.427   3.349   3.158 -1.6210  0.0786 -1.8736
17272TIP3    H273232   3.473   3.223   3.087  0.6869 -0.1580 -0.0609
17273TIP3   OH273233   2.044   5.668  14.158 -0.0464  0.3929  0.2406
17273TIP3    H173234   1.994   5.587  14.162 -1.3450  1.1276 -0.5200
17273TIP3    H273235   2.127   5.647  14.201  0.6544 -2.0541 -2.0606
17274TIP3   OH273236   4.011   4.096   3.617  0.3587 -0.0352  0.2841
17274TIP3    H173237   3.922   4.060   3.612 -0.6358  2.2314  0.3727
17274TIP3    H273238   4.029   4.103   3.710 -0.0937  1.1015  0.2984
17275TIP3   OH273239   1.075   5.344   6.502  0.0302  0.5888  0.0038
17275TIP3    H173240   0.991   5.383   6.524  0.1204 -0.2015  2.0321
17275TIP3    H273241   1.063   5.250   6.517  0.8496  0.2687 -1.1749
17276TIP3   OH273242   4.321   0.737  15.233  0.2657  0.7290  0.5480
17276TIP3    H173243   4.343   0.645  15.220 -0.1466  0.5126  1.3176
17276TIP3    H273244   4.401   0.785  15.208  0.4475  0.1754  0.0571
17277TIP3   OH273245   3.595   1.771   2.752  0.1894  0.4484 -0.4205
17277TIP3    H173246   3.500   1.781   2.752  0.2696  1.6863 -2.2284
17277TIP3    H273247   3.611   1.691   2.803 -1.8212  0.0639 -0.3160
17278TIP3   OH273248   5.164   3.641  11.116  0.1476 -0.3774 -0.0466
17278TIP3    H173249   5.220   3.717  11.102 -0.9831  0.9195  2.0162
17278TIP3    H273250   5.172   3.623  11.210 -2.0965 -0.7626  0.1232
17279TIP3   OH273251   6.052   1.633   4.278  0.3461  0.5337  0.3925
17279TIP3    H173252   6.127   1.574   4.266  0.7814  0.9054  1.2408
17279TIP3    H273253   6.087   1.720   4.261 -0.4013  0.5530 -1.3112
17280TIP3   OH273254   0.913   6.731   4.450  0.2669  0.5618 -0.0121
17280TIP3    H173255   0.937   6.657   4.506  0.4435  1.2662  0.8694
17280TIP3    H273256   0.889   6.800   4.512  0.8958  1.5064 -0.7956
17281TIP3   OH273257   1.287   6.601   1.005  0.8775 -0.0633  0.2864
17281TIP3    H173258   1.196   6.595   0.975  0.6173 -0.2623  1.0994
17281TIP3    H273259   1.326   6.517   0.980  0.6054 -0.3090  0.6746
17282TIP3   OH273260   3.689   3.478  17.291 -0.1709  0.1928  0.0228
17282TIP3    H173261   3.716   3.434  17.210 -2.6270 -0.3047 -0.6040
17282TIP3    H273262   3.716   3.418  17.361  0.0138 -0.4286 -0.5737
17283TIP3   OH273263   4.318   3.845  13.624 -0.1786  0.7090  0.4819
17283TIP3    H173264   4.363   3.814  13.703 -0.2673 -1.3591 -0.2180
17283TIP3    H273265   4.383   3.835  13.554 -0.7401  0.6185 -0.0323
17284TIP3   OH273266   1.325   2.160  16.373  0.0089  0.3759  0.5274
17284TIP3    H173267   1.285   2.205  16.298 -0.5473  0.8506  1.1002
17284TIP3    H273268   1.416   2.187  16.371 -0.1235  0.8190  0.3400
17285TIP3   OH273269   0.246   6.701  16.858 -0.3154 -0.0007 -0.1520
17285TIP3    H173270   0.220   6.621  16.814 -0.3930  0.4373 -0.9332
17285TIP3    H273271   0.208   6.771  16.804  0.2563  0.5704  0.1690
17286TIP3   OH273272   0.902   4.822   5.306  0.1122  0.3013 -0.0949
17286TIP3    H173273   0.884   4.729   5.322 -1.7442  0.2611 -1.9844
17286TIP3    H273274   0.943   4.824   5.219 -0.4911  1.2728 -0.3761
17287TIP3   OH273275   4.345   5.445  12.562 -0.3254  0.2311 -0.3230
17287TIP3    H173276   4.408   5.516  12.571 -0.7335  0.6102 -0.4526
17287TIP3    H273277   4.301   5.440  12.647 -1.3980  1.1833 -0.8044
17288TIP3   OH273278   5.296   5.100  14.843  0.1423  0.0033  0.0384
17288TIP3    H173279   5.238   5.037  14.887  0.4294  0.0636  0.5010
17288TIP3    H273280   5.342   5.047  14.778  2.2262 -0.8372  2.0661
17289TIP3   OH273281   0.127   3.641  14.554  0.2074  0.4851 -0.1408
17289TIP3    H173282   0.211   3.668  14.592  0.1424  0.2601  0.1648
17289TIP3    H273283   0.150   3.574  14.490  0.2706  0.5240 -0.1595
17290TIP3   OH273284   4.807   2.463   4.154 -0.4420  0.3607  0.2370
17290TIP3    H173285   4.749   2.386   4.150 -0.3778  0.3626 -2.5482
17290TIP3    H273286   4.748   2.537   4.144 -0.0908  0.3571 -2.7987
17291TIP3   OH273287   6.622   2.907   6.275  0.1808  0.3859  0.3127
17291TIP3    H173288   6.570   2.829   6.294 -1.5476  0.5563 -2.9901
17291TIP3    H273289   6.616   2.960   6.354 -1.0836 -1.5096  1.5582
17292TIP3   OH273290   2.178   4.206  10.877  0.3123 -0.3347  0.5685
17292TIP3    H173291   2.178   4.143  10.806 -0.8346  0.8675 -0.5425
17292TIP3    H273292   2.098   4.188  10.926  1.2593 -1.3751  1.8053
17293TIP3   OH273293   2.116   1.935  11.172  0.5444 -0.2941  0.1029
17293TIP3    H173294   2.068   1.857  11.145 -0.0113 -0.0565  0.3827
17293TIP3    H273295   2.064   2.008  11.141 -0.0828 -0.0146  1.7132
17294TIP3   OH273296   1.985   1.735  16.011 -0.0351  1.0591 -0.7349
17294TIP3    H173297   1.929   1.795  15.962 -0.7348 -0.8934 -2.5018
17294TIP3    H273298   1.992   1.658  15.955  1.5787 -0.1550  1.0061
17295TIP3   OH273299   6.488   0.777  13.953  0.5672  0.3288 -0.1834
17295TIP3    H173300   6.515   0.843  13.889  0.7294  1.4865  1.0261
17295TIP3    H273301   6.567   0.726  13.969  1.0923  1.3280  0.5595
17296TIP3   OH273302   2.722   2.116  12.733 -0.1448 -0.0876  0.2193
17296TIP3    H173303   2.802   2.063  12.736 -0.2253 -0.2182  0.0975
17296TIP3    H273304   2.753   2.205  12.718 -0.0670 -0.2880 -0.9467
17297TIP3   OH273305   2.308   6.300  17.154 -0.2786  0.5119  0.2472
17297TIP3    H173306   2.296   6.217  17.108  0.5476  0.0617  0.8092
17297TIP3    H273307   2.379   6.283  17.216  1.5918  2.2708 -1.2333
17298TIP3   OH273308   3.458   1.353   4.987 -0.2319  0.2502 -0.2401
17298TIP3    H173309   3.467   1.378   4.895 -1.9868 -0.7360 -0.7220
17298TIP3    H273310   3.538   1.386   5.029  0.4777  0.9462 -2.0510
17299TIP3   OH273311   2.692   0.185  12.633  0.6689 -0.3239  0.1031
17299TIP3    H173312   2.746   0.132  12.692  2.9261  1.4629 -0.2681
17299TIP3    H273313   2.754   0.236  12.582 -1.2325  4.6086  2.1311
17300TIP3   OH273314   4.014   0.737  11.866  0.1017  0.1174  0.0458
17300TIP3    H173315   4.053   0.656  11.832 -2.0220 -1.7122  1.5742
17300TIP3    H273316   4.081   0.774  11.922  1.4610 -0.0550 -1.3950
17301TIP3   OH273317   5.909   5.303   1.753 -0.6690 -0.7257  0.0095
17301TIP3    H173318   5.891   5.393   1.727 -1.9328 -0.5836  1.2394
17301TIP3    H273319   5.858   5.291   1.834 -0.5863 -2.5592 -0.1753
17302TIP3   OH273320   6.314   5.974  13.214 -0.3583 -0.4983  0.0906
17302TIP3    H173321   6.303   5.917  13.291 -1.1584 -0.8592 -0.2780
17302TIP3    H273322   6.229   5.970  13.169  0.4730 -1.2898 -1.4873
17303TIP3   OH273323   6.672   3.468   3.616 -0.1060  0.7622 -0.0891
17303TIP3    H173324   6.685   3.451   3.709  2.3781 -1.3365 -0.7080
17303TIP3    H273325   6.580   3.443   3.600  0.1525 -1.3943  1.3469
17304TIP3   OH273326   3.597   3.507  12.723  0.1348  0.1955  0.2323
17304TIP3    H173327   3.546   3.496  12.643 -1.3119  0.1352  1.1171
17304TIP3    H273328   3.583   3.426  12.772  1.5109 -0.0286  0.2852
17305TIP3   OH273329   5.939   0.109   2.659 -0.2825  0.1525  0.3677
17305TIP3    H173330   5.975   0.151   2.737 -0.3387  2.0346 -0.5711
17305TIP3    H273331   5.845   0.102   2.676 -0.1095 -0.8045  1.0377
17306TIP3   OH273332   1.550   2.146  15.546 -0.8518  0.3962  0.3213
17306TIP3    H173333   1.524   2.232  15.577 -0.1131 -0.1760  2.6781
17306TIP3    H273334   1.497   2.085  15.597  1.4117 -0.6139  1.5986
17307TIP3   OH273335   3.138   0.843  10.522 -1.0084 -0.0042  0.6278
17307TIP3    H173336   3.084   0.896  10.463 -1.9213 -0.7305  0.7906
17307TIP3    H273337   3.108   0.753  10.508 -0.4525 -0.3140  1.3777
17308TIP3   OH273338   1.241   1.909  13.696  0.1859  0.4101  0.0351
17308TIP3    H173339   1.242   1.978  13.762  1.2039 -1.1540  1.7475
17308TIP3    H273340   1.261   1.829  13.744 -2.1308 -1.3280 -1.6305
17309TIP3   OH273341   0.428   1.761   2.373 -0.5120  0.0800  0.0622
17309TIP3    H173342   0.517   1.743   2.344 -0.9536 -1.0227 -0.6874
17309TIP3    H273343   0.435   1.773   2.468  0.4667  0.3487 -0.0310
17310TIP3   OH273344   5.257   0.537   1.540 -0.2779 -0.1012 -0.5238
17310TIP3    H173345   5.230   0.628   1.541 -3.2675 -0.8991  0.8848
17310TIP3    H273346   5.223   0.503   1.457 -2.4480 -0.7185  0.5439
17311TIP3   OH273347   5.748   1.773  11.765 -0.0107  0.0709  0.2373
17311TIP3    H173348   5.776   1.861  11.740  2.1564 -0.7470 -0.4635
17311TIP3    H273349   5.826   1.733  11.805 -1.2355 -1.2103  1.4548
17312TIP3   OH273350   5.531   5.038   1.008  0.0270 -0.0194 -0.1842
17312TIP3    H173351   5.482   5.073   0.934  0.1686 -1.8493 -1.1985
17312TIP3    H273352   5.612   5.005   0.970  0.3034 -0.5843  0.8544
17313TIP3   OH273353   1.736   5.942   6.192  0.2557 -0.0573 -0.8351
17313TIP3    H173354   1.725   5.896   6.275  1.8990  1.8259  0.5222
17313TIP3    H273355   1.663   6.005   6.189  1.0363  0.9189 -0.0266
17314TIP3   OH273356   0.103   5.907  14.210 -0.2590 -0.0621 -0.0926
17314TIP3    H173357   0.138   5.991  14.240  0.7058 -0.2579 -0.6374
17314TIP3    H273358   0.014   5.904  14.246 -0.6180  1.5515 -0.7565
17315TIP3   OH273359   1.205   4.944   3.844  0.0555 -0.1440 -0.3069
17315TIP3    H173360   1.275   4.985   3.794 -1.5379  0.8220 -1.8827
17315TIP3    H273361   1.163   5.017   3.890 -0.7241 -0.4980 -0.4420
17316TIP3   OH273362   0.810   0.227   5.827  0.0618 -0.5614 -0.3689
17316TIP3    H173363   0.830   0.320   5.811  0.4677 -0.8368 -1.5407
17316TIP3    H273364   0.715   0.225   5.837  0.2216  0.3055  2.1011
17317TIP3   OH273365   5.521   3.879  12.707 -0.0909 -0.1387 -0.0650
17317TIP3    H173366   5.556   3.916  12.788 -2.8424 -2.0076  2.1743
17317TIP3    H273367   5.576   3.802  12.689  0.3844  0.1531  0.1342
17318TIP3   OH273368   2.895   1.054   3.018 -1.0276 -0.1179  0.4980
17318TIP3    H173369   2.870   0.991   3.084  1.9420  0.0397  1.9402
17318TIP3    H273370   2.847   1.134   3.040 -0.9161 -0.4060  1.8057
17319TIP3   OH273371   3.332   2.277  13.706 -0.1296  0.1268 -0.1127
17319TIP3    H173372   3.318   2.359  13.659  0.2178  0.5670  0.5348
17319TIP3    H273373   3.247   2.232  13.702 -1.3585  2.0047  2.3503
17320TIP3   OH273374   4.006   6.678   0.245 -0.2683  0.4198 -0.3357
17320TIP3    H173375   4.093   6.705   0.216  1.7977 -3.2518  1.7539
17320TIP3    H273376   4.002   6.704   0.337 -1.7074  1.1766 -0.5929
17321TIP3   OH273377   6.009   3.835  12.470 -0.0949 -0.5505  0.2519
17321TIP3    H173378   5.951   3.759  12.465  1.5664 -1.9273  0.9323
17321TIP3    H273379   5.953   3.909  12.446 -1.6286 -2.0348 -1.0550
17322TIP3   OH273380   5.815   4.966   2.889  0.1670 -0.1586  0.0604
17322TIP3    H173381   5.836   4.890   2.945  1.6627  0.6039  0.6010
17322TIP3    H273382   5.804   4.929   2.802 -0.9677 -1.2279  0.6310
17323TIP3   OH273383   0.961   1.989   2.123 -0.1691  0.5445 -0.4983
17323TIP3    H173384   0.958   2.078   2.087 -2.6595  1.4097  1.5718
17323TIP3    H273385   0.902   1.991   2.198 -0.2856 -2.8811 -0.3315
17324TIP3   OH273386   0.311   1.087  14.063 -0.3239  0.0806  0.1260
17324TIP3    H173387   0.356   1.043  13.991  1.3379  1.6754  0.1224
17324TIP3    H273388   0.365   1.069  14.140 -0.4162  0.8734  0.3869
17325TIP3   OH273389   6.758   5.733  15.979  0.2330  0.3672  0.2222
17325TIP3    H173390   6.845   5.768  15.998  0.5028 -0.9368  1.5979
17325TIP3    H273391   6.744   5.751  15.887  0.4636  3.7442  0.7482
17326TIP3   OH273392   2.874   1.967   2.413  0.4607 -0.3164 -0.1706
17326TIP3    H173393   2.900   1.875   2.421  1.5211 -0.0288 -0.2048
17326TIP3    H273394   2.867   1.981   2.318 -2.4604 -1.0794 -0.1750
17327TIP3   OH273395   2.554   4.131  15.606 -0.4704  0.3020 -0.2182
17327TIP3    H173396   2.648   4.124  15.588 -0.4458  1.9769 -0.8884
17327TIP3    H273397   2.523   4.040  15.605  0.7917 -0.1719 -1.8670
17328TIP3   OH273398   1.320   5.833   2.227 -0.3308 -0.2365  0.4344
17328TIP3    H173399   1.261   5.903   2.254  0.1766  0.5027 -0.3318
17328TIP3    H273400   1.402   5.878   2.204  0.3480 -1.1842  0.9463
17329TIP3   OH273401   1.134   3.076  16.515  0.4516  0.2371 -0.4699
17329TIP3    H173402   1.086   3.159  16.513  2.1025  1.2503 -0.9941
17329TIP3    H273403   1.129   3.043  16.426  0.3767  0.1313 -0.4260
17330TIP3   OH273404   2.133   6.190   5.072  0.1520 -0.2231  0.3617
17330TIP3    H173405   2.208   6.216   5.018 -0.2491  0.3786  0.0752
17330TIP3    H273406   2.057   6.200   5.014 -0.3441  0.9203  1.1727
17331TIP3   OH273407   5.772   2.735  17.117  0.3726  0.1313 -0.4946
17331TIP3    H173408   5.789   2.649  17.157  1.4940 -0.7130 -2.6322
17331TIP3    H273409   5.798   2.798  17.184  0.2526 -1.1761  0.8452
17332TIP3   OH273410   2.048   3.476   3.151 -0.3452  0.3258 -0.6261
17332TIP3    H173411   1.975   3.492   3.211  0.1276 -0.5638  0.2193
17332TIP3    H273412   2.122   3.458   3.208 -0.4144 -3.0042 -1.3839
17333TIP3   OH273413   3.999   1.635   2.630 -0.0762 -0.1406 -0.3412
17333TIP3    H173414   3.956   1.639   2.544 -0.4370 -0.8787 -0.2017
17333TIP3    H273415   3.939   1.585   2.684  0.5326 -0.3736  0.1249
17334TIP3   OH273416   1.409   2.234   1.194 -0.2375 -0.1644  0.1124
17334TIP3    H173417   1.448   2.293   1.258  1.1055 -0.3635 -0.4864
17334TIP3    H273418   1.481   2.175   1.169 -0.5519  0.2477 -1.9767
17335TIP3   OH273419   1.820   4.140   5.930  0.0201 -0.2596  1.0135
17335TIP3    H173420   1.862   4.056   5.946  0.1951 -0.1577  1.0866
17335TIP3    H273421   1.741   4.118   5.880  1.9573 -0.1962 -2.3996
17336TIP3   OH273422   6.154   2.211   2.267 -0.9528  0.1732 -0.0057
17336TIP3    H173423   6.213   2.254   2.329  0.3679  0.8800 -1.6484
17336TIP3    H273424   6.154   2.119   2.293  0.9229  0.1502  0.0650
17337TIP3   OH273425   1.346   2.754   3.279 -0.1501  0.2592 -0.5132
17337TIP3    H173426   1.326   2.715   3.364 -0.4582  1.7883  0.1584
17337TIP3    H273427   1.430   2.715   3.254  1.1658  1.4920  1.6532
17338TIP3   OH273428   3.841   5.885  12.767 -0.0568 -0.0873  0.6276
17338TIP3    H173429   3.745   5.894  12.762  0.0737  1.3302  0.1204
17338TIP3    H273430   3.873   5.975  12.767  1.2448 -0.5131  1.9809
17339TIP3   OH273431   5.338   4.164   5.843  0.8321 -0.0698  0.1385
17339TIP3    H173432   5.347   4.214   5.924  0.2189 -1.0603  0.8515
17339TIP3    H273433   5.267   4.101   5.862  1.6393 -1.2594 -0.6638
17340TIP3   OH273434   2.442   0.437  16.946  0.1580  0.0948  0.4461
17340TIP3    H173435   2.436   0.513  16.888  1.3707  0.8319  1.2276
17340TIP3    H273436   2.405   0.365  16.896  2.3477  0.3814 -1.7849
17341TIP3   OH273437   4.391   1.808   2.992 -0.0850 -0.6209 -0.3079
17341TIP3    H173438   4.316   1.815   2.932 -0.6606  2.2130  0.6027
17341TIP3    H273439   4.370   1.869   3.063  2.3047 -1.0944  0.8862
17342TIP3   OH273440   2.382   4.890   1.701  0.2059  0.1800  0.0010
17342TIP3    H173441   2.327   4.967   1.718 -1.0121 -1.0184  1.7956
17342TIP3    H273442   2.420   4.869   1.786  1.0998 -0.7966 -0.6201
17343TIP3   OH273443   4.427   3.828   1.187 -0.0121 -0.4214 -0.5531
17343TIP3    H173444   4.394   3.811   1.099  0.7647 -1.0540 -0.7291
17343TIP3    H273445   4.515   3.790   1.188  0.7479  1.2447 -0.1054
17344TIP3   OH273446   0.188   5.895  14.520  0.4838 -0.1395 -0.0579
17344TIP3    H173447   0.189   5.971  14.462  2.3012 -0.7601 -0.9064
17344TIP3    H273448   0.210   5.821  14.463 -0.4570 -1.1976  0.9042
17345TIP3   OH273449   3.389   3.841   1.204  0.2394 -0.1407  0.7403
17345TIP3    H173450   3.308   3.815   1.161 -0.6991 -0.5325  2.6395
17345TIP3    H273451   3.430   3.759   1.231  0.2529  0.1176  1.5327
17346TIP3   OH273452   3.209   5.694  17.106  0.2661  0.1279  0.6073
17346TIP3    H173453   3.117   5.682  17.130 -0.2375  0.0937 -1.2132
17346TIP3    H273454   3.247   5.607  17.111  0.3601  0.2220  1.8863
17347TIP3   OH273455   3.061   6.206  14.080  0.2903 -0.6022  0.3868
17347TIP3    H173456   3.019   6.250  14.006 -0.3587  2.6026  2.4574
17347TIP3    H273457   2.988   6.183  14.138  0.8719 -2.0894  0.5632
17348TIP3   OH273458   4.394   2.033  16.700  0.0845  0.4780  0.0606
17348TIP3    H173459   4.408   1.966  16.767 -0.4831  0.2562 -0.0397
17348TIP3    H273460   4.435   1.997  16.621 -0.2441  0.2357 -0.0014
17349TIP3   OH273461   0.371   3.016   2.369 -0.6194 -0.4292 -0.7322
17349TIP3    H173462   0.384   2.951   2.299  1.9390  1.0587 -1.7795
17349TIP3    H273463   0.283   3.050   2.354 -1.0506 -1.8397 -1.7020
17350TIP3   OH273464   3.520   6.639   0.700  0.3233 -0.3507 -0.3263
17350TIP3    H173465   3.490   6.562   0.651  1.8915 -0.7810 -0.6397
17350TIP3    H273466   3.486   6.624   0.789 -0.0352 -1.0262 -0.5669
17351TIP3   OH273467   0.364   0.368  13.649  0.0478 -0.0135  0.9953
17351TIP3    H173468   0.304   0.294  13.641  0.3373 -0.2584  1.1134
17351TIP3    H273469   0.430   0.340  13.712  0.5833  0.0661  0.4691
17352TIP3   OH273470   5.779   2.270  14.896  0.6921 -0.1389 -0.2030
17352TIP3    H173471   5.719   2.206  14.936 -0.8132  2.2468  1.6467
17352TIP3    H273472   5.857   2.267  14.952  0.5818 -0.2805 -0.0510
17353TIP3   OH273473   0.577   1.030   4.996 -0.4822  0.5848  0.2272
17353TIP3    H173474   0.501   0.979   4.968  0.4916 -0.6469 -0.2647
17353TIP3    H273475   0.634   1.032   4.919  0.0632  1.3502  0.6428
17354TIP3   OH273476   4.606   5.866   6.316  0.8322 -0.2303  0.1291
17354TIP3    H173477   4.659   5.832   6.245  0.0256  0.5594 -0.8760
17354TIP3    H273478   4.605   5.961   6.303 -3.9946 -0.2849 -2.3782
17355TIP3   OH273479   6.569   6.324   5.903  0.3267 -0.2523 -0.0749
17355TIP3    H173480   6.501   6.335   5.969 -0.2159 -0.1382 -0.6519
17355TIP3    H273481   6.651   6.333   5.952  0.0269 -3.1052  1.1609
17356TIP3   OH273482   6.130   5.119   3.662  0.4727 -0.2804  0.1137
17356TIP3    H173483   6.205   5.100   3.606 -0.1177  0.1758 -0.8472
17356TIP3    H273484   6.083   5.036   3.669  2.1405 -1.1495  2.4491
17357TIP3   OH273485   3.813   0.292  13.463  0.4496  0.0754 -0.4716
17357TIP3    H173486   3.833   0.282  13.370 -0.0635 -1.4687 -0.4473
17357TIP3    H273487   3.759   0.371  13.468  1.5052  0.8757 -1.3052
17358TIP3   OH273488   5.579   4.976  13.200  0.0197 -0.6384 -0.2839
17358TIP3    H173489   5.667   4.953  13.229  0.3180 -0.9084 -1.3600
17358TIP3    H273490   5.555   4.908  13.138 -1.3524 -1.1006  0.7126
17359TIP3   OH273491   1.890   0.211  13.151 -0.2759  0.1993 -0.1521
17359TIP3    H173492   1.915   0.261  13.229 -1.9534 -1.4645  1.5701
17359TIP3    H273493   1.804   0.245  13.127 -0.3141 -0.1366 -0.4914
17360TIP3   OH273494   3.254   5.041   3.552  0.4963 -0.3600  0.1153
17360TIP3    H173495   3.208   5.011   3.631 -0.5402 -0.7008 -0.5926
17360TIP3    H273496   3.211   5.123   3.530  0.5527 -0.4376 -0.2841
17361TIP3   OH273497   3.029   1.729  16.571 -0.6607 -0.1581 -0.0287
17361TIP3    H173498   2.940   1.699  16.556 -0.9339  0.2395  0.7064
17361TIP3    H273499   3.068   1.736  16.484 -1.6216  0.4678 -0.4283
17362TIP3   OH273500   3.279   4.851  15.667  0.2064  0.2857 -0.3057
17362TIP3    H173501   3.228   4.885  15.741 -2.1690  0.1121 -1.7334
17362TIP3    H273502   3.336   4.785  15.705 -0.6019  0.5459  1.4352
17363TIP3   OH273503   6.068   3.248  16.581 -0.6228  0.4555  0.0357
17363TIP3    H173504   6.013   3.173  16.557 -1.8705  1.2700  0.2199
17363TIP3    H273505   6.006   3.312  16.615  0.4671  1.4309  0.2395
17364TIP3   OH273506   2.381   3.649  12.697  0.2488  0.1320  0.0348
17364TIP3    H173507   2.420   3.569  12.731  0.1142  0.4387  0.9339
17364TIP3    H273508   2.299   3.621  12.658 -0.3157 -0.0412  1.3008
17365TIP3   OH273509   3.647   6.051  14.832 -0.2414  0.4860 -0.0099
17365TIP3    H173510   3.703   6.070  14.908 -1.8506 -1.2235  1.7103
17365TIP3    H273511   3.707   6.053  14.757  2.4283 -2.2776  1.8359
17366TIP3   OH273512   1.018   0.049  14.176 -0.0526 -0.0593 -0.4008
17366TIP3    H173513   0.956   0.032  14.247 -1.2565  0.2899 -1.3450
17366TIP3    H273514   0.978   0.009  14.099  1.1002 -0.1786 -0.9549
17367TIP3   OH273515   0.850   0.307  12.432  0.1591  0.0386 -0.2240
17367TIP3    H173516   0.805   0.228  12.461  0.6709  0.5240  2.1108
17367TIP3    H273517   0.865   0.293  12.339 -0.7974 -2.0916 -0.1173
17368TIP3   OH273518   4.189   6.608  16.391 -0.0566 -0.2164 -0.0664
17368TIP3    H173519   4.098   6.620  16.363  0.5544  1.1862 -1.6194
17368TIP3    H273520   4.227   6.551  16.323  0.4059 -0.2368  0.2052
17369TIP3   OH273521   1.025   4.735   5.051  0.1737 -0.1880 -0.1099
17369TIP3    H173522   1.087   4.785   4.999  1.0124 -1.8834 -0.8073
17369TIP3    H273523   0.947   4.729   4.995  0.0929  0.2369 -0.0521
17370TIP3   OH273524   6.670   1.653   4.213  0.7461 -0.4484 -0.2312
17370TIP3    H173525   6.642   1.716   4.279  1.4710  0.3006 -0.6113
17370TIP3    H273526   6.592   1.634   4.161  0.5392  0.1976 -0.1540
17371TIP3   OH273527   5.362   4.373   4.308  0.3027 -0.4057 -0.3606
17371TIP3    H173528   5.344   4.467   4.306 -0.6760 -0.5871 -0.3735
17371TIP3    H273529   5.425   4.362   4.379 -1.1412  0.0096  1.0523
17372TIP3   OH273530   2.288   2.186  10.880 -0.9444 -0.0259 -0.2062
17372TIP3    H173531   2.365   2.182  10.823 -0.5219 -3.0499  0.3937
17372TIP3    H273532   2.252   2.098  10.878 -1.6546  0.0347  3.1545
17373TIP3   OH273533   2.642   2.241   4.032 -0.1076  0.3577  0.0448
17373TIP3    H173534   2.700   2.194   4.091 -0.5645 -0.8521 -0.4403
17373TIP3    H273535   2.573   2.178   4.011 -0.6170  1.1725 -0.8048
17374TIP3   OH273536   2.994   1.849  16.817 -0.7833 -0.2928  0.3543
17374TIP3    H173537   3.047   1.810  16.747 -1.3476  0.4884 -0.5227
17374TIP3    H273538   2.926   1.899  16.772  0.2023  2.1617  1.4005
17375TIP3   OH273539   1.319   6.529   4.535 -0.7745 -0.0100 -0.2393
17375TIP3    H173540   1.353   6.553   4.621  1.7274  0.8553 -1.3828
17375TIP3    H273541   1.322   6.610   4.484 -0.0072 -0.9669 -1.8001
17376TIP3   OH273542   2.457   2.323   4.344  0.3654  0.1346  0.1506
17376TIP3    H173543   2.455   2.387   4.272 -1.5320 -0.0592 -0.0072
17376TIP3    H273544   2.550   2.315   4.366  0.7512  2.1536 -0.5303
17377TIP3   OH273545   2.187   1.747   2.396 -0.2139 -0.5419 -0.1965
17377TIP3    H173546   2.272   1.705   2.380 -0.6434 -1.4581 -0.1478
17377TIP3    H273547   2.208   1.823   2.450  0.7517  0.1192 -1.4203
17378TIP3   OH273548   4.124   1.569   1.245 -0.1633  0.3378 -0.4224
17378TIP3    H173549   4.035   1.543   1.271 -0.0899 -1.1071 -1.4862
17378TIP3    H273550   4.161   1.490   1.206  1.6807  0.8603  0.1854
17379TIP3   OH273551   6.683   1.811   2.411  0.0739  0.0051  0.1371
17379TIP3    H173552   6.764   1.760   2.409  0.7136  1.0133  0.0537
17379TIP3    H273553   6.698   1.883   2.350 -0.7722  0.3765  0.3505
17380TIP3   OH273554   4.854   6.308  16.897 -0.4770  0.0251 -0.0319
17380TIP3    H173555   4.768   6.339  16.924 -0.5379 -1.0276  1.0920
17380TIP3    H273556   4.839   6.267  16.811 -0.8293  0.9890 -0.4384
17381TIP3   OH273557   3.919   4.021   2.783 -0.0834  0.2718  0.2740
17381TIP3    H173558   3.921   3.934   2.823  0.4821  1.1742  2.2834
17381TIP3    H273559   3.945   4.081   2.852 -0.9111  2.1284 -0.9322
17382TIP3   OH273560   3.332   2.981   4.828  0.6224 -0.6423  0.1950
17382TIP3    H173561   3.404   2.974   4.890  1.5001  1.5034 -0.5044
17382TIP3    H273562   3.374   3.002   4.745 -0.7980  1.2348 -0.1131
17383TIP3   OH273563   4.203   1.938  12.548  0.4128  0.2362  0.4771
17383TIP3    H173564   4.112   1.963  12.527  0.8153 -0.5557 -2.8089
17383TIP3    H273565   4.210   1.847  12.521  2.4385  0.5950 -0.4324
17384TIP3   OH273566   3.179   3.304   5.476  0.0324 -0.6303  0.8094
17384TIP3    H173567   3.185   3.237   5.409  1.2145  0.1891  0.0685
17384TIP3    H273568   3.086   3.305   5.500 -0.1848 -1.7995  0.1019
17385TIP3   OH273569   4.012   2.900   3.164  0.0812  0.1610  0.2636
17385TIP3    H173570   4.025   2.805   3.161 -0.8335  0.0523 -1.1372
17385TIP3    H273571   4.026   2.923   3.255  4.0670 -0.7737  0.0853
17386TIP3   OH273572   4.260   6.270  14.570 -0.4178  0.2627 -0.2374
17386TIP3    H173573   4.263   6.326  14.647  0.5959  2.6412 -1.9147
17386TIP3    H273574   4.346   6.229  14.567 -1.1651 -1.5407  1.0007
17387TIP3   OH273575   2.072   0.944  15.883  0.3302 -0.5331 -0.1435
17387TIP3    H173576   2.047   0.858  15.847 -0.2518 -0.8559  1.0004
17387TIP3    H273577   2.111   0.924  15.968 -0.5292  0.3829  0.4831
17388TIP3   OH273578   6.274   2.526   2.251 -0.5086  0.1954 -0.5616
17388TIP3    H173579   6.346   2.582   2.221 -0.0068  0.0674  0.3699
17388TIP3    H273580   6.241   2.486   2.171  0.4654  0.2421 -1.0128
17389TIP3   OH273581   4.477   2.022  14.849 -0.3630  0.3251 -0.1515
17389TIP3    H173582   4.412   2.071  14.899 -0.1451  0.2575  0.1983
17389TIP3    H273583   4.535   2.089  14.813 -1.9520  0.5933 -2.4190
17390TIP3   OH273584   6.601   3.676   3.845 -0.3438  0.2368 -0.2034
17390TIP3    H173585   6.533   3.716   3.900 -0.1518  0.8454 -0.4082
17390TIP3    H273586   6.564   3.677   3.757 -0.8135 -1.0959 -0.0502
17391TIP3   OH273587   6.068   4.002  16.228  0.2256 -0.3159  0.3860
17391TIP3    H173588   6.154   3.972  16.258  0.0497 -1.3324 -0.0868
17391TIP3    H273589   6.048   4.077  16.283  0.9075 -0.7779  1.2830
17392TIP3   OH273590   2.525   2.197  14.900  0.0143  0.1664 -0.0329
17392TIP3    H173591   2.517   2.134  14.828 -0.4270  0.9245 -0.6589
17392TIP3    H273592   2.497   2.280  14.862  2.1118  1.0913  0.3202
17393TIP3   OH273593   1.812   4.139  15.537  0.0947  0.4101  0.2746
17393TIP3    H173594   1.813   4.102  15.448  0.0826 -0.1422  0.5031
17393TIP3    H273595   1.780   4.069  15.592 -2.5350  1.5767  0.3636
17394TIP3   OH273596   2.606   5.442  15.076 -0.2894 -0.1142  0.0389
17394TIP3    H173597   2.689   5.485  15.099 -0.3931 -0.2110  0.6191
17394TIP3    H273598   2.563   5.503  15.017  0.7495 -0.6080 -1.3008
17395TIP3   OH273599   6.004   0.668   5.660  0.2829  0.0814  0.2265
17395TIP3    H173600   6.081   0.680   5.606  0.3200 -0.5764  0.1198
17395TIP3    H273601   5.974   0.579   5.640 -1.3058  0.7897 -0.7760
17396TIP3   OH273602   5.604   6.014  13.385 -0.2365 -0.2704 -0.0319
17396TIP3    H173603   5.645   5.940  13.342  1.3894  1.2539 -1.2473
17396TIP3    H273604   5.589   5.985  13.475  0.2618 -2.0767 -0.5046
17397TIP3   OH273605   2.616   3.870   2.888  0.2989  0.0265  0.3295
17397TIP3    H173606   2.555   3.806   2.851  0.6271  0.6992 -1.4299
17397TIP3    H273607   2.683   3.817   2.931  0.0782 -0.7868 -0.3026
17398TIP3   OH273608   3.259   3.577   3.435  0.3614  0.0912  0.3148
17398TIP3    H173609   3.210   3.495   3.443 -0.3616  0.6372  1.8614
17398TIP3    H273610   3.298   3.590   3.521  0.6055  1.2798  0.0345
17399TIP3   OH273611   0.135   1.180  15.155  0.1065 -0.1942  0.9647
17399TIP3    H173612   0.173   1.096  15.128  1.2679  0.7279 -0.4278
17399TIP3    H273613   0.058   1.156  15.207  1.4741 -2.1234  2.2445
17400TIP3   OH273614   6.012   5.230   4.595  0.1955  0.7318 -0.2958
17400TIP3    H173615   6.099   5.193   4.613  1.2441  3.2379  0.1654
17400TIP3    H273616   5.953   5.179   4.650  1.0959 -1.8781 -1.5497
17401TIP3   OH273617   3.294   2.368   5.024  0.0280  0.7447  0.0469
17401TIP3    H173618   3.243   2.378   4.943  0.4391  1.4175 -0.1442
17401TIP3    H273619   3.353   2.295   5.007 -0.0856  0.7023 -0.1620
17402TIP3   OH273620   0.949   5.288   6.127  0.0802  0.1426 -0.0994
17402TIP3    H173621   1.025   5.250   6.171  0.4980  0.7161 -0.3158
17402TIP3    H273622   0.912   5.349   6.191  0.3925  0.6032 -0.3523
17403TIP3   OH273623   1.326   5.436  13.323 -0.0200  0.1525  0.1063
17403TIP3    H173624   1.263   5.446  13.251 -1.0632  0.5453  1.0467
17403TIP3    H273625   1.351   5.525  13.345  2.3594 -0.0321 -1.4718
17404TIP3   OH273626   1.989   5.548  16.161 -0.0434  0.0914 -0.8105
17404TIP3    H173627   1.913   5.576  16.108 -0.7127  1.7948  0.9003
17404TIP3    H273628   1.956   5.549  16.251  1.6981 -0.3842 -0.1411
17405TIP3   OH273629   0.378   6.343  14.561 -0.0070  0.1992 -0.1613
17405TIP3    H173630   0.360   6.435  14.540 -0.9780  0.2039  0.5982
17405TIP3    H273631   0.292   6.301  14.559 -0.3787  0.2705  3.9449
17406TIP3   OH273632   5.649   2.278  16.300 -0.2712  0.6342  0.2594
17406TIP3    H173633   5.580   2.233  16.253  0.0943 -0.1339  0.4341
17406TIP3    H273634   5.630   2.371  16.288 -0.0514  0.4787 -1.6023
17407TIP3   OH273635   1.107   0.817  13.979 -0.0573  0.2639 -0.1749
17407TIP3    H173636   1.100   0.909  13.954 -1.0048  0.7654  1.7521
17407TIP3    H273637   1.017   0.792  14.003  0.5731 -0.4483  1.6122
17408TIP3   OH273638   5.477   5.211   4.934  0.0141 -0.4791 -0.2443
17408TIP3    H173639   5.454   5.147   4.867 -2.0482  0.9683 -1.0557
17408TIP3    H273640   5.546   5.264   4.894 -0.6845 -0.0974 -0.9903
17409TIP3   OH273641   0.070   3.947   0.552  0.0396  0.3061  0.4510
17409TIP3    H173642   0.129   3.939   0.477  0.8567 -0.5254  1.1530
17409TIP3    H273643   0.015   4.023   0.532  1.2191  0.9875 -0.3107
17410TIP3   OH273644   2.893   3.454   1.139 -0.2746 -0.0581  0.0046
17410TIP3    H173645   2.900   3.549   1.144  2.1920  0.0667 -2.8204
17410TIP3    H273646   2.971   3.421   1.183 -1.9985 -1.0087  2.6189
17411TIP3   OH273647   6.117   3.144  14.424  0.6876  0.0773  0.4199
17411TIP3    H173648   6.082   3.161  14.337  0.4970 -0.3965  0.3969
17411TIP3    H273649   6.053   3.184  14.484  0.3424 -0.3816  0.3647
17412TIP3   OH273650   2.023   5.366  12.840  0.4157  0.5599 -0.0731
17412TIP3    H173651   2.052   5.381  12.930  1.6810  0.4077 -0.4324
17412TIP3    H273652   2.068   5.286  12.813  0.7684  1.0905 -1.1372
17413TIP3   OH273653   0.977   1.248  16.407  0.4807 -0.0635 -0.1031
17413TIP3    H173654   1.001   1.232  16.316  0.0500  0.2517 -0.2756
17413TIP3    H273655   1.060   1.258  16.453  0.6947  1.4920 -0.7823
17414TIP3   OH273656   2.621   5.874  16.044  0.3275 -0.1703 -0.3124
17414TIP3    H173657   2.610   5.836  16.131  0.8106 -0.5129 -0.3960
17414TIP3    H273658   2.600   5.967  16.056 -1.2472 -0.5154 -0.1874
17415TIP3   OH273659   5.590   1.009   0.769  0.3122  0.0155 -0.0972
17415TIP3    H173660   5.567   1.094   0.807 -1.0575 -0.3516 -0.0732
17415TIP3    H273661   5.574   1.019   0.675 -0.3022 -0.3638 -0.0330
17416TIP3   OH273662   5.710   3.711   5.053 -0.6950 -0.1075  0.4785
17416TIP3    H173663   5.714   3.800   5.086 -1.8896  0.1262  0.0527
17416TIP3    H273664   5.768   3.710   4.977 -1.2820  0.5455  0.0045
17417TIP3   OH273665   3.485   1.436  15.681 -0.2353 -0.1615 -0.6725
17417TIP3    H173666   3.501   1.528  15.664 -0.6772 -0.1118 -0.8254
17417TIP3    H273667   3.395   1.432  15.713  0.2408 -0.3669  0.7366
17418TIP3   OH273668   5.061   1.717   0.003  0.2326  0.1519  0.1032
17418TIP3    H173669   5.109   1.666   0.068 -0.3693  1.8068  1.9406
17418TIP3    H273670   4.985   1.663  -0.019  2.1187 -1.9173 -1.8699
17419TIP3   OH273671   0.261   3.398   4.400 -0.1808 -0.2644 -0.6532
17419TIP3    H173672   0.176   3.375   4.438  0.3689 -2.4987 -0.6388
17419TIP3    H273673   0.300   3.459   4.462 -2.3438  2.0459 -1.3932
17420TIP3   OH273674   2.643   5.853  12.044  0.3766 -0.3620 -0.4333
17420TIP3    H173675   2.733   5.875  12.020  0.1393  0.8003 -0.3036
17420TIP3    H273676   2.590   5.883  11.970 -0.0469  0.3942  0.1570
17421TIP3   OH273677   2.954   1.850  14.680  0.4649 -0.4652  0.1888
17421TIP3    H173678   2.916   1.914  14.741  3.0611  2.9339 -1.4467
17421TIP3    H273679   3.041   1.833  14.715  1.5852  0.7094 -1.8520
17422TIP3   OH273680   3.178   0.705   4.598  0.2347 -0.1837 -0.7271
17422TIP3    H173681   3.194   0.617   4.564 -0.0832 -0.4419 -0.2135
17422TIP3    H273682   3.235   0.713   4.673 -0.1414 -0.1565 -0.4406
17423TIP3   OH273683   5.537   2.828  11.327 -0.1233  0.1824 -0.0206
17423TIP3    H173684   5.443   2.838  11.321 -0.4236 -0.9907  1.7160
17423TIP3    H273685   5.558   2.757  11.266 -0.1839  1.1505 -1.1888
17424TIP3   OH273686   5.141   1.975   5.833  0.6144 -0.1199  0.0137
17424TIP3    H173687   5.105   2.039   5.771  2.9491 -0.2862 -1.6460
17424TIP3    H273688   5.095   1.894   5.813  0.1294  0.2303 -0.3134
17425TIP3   OH273689   4.727   3.726  15.303 -0.2879  0.4098  0.2152
17425TIP3    H173690   4.733   3.819  15.324 -1.6437  0.4949  0.3229
17425TIP3    H273691   4.806   3.708  15.253  0.7937  1.2329  1.5537
17426TIP3   OH273692   5.668   2.755   0.871  0.4697  0.4939  0.3545
17426TIP3    H173693   5.647   2.848   0.877  2.7925  1.0692  0.3181
17426TIP3    H273694   5.590   2.711   0.906 -1.5748  2.3092 -1.5318
17427TIP3   OH273695   2.442   6.143   1.403 -0.1276 -0.0202 -0.0318
17427TIP3    H173696   2.409   6.143   1.492  0.8242  1.1567  0.3507
17427TIP3    H273697   2.366   6.123   1.349 -1.1068  0.9948  0.9205
17428TIP3   OH273698   0.283   6.281  12.824  0.4348 -0.4042 -0.4625
17428TIP3    H173699   0.252   6.362  12.865 -1.9375 -1.4573 -0.0241
17428TIP3    H273700   0.340   6.242  12.891  1.3298  0.6875 -0.5466
17429TIP3   OH273701   1.490   0.192  12.852 -0.1398  0.1756  0.6474
17429TIP3    H173702   1.450   0.230  12.773 -0.8923 -0.0838  0.8913
17429TIP3    H273703   1.420   0.194  12.917 -0.2593 -1.7186  0.6482
17430TIP3   OH273704   0.277   2.200   2.438  0.5323 -0.3912 -0.1753
17430TIP3    H173705   0.244   2.117   2.404 -0.7991 -0.0089  0.1495
17430TIP3    H273706   0.216   2.224   2.507  1.7716  0.1109  0.7985
17431TIP3   OH273707   3.614   1.400   0.051 -0.6082  0.0301 -0.4536
17431TIP3    H173708   3.658   1.316   0.033 -1.5129 -0.1961 -1.7699
17431TIP3    H273709   3.539   1.377   0.105 -0.2374  0.1547  0.1247
17432TIP3   OH273710   3.712   4.734   3.189 -0.1312  0.0033  0.2527
17432TIP3    H173711   3.739   4.823   3.211  1.2448 -0.6947  1.6837
17432TIP3    H273712   3.794   4.689   3.168 -0.8841 -0.7583 -1.1746
17433TIP3   OH273713   1.769   5.888   1.900 -0.2196  0.3698 -0.3133
17433TIP3    H173714   1.818   5.872   1.819  0.0761  2.1129 -0.5224
17433TIP3    H273715   1.834   5.880   1.970 -0.6304 -1.9296 -0.1114
17434TIP3   OH273716   2.977   3.731  13.496  0.3118 -0.1112 -0.2589
17434TIP3    H173717   2.911   3.664  13.479  0.5029 -0.3973  0.1023
17434TIP3    H273718   2.927   3.811  13.509  0.1412  0.0852 -1.8954
17435TIP3   OH273719   1.160   5.431   3.127  0.0736 -0.1681  0.3427
17435TIP3    H173720   1.191   5.360   3.183 -0.3299 -1.0411 -0.4893
17435TIP3    H273721   1.233   5.449   3.068 -0.5758 -1.5422 -0.9689
17436TIP3   OH273722   5.044   4.417  13.295 -0.1981  0.2433  0.3525
17436TIP3    H173723   5.083   4.386  13.213 -1.4245 -1.2254  0.2893
17436TIP3    H273724   4.964   4.462  13.269  0.0057  0.8102  0.6798
17437TIP3   OH273725   5.719   3.700  14.002 -0.0353 -0.0956  0.3930
17437TIP3    H173726   5.724   3.658  14.088  0.8016  0.1073  0.4512
17437TIP3    H273727   5.734   3.793  14.020 -0.2287  0.0007  0.0671
17438TIP3   OH273728   5.488   5.019   5.292 -0.7691  0.0865  0.2702
17438TIP3    H173729   5.404   5.058   5.318 -0.2811  0.7274  0.9081
17438TIP3    H273730   5.481   5.011   5.197 -1.6765 -0.1659  0.3447
17439TIP3   OH273731   1.613   6.461   1.561 -0.0663 -0.2627  0.2958
17439TIP3    H173732   1.688   6.468   1.620 -0.5303  3.6708  0.6938
17439TIP3    H273733   1.649   6.474   1.474  0.0562 -1.3598  0.1792
17440TIP3   OH273734   1.170   6.127   2.497  0.0925 -0.3497 -0.1111
17440TIP3    H173735   1.174   6.070   2.573  1.6592  0.0154  0.1034
17440TIP3    H273736   1.121   6.077   2.432  1.5709 -2.0134  0.0040
17441TIP3   OH273737   2.101   2.271  13.917 -0.7115  0.5652  0.2058
17441TIP3    H173738   2.144   2.282  14.002 -1.3104 -0.9045  0.7263
17441TIP3    H273739   2.060   2.184  13.921 -0.4682  0.3021 -1.7067
17442TIP3   OH273740   3.870   5.835  16.869 -0.3553  0.2460 -0.2067
17442TIP3    H173741   3.910   5.796  16.791 -0.4279  1.4248 -0.8551
17442TIP3    H273742   3.916   5.918  16.881 -1.1985  0.6584  0.2676
17443TIP3   OH273743   1.891   3.299   5.803  0.4734 -0.0565  0.1236
17443TIP3    H173744   1.967   3.356   5.817  0.6551 -0.2058 -0.2190
17443TIP3    H273745   1.834   3.315   5.878  0.9481 -0.1086  0.5007
17444TIP3   OH273746   5.801   4.017   5.636  0.0859 -0.1591 -0.6343
17444TIP3    H173747   5.869   4.018   5.703  1.3997  0.3339 -1.9297
17444TIP3    H273748   5.721   3.993   5.684  0.9091  0.4370  1.1404
17445TIP3   OH273749   3.796   2.572  16.062 -0.3083 -0.1733 -0.1986
17445TIP3    H173750   3.784   2.479  16.044  1.0345 -0.7437  1.5471
17445TIP3    H273751   3.832   2.575  16.151 -0.5472  2.0311 -0.1102
17446TIP3   OH273752   3.956   4.315   4.052 -0.1015 -0.5036  0.1525
17446TIP3    H173753   4.049   4.294   4.040 -0.3735 -1.2312 -0.7634
17446TIP3    H273754   3.932   4.271   4.133 -0.0736 -1.7959 -0.5234
17447TIP3   OH273755   0.903   6.287   6.063  0.2113 -0.3683  0.2890
17447TIP3    H173756   0.862   6.351   6.004  1.3440  1.1467  1.0815
17447TIP3    H273757   0.832   6.259   6.120 -0.5820 -0.7932 -0.8647
17448TIP3   OH273758   5.112   4.989  13.869  0.2346 -0.6499  0.1999
17448TIP3    H173759   5.088   4.932  13.796  0.1260  0.7619 -0.9015
17448TIP3    H273760   5.199   4.959  13.896  1.0246 -0.1161 -1.6463
17449TIP3   OH273761   3.181   3.950   3.606 -0.0838  0.1038  0.2073
17449TIP3    H173762   3.233   4.029   3.595  1.4800 -0.9529 -0.3689
17449TIP3    H273763   3.124   3.948   3.529  1.3872 -0.3773 -0.9294
17450TIP3   OH273764   3.169   5.087   1.727 -0.2464  0.1191 -0.4091
17450TIP3    H173765   3.094   5.117   1.778 -0.2791 -0.7894  0.0949
17450TIP3    H273766   3.229   5.162   1.726 -0.7215  0.5138  0.0250
17451TIP3   OH273767   1.191   3.239   1.171 -0.1366  0.0791  0.3467
17451TIP3    H173768   1.096   3.228   1.179 -0.0216 -0.8743  0.6238
17451TIP3    H273769   1.223   3.231   1.261  0.4700 -2.7957 -0.0070
17452TIP3   OH273770   3.814   5.980  14.210  0.4286  0.1980  0.1017
17452TIP3    H173771   3.905   5.981  14.179 -0.1837 -2.4377 -2.1372
17452TIP3    H273772   3.767   5.928  14.145 -3.2885  3.5016 -0.2345
17453TIP3   OH273773   1.864   4.102   5.456 -0.1603 -0.5989 -0.1476
17453TIP3    H173774   1.885   4.009   5.456 -0.3285 -0.6933  2.0706
17453TIP3    H273775   1.884   4.131   5.367  3.9612 -1.8559  0.1697
17454TIP3   OH273776   2.018   1.401  14.750  0.0154 -0.3915  0.0636
17454TIP3    H173777   1.963   1.331  14.784 -2.7849  2.3738  1.7058
17454TIP3    H273778   1.959   1.458  14.701  2.5257 -0.0128 -2.9098
17455TIP3   OH273779   3.789   5.445   5.625 -0.6527  0.0808  0.2436
17455TIP3    H173780   3.717   5.460   5.565 -1.8367  1.3397  1.8680
17455TIP3    H273781   3.748   5.443   5.712  1.1352 -0.2714  1.1387
17456TIP3   OH273782   6.157   1.287  14.423  0.0187 -0.2288 -0.5253
17456TIP3    H173783   6.144   1.378  14.399  1.0217  0.7146  2.1015
17456TIP3    H273784   6.218   1.253  14.358  0.8253  1.4390 -0.6912
17457TIP3   OH273785   5.487   5.959   2.410  0.5505  0.2867 -0.1659
17457TIP3    H173786   5.516   5.877   2.372  0.9889  0.2741  0.1877
17457TIP3    H273787   5.391   5.956   2.405  0.5458 -0.5054  0.3995
17458TIP3   OH273788   5.233   6.108  13.213  0.0466 -0.0139 -0.8070
17458TIP3    H173789   5.176   6.031  13.221  1.3232 -0.8008  1.8822
17458TIP3    H273790   5.174   6.179  13.189 -1.4961 -1.4387 -1.4237
17459TIP3   OH273791   5.997   2.441  13.479 -0.3743 -0.8978  0.1169
17459TIP3    H173792   5.982   2.454  13.385  0.3795 -0.9403 -0.0206
17459TIP3    H273793   6.087   2.406  13.484 -0.0073  0.1242  0.9219
17460TIP3   OH273794   1.902   5.234   1.827  0.2516 -0.1144 -0.3786
17460TIP3    H173795   1.823   5.183   1.838  0.2515 -0.6079 -2.3358
17460TIP3    H273796   1.971   5.181   1.867 -0.1146 -0.5431 -0.3117
17461TIP3   OH273797   2.246   5.630   1.431  1.0119 -0.2111 -0.7848
17461TIP3    H173798   2.188   5.626   1.356  2.2328  0.5860 -1.8066
17461TIP3    H273799   2.249   5.723   1.455  0.1550 -0.5201  0.6699
17462TIP3   OH273800   1.959   5.288  12.229  0.2847  0.2752 -0.0638
17462TIP3    H173801   2.016   5.329  12.294 -0.0292 -0.1850  0.5010
17462TIP3    H273802   2.018   5.268  12.156  0.1475  3.5288 -1.2535
17463TIP3   OH273803   2.562   3.521   6.277  0.3243  0.1272 -0.7249
17463TIP3    H173804   2.536   3.562   6.195 -0.0627 -0.1663 -0.7517
17463TIP3    H273805   2.479   3.496   6.319  0.5605 -1.2613 -1.0384
17464TIP3   OH273806   6.016   6.387   6.689 -0.5237 -0.1289 -0.7982
17464TIP3    H173807   6.080   6.443   6.732 -1.1030 -0.2333  0.2210
17464TIP3    H273808   6.066   6.338   6.624  0.6469 -1.0211  0.7239
17465TIP3   OH273809   6.176   3.706  16.184 -0.2988  0.0358  0.1677
17465TIP3    H173810   6.183   3.714  16.279 -0.7255  0.3179  0.1756
17465TIP3    H273811   6.148   3.616  16.170 -3.0780  0.7727  0.4690
17466TIP3   OH273812   4.828   3.522  15.884 -0.1531  0.0680  0.2621
17466TIP3    H173813   4.805   3.438  15.925  0.0134 -1.4388 -2.5357
17466TIP3    H273814   4.921   3.533  15.905 -0.0396 -0.7204  0.2170
17467TIP3   OH273815   0.975   5.514   1.553 -0.7740  0.2286  0.3938
17467TIP3    H173816   1.057   5.469   1.574 -0.2333  1.4623  0.9920
17467TIP3    H273817   0.914   5.485   1.620 -1.1171 -1.3575 -0.5369
17468TIP3   OH273818   0.452   6.747   5.778 -0.4400 -0.1982 -0.0734
17468TIP3    H173819   0.498   6.828   5.800 -3.0421  1.1384  0.8667
17468TIP3    H273820   0.460   6.692   5.856  0.6858 -0.5566 -0.4299
17469TIP3   OH273821   4.794   0.123  16.607  0.4108 -0.4230 -0.3973
17469TIP3    H173822   4.818   0.052  16.667 -0.6851  0.2046  0.8237
17469TIP3    H273823   4.790   0.201  16.662 -0.7099  0.1603 -1.2676
17470TIP3   OH273824   6.022   1.544   3.772  0.4069 -0.0179  0.2596
17470TIP3    H173825   5.937   1.535   3.815  1.2200 -1.9483  1.6767
17470TIP3    H273826   6.002   1.562   3.681 -1.5637 -1.6004  0.3111
17471TIP3   OH273827   1.548   6.168  17.107  0.3883 -0.3790  0.1720
17471TIP3    H173828   1.615   6.167  17.040 -0.2090 -0.1605 -0.4361
17471TIP3    H273829   1.501   6.086  17.096  0.1331 -0.2341  0.1612
17472TIP3   OH273830   1.953   1.786  11.376  0.4335  0.3162  0.0548
17472TIP3    H173831   1.946   1.706  11.325  0.3637  1.5961 -2.0507
17472TIP3    H273832   2.019   1.838  11.331 -0.3712  1.9398  0.6617
17473TIP3   OH273833   4.548   6.667  17.045  0.7783 -0.7187  0.6206
17473TIP3    H173834   4.587   6.599  17.100 -0.1150  0.4316  2.8082
17473TIP3    H273835   4.596   6.747  17.069 -0.4309  0.0239  0.6114
17474TIP3   OH273836   5.359   2.298  17.181  0.3001 -0.3529 -0.6195
17474TIP3    H173837   5.306   2.256  17.249 -1.1450  0.6521 -1.0817
17474TIP3    H273838   5.374   2.387  17.213 -1.3531  0.5009 -2.0551
17475TIP3   OH273839   6.289   2.628  11.555 -0.0575 -0.3469  0.3507
17475TIP3    H173840   6.193   2.626  11.558 -0.2062 -3.1794 -2.0073
17475TIP3    H273841   6.310   2.715  11.523 -1.8849  0.0507  0.1014
17476TIP3   OH273842   6.261   0.370   5.735 -0.1567  0.6851  0.3489
17476TIP3    H173843   6.202   0.334   5.801 -2.7650  0.6903 -1.8125
17476TIP3    H273844   6.240   0.464   5.733 -0.6883  0.5674 -0.9376
17477TIP3   OH273845   3.799   1.182   3.422  0.2490  0.0228  0.4909
17477TIP3    H173846   3.890   1.176   3.394 -0.2785  0.6166 -1.4583
17477TIP3    H273847   3.757   1.104   3.385 -0.2241  0.2113  0.6156
17478TIP3   OH273848   2.063   4.620   4.046 -0.1988 -0.4233 -0.3545
17478TIP3    H173849   1.983   4.604   4.096  0.4938  0.1858  1.0135
17478TIP3    H273850   2.078   4.714   4.053  0.2163 -0.4126 -1.2612
17479TIP3   OH273851   5.770   1.034  14.541 -0.3801  0.3228 -0.0229
17479TIP3    H173852   5.791   1.126  14.558  0.7328  0.2086 -0.6423
17479TIP3    H273853   5.814   1.014  14.459 -0.8919 -0.6785 -0.0762
17480TIP3   OH273854   3.864   1.142   6.357 -0.8644  0.3595 -0.5075
17480TIP3    H173855   3.938   1.091   6.391 -0.4524 -0.2351 -2.2103
17480TIP3    H273856   3.898   1.231   6.349 -1.2987  0.7728  1.5702
17481TIP3   OH273857   2.874   0.301   2.779 -0.3824  0.3257  0.0794
17481TIP3    H173858   2.818   0.278   2.704  1.5468 -1.7107 -0.8733
17481TIP3    H273859   2.958   0.325   2.740  0.1186  1.0666  1.5388
17482TIP3   OH273860   5.628   4.522  13.626  0.4452  0.5380 -0.1648
17482TIP3    H173861   5.701   4.462  13.610  0.5278  0.2308  1.2776
17482TIP3    H273862   5.552   4.466  13.632  0.4655  0.6114  0.8121
17483TIP3   OH273863   2.928   1.671  14.062  0.5278 -0.0322  0.1511
17483TIP3    H173864   3.019   1.701  14.054  0.1925  1.5772  1.7099
17483TIP3    H273865   2.912   1.621  13.982  2.9469 -0.8311  0.0765
17484TIP3   OH273866   3.972   1.287   1.254 -0.0211 -0.3085  0.7078
17484TIP3    H173867   3.967   1.264   1.161 -0.1963  0.4755  0.5197
17484TIP3    H273868   4.047   1.238   1.287  1.2832  0.9513 -0.2969
17485TIP3   OH273869   3.859   3.843   5.087 -0.0380  0.2908  0.0501
17485TIP3    H173870   3.782   3.871   5.038  0.1461  1.2567  0.3029
17485TIP3    H273871   3.830   3.840   5.178 -0.2011 -0.8784 -0.0255
17486TIP3   OH273872   5.972   4.147   2.919 -0.0986  0.3947 -0.6100
17486TIP3    H173873   5.918   4.200   2.860 -0.5532  0.5141 -0.0915
17486TIP3    H273874   5.910   4.109   2.982  0.4524  0.8776  0.2505
17487TIP3   OH273875   0.295   1.793  16.643  0.2060  0.0556  0.2421
17487TIP3    H173876   0.340   1.729  16.588  1.0767  0.6935  0.1942
17487TIP3    H273877   0.211   1.807  16.600 -0.1815 -1.3854  0.5018
17488TIP3   OH273878   0.714   1.197  16.323 -0.1632 -0.1239 -0.4410
17488TIP3    H173879   0.787   1.226  16.378 -0.0315  2.1416 -1.7050
17488TIP3    H273880   0.641   1.253  16.349 -1.4555 -2.1349  0.5823
17489TIP3   OH273881   2.739   2.293   4.352  0.0753  0.0596 -0.3239
17489TIP3    H173882   2.736   2.236   4.429  0.0296  0.6910  0.1566
17489TIP3    H273883   2.778   2.375   4.385  1.2517 -0.0945 -1.2520
17490TIP3   OH273884   0.503   0.574  16.797  0.3557  0.3795  0.2593
17490TIP3    H173885   0.537   0.649  16.749  3.2656 -2.5538 -2.8471
17490TIP3    H273886   0.579   0.539  16.844  0.3714 -2.8850 -1.8571
17491TIP3   OH273887   3.087   0.062  15.992  0.1514 -1.0107  0.3543
17491TIP3    H173888   3.002   0.042  15.953  0.2746 -0.5256 -0.1875
17491TIP3    H273889   3.069   0.068  16.086 -0.6490  0.1314  0.1624
17492TIP3   OH273890   0.896   3.773  13.436 -0.6137 -0.2609  0.0322
17492TIP3    H173891   0.969   3.833  13.455 -1.1687  0.4951 -0.1484
17492TIP3    H273892   0.862   3.749  13.522 -1.5730  1.2053  0.1076
17493TIP3   OH273893   6.024   0.187  11.198  0.3745  0.2040  0.2060
17493TIP3    H173894   6.030   0.215  11.289  0.0971  0.1461  0.2425
17493TIP3    H273895   6.097   0.231  11.155  0.3379  0.4521  0.3989
17494TIP3   OH273896   0.169   6.613   1.366  0.2227 -0.0681  0.0216
17494TIP3    H173897   0.139   6.561   1.292  0.0899 -3.3146  2.1385
17494TIP3    H273898   0.149   6.704   1.342  0.1747 -0.9325 -3.8043
17495TIP3   OH273899   6.482   1.648  16.016  0.3647 -0.3427  0.1898
17495TIP3    H173900   6.508   1.604  15.935 -0.6841 -2.0883  0.7465
17495TIP3    H273901   6.401   1.694  15.993 -0.1302 -1.1315  0.3020
17496TIP3   OH273902   4.500   2.346   3.700 -0.3460  0.4550  0.7563
17496TIP3    H173903   4.477   2.276   3.638 -1.6585  1.4754  0.0246
17496TIP3    H273904   4.567   2.397   3.654  0.4294 -0.1467  1.1886
17497TIP3   OH273905   0.068   5.758   1.572  0.2021 -0.3508  0.4075
17497TIP3    H173906   0.118   5.785   1.649  3.3235 -0.2049 -1.5068
17497TIP3    H273907   0.078   5.831   1.510 -1.7537 -0.6934 -0.4054
17498TIP3   OH273908   6.673   3.404  17.181  0.1551 -0.3183 -0.0592
17498TIP3    H173909   6.660   3.336  17.247 -0.7349 -0.0805  0.0267
17498TIP3    H273910   6.614   3.380  17.110 -0.6798  0.7180  0.2600
17499TIP3   OH273911   4.523   4.755   1.903 -0.3814 -0.4695  0.1935
17499TIP3    H173912   4.485   4.726   1.820  0.5740 -0.6212 -0.1945
17499TIP3    H273913   4.610   4.787   1.880  0.4830 -1.8875  1.3466
17500TIP3   OH273914   4.555   0.061  14.257  0.0328  0.0501  0.1683
17500TIP3    H173915   4.546  -0.031  14.281 -0.2047 -0.0136 -0.1626
17500TIP3    H273916   4.613   0.097  14.324  1.5274 -0.7216 -0.6331
17501TIP3   OH273917   2.662   5.192  11.847 -1.2469 -0.7734  0.1601
17501TIP3    H173918   2.640   5.269  11.795  0.4016 -0.7708 -0.6042
17501TIP3    H273919   2.626   5.210  11.934  0.0434  1.4048  0.3220
17502TIP3   OH273920   2.382   1.764   4.441  0.7781 -0.2737  0.0465
17502TIP3    H173921   2.375   1.697   4.373  0.6972 -0.2934  0.0745
17502TIP3    H273922   2.423   1.839   4.396  0.6443 -0.2557 -0.0457
17503TIP3   OH273923   3.744   6.155   4.132 -0.3100  0.5023 -0.0209
17503TIP3    H173924   3.734   6.095   4.206 -1.2923 -0.2008 -0.6857
17503TIP3    H273925   3.813   6.115   4.079 -0.0259  0.6803  0.2175
17504TIP3   OH273926   1.790   1.266   1.649  0.0773  0.2720  0.1432
17504TIP3    H173927   1.747   1.185   1.622  1.5573 -0.7046  0.6545
17504TIP3    H273928   1.777   1.270   1.744  2.4426 -0.9028  0.5866
17505TIP3   OH273929   2.112   3.634  12.105  0.6472  0.3695 -0.0802
17505TIP3    H173930   2.077   3.599  12.187  1.2708  2.5198  1.1672
17505TIP3    H273931   2.091   3.567  12.040 -0.1917 -1.2390  1.7493
17506TIP3   OH273932   6.468   3.383  12.127 -0.0782  0.4861  0.0370
17506TIP3    H173933   6.474   3.294  12.161  0.5406  0.4393 -0.1693
17506TIP3    H273934   6.413   3.376  12.049 -3.0045  0.8828  1.9100
17507TIP3   OH273935   0.737   2.060  16.549 -0.1537  0.3151 -0.2837
17507TIP3    H173936   0.750   2.122  16.478  1.1858  1.7262  1.1224
17507TIP3    H273937   0.821   2.014  16.556  0.1998  1.1153  1.1861
17508TIP3   OH273938   6.249   2.219   4.991  0.1730  0.3791 -0.7091
17508TIP3    H173939   6.241   2.306   4.953 -2.0020 -0.4162 -2.2586
17508TIP3    H273940   6.194   2.223   5.069 -0.6140  0.1713 -1.2453
17509TIP3   OH273941   0.427   0.018  11.448  0.0984 -0.3480 -0.0946
17509TIP3    H173942   0.413  -0.031  11.367  2.5059 -2.0250  0.3968
17509TIP3    H273943   0.371  -0.025  11.513  0.9909 -1.4747 -0.0436
17510TIP3   OH273944   4.334   1.217  14.323 -0.1401  0.1857  0.1933
17510TIP3    H173945   4.389   1.172  14.258 -0.6396 -0.6977  0.3607
17510TIP3    H273946   4.397   1.263  14.379  0.3401  0.3429 -0.4625
17511TIP3   OH273947   4.670   1.699   5.514 -0.5738 -0.1907 -0.2784
17511TIP3    H173948   4.723   1.697   5.435 -1.8967 -3.5338 -1.2708
17511TIP3    H273949   4.603   1.632   5.500 -3.0693  1.5138  2.2500
17512TIP3   OH273950   4.944   5.328  16.052  0.2678  0.4648  0.0076
17512TIP3    H173951   4.868   5.271  16.063  1.3465 -0.9596  0.3867
17512TIP3    H273952   4.908   5.411  16.021 -1.6292  0.4654  2.0109
17513TIP3   OH273953   0.151   4.147  12.960  0.6487 -0.1766  0.3812
17513TIP3    H173954   0.110   4.219  13.007 -0.7421 -1.2027  0.8038
17513TIP3    H273955   0.205   4.103  13.027 -0.6346 -1.1076  0.8434
17514TIP3   OH273956   3.149   0.598   2.599 -0.2700  0.3168  0.3684
17514TIP3    H173957   3.128   0.620   2.690 -0.0757  0.5976  0.3453
17514TIP3    H273958   3.067   0.564   2.564  0.3670 -2.6809  1.4894
17515TIP3   OH273959   0.795   4.548   4.024  0.0758  0.5120  0.3430
17515TIP3    H173960   0.710   4.504   4.028 -0.5625  1.7837  2.8143
17515TIP3    H273961   0.858   4.476   4.028 -0.8351 -0.4370 -1.2582
17516TIP3   OH273962   6.146   2.072  14.337 -0.0152 -0.4237 -0.5012
17516TIP3    H173963   6.075   2.128  14.369  0.6684 -0.6541  1.5919
17516TIP3    H273964   6.214   2.134  14.310  0.3529 -0.1725  0.8839
17517TIP3   OH273965   4.086   5.069  16.772  0.0548  0.6831  0.4426
17517TIP3    H173966   4.002   5.111  16.750 -0.1385 -0.1545 -0.5188
17517TIP3    H273967   4.064   5.005  16.840 -0.1508  0.3047  0.0317
17518TIP3   OH273968   5.790   1.142   2.401 -0.3775 -0.2104 -0.4120
17518TIP3    H173969   5.697   1.138   2.421 -0.2580 -0.6394  0.0956
17518TIP3    H273970   5.795   1.184   2.315 -0.8395  3.4670  1.1399
17519TIP3   OH273971   6.575   2.410  16.705 -0.1457 -0.2510  0.0242
17519TIP3    H173972   6.573   2.467  16.783 -2.4237 -0.8663  0.5035
17519TIP3    H273973   6.642   2.345  16.724  3.0074  2.5134 -0.8116
17520TIP3   OH273974   4.290   5.608  11.964 -0.2714 -0.6484  0.2586
17520TIP3    H173975   4.268   5.632  12.054 -0.7669 -1.5247  0.3877
17520TIP3    H273976   4.251   5.677  11.910  0.5981  0.2362  0.7398
17521TIP3   OH273977   3.613   2.178   1.258  0.7318  0.1543  0.1471
17521TIP3    H173978   3.526   2.153   1.228  0.8385  0.0403 -0.0731
17521TIP3    H273979   3.600   2.208   1.347  0.5398 -0.3305  0.2873
17522TIP3   OH273980   2.973   0.946   6.272  0.0540  0.1279 -0.9042
17522TIP3    H173981   2.907   1.015   6.265  0.3711  0.8766  1.9998
17522TIP3    H273982   3.037   0.981   6.334  1.1794 -2.0678 -0.7369
17523TIP3   OH273983   0.420   0.036  12.804  0.4381  0.5196  0.2296
17523TIP3    H173984   0.396   0.033  12.711 -0.1902 -0.1311  0.4057
17523TIP3    H273985   0.481   0.110  12.810  0.9289  0.2206 -0.7963
17524TIP3   OH273986   4.799   6.712   1.536 -0.1922 -0.2691  0.3262
17524TIP3    H173987   4.847   6.703   1.453 -0.2717  0.0441  0.2440
17524TIP3    H273988   4.855   6.669   1.601 -0.1737 -0.6022  0.0943
17525TIP3   OH273989   3.738   5.894  10.887 -0.4467 -0.0780 -0.0958
17525TIP3    H173990   3.654   5.911  10.931  0.1882  0.9448  0.7505
17525TIP3    H273991   3.789   5.974  10.900 -0.1892  0.2519 -2.6586
17526TIP3   OH273992   4.231   4.590  16.881  0.6479  0.2785 -0.2265
17526TIP3    H173993   4.178   4.634  16.815  0.9705 -1.4885 -1.7594
17526TIP3    H273994   4.268   4.661  16.933 -1.4107  1.6575 -0.4897
17527TIP3   OH273995   1.355   0.583  11.724  0.3064 -1.1424 -0.1349
17527TIP3    H173996   1.380   0.499  11.683  1.0955 -0.1910 -1.7149
17527TIP3    H273997   1.437   0.617  11.759 -0.0725 -1.1614  0.7854
17528TIP3   OH273998   3.821   2.884  11.471  0.4792  1.0293 -0.3428
17528TIP3    H173999   3.738   2.838  11.482  0.3068  1.0269 -1.5852
17528TIP3    H274000   3.825   2.944  11.546 -0.5140  0.8368 -0.1243
17529TIP3   OH274001   0.663   6.111  15.358  0.1146 -0.1632 -0.3881
17529TIP3    H174002   0.642   6.078  15.445 -0.1078 -0.6897 -0.6412
17529TIP3    H274003   0.594   6.174  15.338 -0.1731 -0.4996 -0.4423
17530TIP3   OH274004   5.260   0.161   5.703  0.5846 -0.4294 -0.1586
17530TIP3    H174005   5.314   0.232   5.739 -0.8419  0.3615  0.4865
17530TIP3    H274006   5.271   0.089   5.765  1.6907 -0.6453 -0.5802
17531TIP3   OH274007   4.800   3.858  16.962 -0.7657  0.1026  0.1308
17531TIP3    H174008   4.710   3.827  16.970 -1.5900  2.3209 -0.0176
17531TIP3    H274009   4.800   3.944  17.003  1.4440 -0.0702  0.6106
17532TIP3   OH274010   3.616   1.935  13.942  0.4228 -0.4397 -0.0113
17532TIP3    H174011   3.527   1.964  13.923  0.6958  0.8635  0.6073
17532TIP3    H274012   3.655   1.920  13.856 -0.3760 -1.0092 -0.2919
17533TIP3   OH274013   1.413   2.151  13.275 -0.4840  0.2265  0.0154
17533TIP3    H174014   1.360   2.153  13.355 -0.1279  0.0579  0.2637
17533TIP3    H274015   1.399   2.063  13.239 -0.0994  0.0508  0.2786
17534TIP3   OH274016   1.892   5.790  15.089 -0.8093  0.3123  0.9677
17534TIP3    H174017   1.964   5.853  15.097 -1.0527  0.5834  1.0562
17534TIP3    H274018   1.814   5.839  15.118 -1.1186  0.1977  0.3448
17535TIP3   OH274019   0.909   3.472  16.761 -0.5244  0.0823  0.5420
17535TIP3    H174020   0.867   3.508  16.683 -0.6546  0.0684  0.6051
17535TIP3    H274021   0.917   3.547  16.821  0.1423  0.2329  0.2748
17536TIP3   OH274022   4.960   3.505  12.307 -0.2437  0.2165 -0.1608
17536TIP3    H174023   4.982   3.512  12.214 -0.9488  0.4779 -0.3128
17536TIP3    H274024   4.949   3.411  12.323  1.0682  0.0652 -0.0530
17537TIP3   OH274025   1.412   2.153  17.139 -0.4956  0.9510 -0.2595
17537TIP3    H174026   1.415   2.190  17.051  0.6517 -1.0617 -1.1474
17537TIP3    H274027   1.440   2.224  17.196 -0.1615  1.9698 -1.6432
17538TIP3   OH274028   0.385   0.023   2.875 -0.1568  0.1161  0.6481
17538TIP3    H174029   0.419  -0.033   2.944  0.9790 -0.1418 -0.0929
17538TIP3    H274030   0.448   0.095   2.869 -0.2166  0.1151 -0.1372
17539TIP3   OH274031   0.901   3.498   1.409 -0.0297 -0.0419  0.0299
17539TIP3    H174032   0.898   3.508   1.314 -0.9978 -0.3273  0.0144
17539TIP3    H274033   0.984   3.454   1.426  1.1444  1.8873 -0.4842
17540TIP3   OH274034   1.370   2.740  11.889  0.0071 -0.3184  0.2442
17540TIP3    H174035   1.383   2.719  11.982 -2.6048  3.0064  1.5974
17540TIP3    H274036   1.291   2.692  11.864 -0.5126  0.4097  0.4458
17541TIP3   OH274037   1.083   4.513  15.715  0.1214 -0.5598  0.3479
17541TIP3    H174038   1.100   4.558  15.632  0.6949  0.4067  0.9643
17541TIP3    H274039   0.990   4.493  15.713  0.1403 -0.5871 -0.5493
17542TIP3   OH274040   4.856   2.332  13.451  0.1994 -0.1158 -0.1870
17542TIP3    H174041   4.792   2.265  13.428  0.9829 -0.6647 -0.8490
17542TIP3    H274042   4.832   2.358  13.540  0.5847 -2.1424  0.5797
17543TIP3   OH274043   2.252   1.093  15.661  0.2712 -0.4189  0.8112
17543TIP3    H174044   2.166   1.131  15.642  1.0932  1.3823  0.4120
17543TIP3    H274045   2.311   1.169  15.665  1.7723 -1.5639  1.4947
17544TIP3   OH274046   6.335   1.164  14.260 -0.5876 -0.1456  0.2661
17544TIP3    H174047   6.336   1.072  14.286  0.9671 -0.2919 -0.1856
17544TIP3    H274048   6.412   1.201  14.303 -1.1566  0.9319  0.3788
17545TIP3   OH274049   1.062   6.487   2.411 -0.3039 -0.5050  0.1431
17545TIP3    H174050   0.976   6.485   2.453 -1.1743  0.3413 -1.4878
17545TIP3    H274051   1.043   6.509   2.320  1.7172  0.5674 -0.0659
17546TIP3   OH274052   5.774   0.029   4.321  0.7366 -0.0234 -0.2629
17546TIP3    H174053   5.740   0.099   4.376  0.9216 -1.0463  1.2250
17546TIP3    H274054   5.868   0.050   4.312  0.1796  1.8453 -2.9106
17547TIP3   OH274055   0.670   6.704   3.346 -0.3641  0.4220  0.1559
17547TIP3    H174056   0.714   6.779   3.307 -0.3841  1.5125  2.0933
17547TIP3    H274057   0.740   6.642   3.365 -0.5058 -0.7858 -2.7960
17548TIP3   OH274058   6.182   5.951  14.456  0.0545 -0.1112 -0.0601
17548TIP3    H174059   6.171   5.977  14.365  0.5991  0.6190  0.0643
17548TIP3    H274060   6.277   5.958  14.471 -0.1240  0.6610  0.8039
17549TIP3   OH274061   1.190   2.189  15.179 -0.2792  0.6993  0.0847
17549TIP3    H174062   1.261   2.225  15.126 -0.7453  0.0928 -0.9964
17549TIP3    H274063   1.210   2.215  15.268  0.2724  2.1934 -0.4455
17550TIP3   OH274064   1.375   0.469   0.796 -0.0334 -0.0207  0.6314
17550TIP3    H174065   1.403   0.381   0.823  1.3682  0.1092 -0.3041
17550TIP3    H274066   1.456   0.520   0.793 -0.7548  1.1587  0.5819
17551TIP3   OH274067   1.098   3.132   0.528  0.1940  0.1806 -0.1791
17551TIP3    H174068   1.112   3.225   0.512 -1.3124  0.3332 -0.7870
17551TIP3    H274069   1.141   3.115   0.612  0.4769  1.4236 -0.0559
17552TIP3   OH274070   2.000   6.509   3.216  0.4380 -0.1420  0.0601
17552TIP3    H174071   1.965   6.594   3.241 -3.0977 -1.1928 -0.7033
17552TIP3    H274072   2.062   6.487   3.285 -1.0332  1.6258  2.0833
17553TIP3   OH274073   0.995   5.664  17.149 -0.1945 -0.1971 -0.3188
17553TIP3    H174074   1.065   5.670  17.213  0.0450 -0.8320 -0.5159
17553TIP3    H274075   0.929   5.727  17.180  1.0646  1.5094 -0.9145
17554TIP3   OH274076   2.113   3.183  14.694 -0.2264  0.3725 -0.3474
17554TIP3    H174077   2.063   3.101  14.696  2.1437 -1.1613  0.9777
17554TIP3    H274078   2.106   3.218  14.783  0.4036  0.5614 -0.3671
17555TIP3   OH274079   3.738   6.651  14.538  0.0852 -0.5642 -0.2754
17555TIP3    H174080   3.710   6.626  14.450 -0.3099 -1.5078  0.1122
17555TIP3    H274081   3.686   6.728  14.559 -0.3760 -0.7931 -0.5682
17556TIP3   OH274082   0.732   2.992   3.075 -0.1711  0.3630  0.0694
17556TIP3    H174083   0.788   3.021   3.147  0.6067 -0.1275 -0.3209
17556TIP3    H274084   0.792   2.952   3.012 -1.2438 -3.0081  0.9839
17557TIP3   OH274085   2.506   5.242  13.517 -0.2817  0.1758 -0.7144
17557TIP3    H174086   2.495   5.337  13.529  0.6304  0.1199  0.7800
17557TIP3    H274087   2.599   5.231  13.499 -0.3010 -0.4892 -0.4056
17558TIP3   OH274088   2.304   4.209  15.013  0.3682  0.3977 -0.3848
17558TIP3    H174089   2.240   4.187  15.081 -0.4544  0.0674 -1.2497
17558TIP3    H274090   2.338   4.295  15.039 -1.2844  1.1298 -0.5134
17559TIP3   OH274091   6.055   0.565   4.353 -0.1203 -0.2171 -0.7115
17559TIP3    H174092   6.029   0.476   4.329 -1.6336  0.5159 -1.8873
17559TIP3    H274093   6.142   0.576   4.314 -0.6400 -0.5999 -2.0054
17560TIP3   OH274094   1.333   1.952   2.545 -0.3398  0.3221  0.3947
17560TIP3    H174095   1.356   2.026   2.489 -2.4506  0.2765 -0.6255
17560TIP3    H274096   1.328   1.877   2.485  0.2893 -0.3566  1.1655
17561TIP3   OH274097   2.212   0.539  15.989  0.0747 -0.1436  0.6717
17561TIP3    H174098   2.171   0.610  16.038 -1.9424 -0.2118 -0.8073
17561TIP3    H274099   2.247   0.480  16.056 -2.2742 -0.0609  2.0539
17562TIP3   OH274100   2.470   0.805  14.609  0.3566  0.1266 -0.1125
17562TIP3    H174101   2.446   0.729  14.557 -2.2364  1.1607 -0.5885
17562TIP3    H274102   2.549   0.839  14.566  0.0794 -0.8296 -1.4526
17563TIP3   OH274103   5.574   2.552   4.924 -0.3948  0.5275 -0.6036
17563TIP3    H174104   5.601   2.466   4.956  0.2005  0.8490 -0.2076
17563TIP3    H274105   5.479   2.547   4.918 -0.5045  0.3368  0.9248
17564TIP3   OH274106   4.188   3.654  14.514 -0.0999  0.5855 -0.3294
17564TIP3    H174107   4.143   3.636  14.597 -0.0908  2.1501  0.0502
17564TIP3    H274108   4.154   3.589  14.453 -2.9681  1.7237 -0.0873
17565TIP3   OH274109   2.200   2.623   1.423  0.6071 -0.7159  0.0551
17565TIP3    H174110   2.273   2.683   1.438 -1.2166  1.4387  0.8464
17565TIP3    H274111   2.208   2.598   1.331  2.8773 -1.3952  0.3631
17566TIP3   OH274112   5.887   3.450  10.833 -0.0521 -0.0157 -0.0524
17566TIP3    H174113   5.910   3.388  10.764 -1.5998  0.5902 -1.1730
17566TIP3    H274114   5.815   3.501  10.796 -1.2543  0.0279  2.1992
17567TIP3   OH274115   0.148   4.649   2.039  0.3670 -0.6762  0.2465
17567TIP3    H174116   0.121   4.715   2.102 -1.7300 -1.8058  0.5911
17567TIP3    H274117   0.239   4.672   2.019  0.4013  0.9855  2.0047
17568TIP3   OH274118   4.754   2.588   4.752 -0.1887 -0.3265 -0.2478
17568TIP3    H174119   4.678   2.598   4.695 -0.2554 -1.5245 -0.3839
17568TIP3    H274120   4.742   2.503   4.794 -0.2641  0.6118  1.7543
17569TIP3   OH274121   2.783   5.725  15.870  0.1251 -0.6128 -0.4154
17569TIP3    H174122   2.812   5.661  15.935  1.5392  1.6042  1.3200
17569TIP3    H274123   2.730   5.787  15.920 -1.1239 -0.3559 -2.0113
17570TIP3   OH274124   5.593   1.663  15.110 -0.5404  0.5728  0.2531
17570TIP3    H174125   5.554   1.624  15.188 -0.3121 -1.1034 -0.4165
17570TIP3    H274126   5.520   1.706  15.066 -1.1793 -0.5265  0.1925
17571TIP3   OH274127   2.844   1.513  12.466 -0.6984 -0.3153  0.0973
17571TIP3    H174128   2.913   1.452  12.441  0.3978  0.1387  1.8287
17571TIP3    H274129   2.862   1.533  12.557 -4.0747 -1.4094  1.1633
17572TIP3   OH274130   1.553   5.730   6.109  0.2828 -0.1682  1.1051
17572TIP3    H174131   1.592   5.799   6.162 -1.6612  1.7573  0.1557
17572TIP3    H274132   1.536   5.659   6.171  1.6125  0.4598  2.2578
17573TIP3   OH274133   1.719   0.666   5.268  0.1113  0.0488  1.0065
17573TIP3    H174134   1.644   0.726   5.271 -0.1768 -0.2449 -0.0299
17573TIP3    H274135   1.688   0.586   5.310 -0.5798 -0.5030 -0.4835
17574TIP3   OH274136   6.363   5.891  15.582 -0.2266 -0.2605  0.4860
17574TIP3    H174137   6.294   5.876  15.647  0.4273 -2.5178  0.7601
17574TIP3    H274138   6.441   5.910  15.635  0.1977 -1.6131  0.3858
17575TIP3   OH274139   4.592   1.207  15.535 -0.1510 -0.0326 -0.5441
17575TIP3    H174140   4.547   1.205  15.451 -1.3593 -0.9826  0.0943
17575TIP3    H274141   4.640   1.125  15.539 -1.5662 -0.8575  0.4305
17576TIP3   OH274142   1.837   4.718   2.501  0.3353 -0.3054  0.0131
17576TIP3    H174143   1.760   4.666   2.479  0.1945 -0.7918  1.5030
17576TIP3    H274144   1.894   4.710   2.425 -0.3600 -1.3535 -0.4260
17577TIP3   OH274145   6.441   4.302   2.751  0.4417  0.2357  0.4428
17577TIP3    H174146   6.395   4.227   2.790 -0.3833  1.1472  1.2860
17577TIP3    H274147   6.456   4.361   2.825  0.1101  1.3802 -0.3886
17578TIP3   OH274148   1.395   5.803  11.375  0.2505  0.2627 -0.6324
17578TIP3    H174149   1.426   5.854  11.301 -1.1736 -1.0493 -2.2168
17578TIP3    H274150   1.466   5.740  11.392  1.0405  1.2554 -0.1338
17579TIP3   OH274151   6.382   1.122  11.012  0.0477 -0.1205 -0.1234
17579TIP3    H174152   6.388   1.217  11.013 -0.6439 -0.0207 -2.0316
17579TIP3    H274153   6.296   1.103  11.050  0.3895 -0.0383  0.7216
17580TIP3   OH274154   5.667   6.746  14.478 -0.3424  0.0151  0.1565
17580TIP3    H174155   5.693   6.821  14.531 -0.4768 -0.1387  0.4414
17580TIP3    H274156   5.750   6.707  14.449 -0.2363 -0.6500  1.3060
17581TIP3   OH274157   0.277   2.821   3.018 -0.3364  0.6342  0.1673
17581TIP3    H174158   0.293   2.834   2.925  0.7698  0.4067  0.3214
17581TIP3    H274159   0.243   2.732   3.025  0.6917  0.2255  0.0995
17582TIP3   OH274160   6.567   1.623  13.720 -0.1388  0.5234 -0.2513
17582TIP3    H174161   6.503   1.571  13.768 -0.6456  1.7286  0.4185
17582TIP3    H274162   6.596   1.689  13.783  2.9957 -0.9306  0.0226
17583TIP3   OH274163   5.502   4.780   4.319 -0.0011  0.0441  0.4616
17583TIP3    H174164   5.433   4.789   4.254  1.4380 -2.5801 -1.5745
17583TIP3    H274165   5.465   4.722   4.386 -0.3086  0.0011  0.2550
17584TIP3   OH274166   4.748   3.520   5.238  0.1308  0.5711 -0.4625
17584TIP3    H174167   4.741   3.587   5.306 -0.3127 -0.4992  0.5625
17584TIP3    H274168   4.769   3.570   5.158 -0.2154  1.9303  0.2620
17585TIP3   OH274169   0.325   5.831  14.823 -0.4585  0.4385 -0.1129
17585TIP3    H174170   0.263   5.759  14.834  0.5581 -0.3518  0.5847
17585TIP3    H274171   0.339   5.837  14.728 -0.5106 -0.3188 -0.1711
17586TIP3   OH274172   4.622   2.685   3.228  0.2561  0.1675  0.2082
17586TIP3    H174173   4.631   2.595   3.197  1.3236  0.5188 -0.5291
17586TIP3    H274174   4.572   2.729   3.160 -1.2466 -0.0966  1.0782
17587TIP3   OH274175   4.173   3.671  15.006  0.2434  0.3374 -0.2913
17587TIP3    H174176   4.080   3.692  15.008  0.2185  0.2959 -0.8226
17587TIP3    H274177   4.176   3.576  14.994  0.3550  0.3342 -0.2418
17588TIP3   OH274178   5.222   3.045   2.884 -0.4689  0.1375  1.0457
17588TIP3    H174179   5.227   2.950   2.875  0.0640  0.1408  1.2796
17588TIP3    H274180   5.222   3.078   2.794  2.6394  0.0688  0.9131
17589TIP3   OH274181   2.750   0.637   1.172 -0.3706 -0.1472  0.0279
17589TIP3    H174182   2.835   0.672   1.145 -0.3601 -0.2024 -0.0111
17589TIP3    H274183   2.720   0.697   1.240  0.3742 -0.9517  1.0987
17590TIP3   OH274184   4.702   5.946  13.903 -0.8060  0.2706  0.6085
17590TIP3    H174185   4.728   5.924  13.813 -0.3302  1.1422  0.5286
17590TIP3    H274186   4.611   5.915  13.909  0.1538 -2.8446  0.9110
17591TIP3   OH274187   1.427   5.175  13.393  0.3926  0.1308  0.3343
17591TIP3    H174188   1.392   5.254  13.353  1.4172  0.1342 -0.6201
17591TIP3    H274189   1.434   5.195  13.486  0.9760  1.2992  0.0566
17592TIP3   OH274190   5.264   5.302   5.090  0.3872 -0.4976  0.2398
17592TIP3    H174191   5.224   5.350   5.017  0.5527 -0.2932  0.2839
17592TIP3    H274192   5.348   5.271   5.055  1.9136  2.2001  1.2543
17593TIP3   OH274193   4.180   1.982  17.147  0.3717 -0.0998 -0.4518
17593TIP3    H174194   4.163   2.019  17.060  3.6007  2.4973 -0.1400
17593TIP3    H274195   4.210   1.893  17.130 -0.9935 -0.3520 -1.7705
17594TIP3   OH274196   1.913   5.811   1.681 -0.5786 -0.1499 -0.4411
17594TIP3    H174197   1.972   5.737   1.694 -3.1182 -2.7678 -2.4890
17594TIP3    H274198   1.932   5.841   1.592 -1.5296 -0.2754 -0.6980
17595TIP3   OH274199   5.931   1.304   3.085 -0.4418 -0.0544 -0.4136
17595TIP3    H174200   5.974   1.228   3.045 -1.4354 -1.4111  0.9622
17595TIP3    H274201   5.934   1.372   3.018  0.7433 -1.2106 -1.5881
17596TIP3   OH274202   0.413   3.076  10.889 -0.5802  0.0925 -0.1860
17596TIP3    H174203   0.413   3.136  10.964  0.0136  1.8584 -1.5384
17596TIP3    H274204   0.481   3.012  10.911 -1.7917 -0.6644  1.6569
17597TIP3   OH274205   4.416   5.809   0.318 -0.0908  0.8286 -0.0973
17597TIP3    H174206   4.405   5.778   0.229 -0.6186  2.3372 -0.5904
17597TIP3    H274207   4.350   5.877   0.328  1.1376  1.9360  0.8447
17598TIP3   OH274208   3.173   1.641  14.749  0.8930  0.2706  0.0315
17598TIP3    H174209   3.133   1.649  14.662  0.6899 -0.8952  0.0092
17598TIP3    H274210   3.254   1.692  14.741  0.2887  1.1971 -0.4507
17599TIP3   OH274211   4.350   5.900   2.506  0.2439 -0.0990  0.0178
17599TIP3    H174212   4.280   5.891   2.441 -0.3702  1.8867  0.3362
17599TIP3    H274213   4.388   5.986   2.487  0.7397  0.0506  1.6235
17600TIP3   OH274214   0.113   6.169   3.441  0.5184  0.3479  0.0285
17600TIP3    H174215   0.192   6.211   3.408  1.2189 -0.6977  0.3394
17600TIP3    H274216   0.144   6.090   3.486 -0.5038  0.9691  1.9586
17601TIP3   OH274217   5.527   5.926  16.341  0.4662  0.0410 -0.1988
17601TIP3    H174218   5.451   5.979  16.317 -0.2765 -0.4138  1.0318
17601TIP3    H274219   5.510   5.841  16.301  0.7884  0.2078 -0.6958
17602TIP3   OH274220   1.539   5.571   3.257  0.0572 -0.4543 -0.1369
17602TIP3    H174221   1.509   5.593   3.345  0.3881 -2.1721  0.4490
17602TIP3    H274222   1.627   5.609   3.252 -0.4464  0.7426 -0.2154
17603TIP3   OH274223   1.901   4.477   4.471 -0.3880 -1.0156  0.5351
17603TIP3    H174224   1.909   4.418   4.545  1.3677 -1.1118  0.3078
17603TIP3    H274225   1.843   4.547   4.502 -0.4273 -1.5306  1.6688
17604TIP3   OH274226   5.023   3.577  14.729 -0.1674 -0.4764  0.0125
17604TIP3    H174227   4.940   3.578  14.682  0.1898  0.2877 -0.6284
17604TIP3    H274228   5.046   3.670  14.739 -0.1325 -0.6143  1.5315
17605TIP3   OH274229   3.640   2.787  14.916  0.0417 -0.7094  0.0364
17605TIP3    H174230   3.644   2.871  14.871  0.2282 -0.6458  0.1662
17605TIP3    H274231   3.613   2.809  15.005  1.0639 -0.6683  0.3508
17606TIP3   OH274232   3.687   4.810  14.134 -0.0865 -0.3810  0.1920
17606TIP3    H174233   3.596   4.789  14.112 -0.1850  0.8974 -0.7446
17606TIP3    H274234   3.731   4.725  14.137 -1.2099 -0.9857  0.2019
17607TIP3   OH274235   4.113   3.232   2.521 -0.0536 -0.1492 -0.0176
17607TIP3    H174236   4.080   3.316   2.487  2.0837  1.3618  1.4325
17607TIP3    H274237   4.197   3.220   2.477 -1.0800 -2.5253 -1.5449
17608TIP3   OH274238   5.471   3.886   0.885 -0.1316 -0.8436 -0.3290
17608TIP3    H174239   5.508   3.799   0.897  0.6816 -0.4601  0.0253
17608TIP3    H274240   5.412   3.898   0.959 -0.6882 -1.2988 -0.6810
17609TIP3   OH274241   6.293   6.023   6.422  0.3672  0.1211  0.3127
17609TIP3    H174242   6.216   5.979   6.459  0.1614 -1.0065 -1.3669
17609TIP3    H274243   6.352   5.952   6.398  0.8824  0.8640 -0.6710
17610TIP3   OH274244   5.463   1.577   0.226  0.3124  0.4575  0.3264
17610TIP3    H174245   5.550   1.552   0.259  1.0028  1.8761 -0.3345
17610TIP3    H274246   5.426   1.633   0.295  1.4025  2.7142 -0.8172
17611TIP3   OH274247   2.800   4.191  13.154  0.2531  0.5040 -0.8391
17611TIP3    H174248   2.877   4.145  13.188  1.2788  2.1791 -0.7751
17611TIP3    H274249   2.829   4.230  13.071 -0.2134  1.9062 -0.3833
17612TIP3   OH274250   5.280   1.815   4.367 -0.1989  0.5039 -0.5866
17612TIP3    H174251   5.203   1.862   4.398 -1.5765 -2.7555  1.5633
17612TIP3    H274252   5.350   1.841   4.427 -0.1949  1.7166 -1.0876
17613TIP3   OH274253   5.659   4.826  11.736 -0.1157 -0.5435  0.2155
17613TIP3    H174254   5.658   4.920  11.724  1.1418 -0.3364  1.4160
17613TIP3    H274255   5.748   4.800  11.710 -0.5353 -1.4354 -0.3649
17614TIP3   OH274256   0.196   4.061   3.223  0.1988 -0.0381  0.4399
17614TIP3    H174257   0.225   4.141   3.180  0.1364  0.4782  1.3350
17614TIP3    H274258   0.270   4.001   3.216  0.5493  0.3883  0.4886
17615TIP3   OH274259   0.538   1.034   3.731 -1.0616 -0.8057  0.5399
17615TIP3    H174260   0.492   1.106   3.688 -0.5298 -1.1265 -0.6058
17615TIP3    H274261   0.562   0.975   3.660  1.2882 -0.5701  1.0404
17616TIP3   OH274262   2.815   4.527   1.699  0.1381 -0.3161 -0.4376
17616TIP3    H174263   2.840   4.445   1.657  0.4590 -0.1847 -0.5066
17616TIP3    H274264   2.756   4.569   1.636  1.7051  0.5223 -1.4035
17617TIP3   OH274265   3.872   6.611   2.710 -0.9546 -0.2512 -0.1236
17617TIP3    H174266   3.890   6.699   2.678 -0.1524 -0.9953 -1.7967
17617TIP3    H274267   3.815   6.625   2.786 -0.8454  1.6966 -0.3490
17618TIP3   OH274268   6.013   2.860   0.664 -0.3792 -0.6312  0.6021
17618TIP3    H174269   5.978   2.937   0.709  0.2765 -0.5666  1.0050
17618TIP3    H274270   6.008   2.790   0.729 -0.3949 -0.7819  0.4386
17619TIP3   OH274271   1.437   1.579  15.740  0.1163 -0.0257 -0.3548
17619TIP3    H174272   1.367   1.642  15.753  0.7679  0.2745  2.0121
17619TIP3    H274273   1.413   1.504  15.795  1.6380  0.0895  0.5144
17620TIP3   OH274274   1.648   1.666  13.979 -0.1141  0.0002  0.0276
17620TIP3    H174275   1.720   1.661  13.916 -1.2292 -1.8858 -1.1941
17620TIP3    H274276   1.651   1.582  14.025 -2.0610 -0.4845 -0.6682
17621TIP3   OH274277   1.089   5.598  15.863 -0.1309 -0.5565 -0.1199
17621TIP3    H174278   1.081   5.664  15.932 -0.1566 -0.9698  0.2826
17621TIP3    H274279   1.053   5.639  15.785 -1.0288 -0.4265  0.3474
17622TIP3   OH274280   6.153   5.442   3.778 -0.4352 -0.1870 -0.2273
17622TIP3    H174281   6.174   5.351   3.796 -0.8635 -0.1325  0.6176
17622TIP3    H274282   6.167   5.487   3.862 -0.8311  0.4040 -0.4679
17623TIP3   OH274283   0.981   4.474   0.595  0.0467  0.1879  0.0102
17623TIP3    H174284   1.040   4.491   0.669  0.9217 -1.8473 -0.1481
17623TIP3    H274285   1.039   4.471   0.519 -0.4118 -0.7784 -0.3084
17624TIP3   OH274286   4.013   0.542   0.914  0.1987  0.6677  0.1236
17624TIP3    H174287   4.064   0.514   0.839  0.0616  1.2583 -0.1941
17624TIP3    H274288   4.059   0.505   0.990  0.4556  0.2536 -0.2307
17625TIP3   OH274289   6.546   2.710   0.165  0.4982 -0.1240 -0.0203
17625TIP3    H174290   6.493   2.655   0.223  0.4461  1.3751  1.4346
17625TIP3    H274291   6.594   2.648   0.110 -1.5846 -1.5548 -0.3282
17626TIP3   OH274292   6.067   5.709   3.795  0.1311  0.2373  0.1572
17626TIP3    H174293   6.097   5.621   3.775 -1.3256  0.0317 -1.2504
17626TIP3    H274294   6.071   5.714   3.891  0.9105 -1.0882  0.2187
17627TIP3   OH274295   0.410   6.461   2.153  0.2114  0.5679  0.2067
17627TIP3    H174296   0.335   6.427   2.104  0.5287  0.6142 -0.3222
17627TIP3    H274297   0.472   6.490   2.086  0.7163  0.5094  0.6325
17628TIP3   OH274298   0.144   2.381   5.962  0.0285 -0.0864 -0.6116
17628TIP3    H174299   0.154   2.286   5.955 -0.9606 -0.1900 -0.7192
17628TIP3    H274300   0.118   2.395   6.053 -0.9856 -0.0323 -0.9012
17629TIP3   OH274301   1.444   3.773   3.612 -0.1497  0.0483  0.3232
17629TIP3    H174302   1.461   3.717   3.688 -0.9274 -0.3599  0.2002
17629TIP3    H274303   1.381   3.838   3.643  0.8262  0.9520  0.4976
17630TIP3   OH274304   0.123   5.395  16.331 -0.0341 -0.4191  0.1253
17630TIP3    H174305   0.055   5.445  16.287  0.1077 -1.1465 -0.9560
17630TIP3    H274306   0.085   5.372  16.416  0.1962  2.1543  0.9838
17631TIP3   OH274307   4.005   3.833   3.448 -0.0674 -0.0765 -0.0194
17631TIP3    H174308   4.010   3.739   3.431  0.8660 -0.1474  0.5779
17631TIP3    H274309   3.986   3.840   3.542 -0.6326  0.3329 -0.1594
17632TIP3   OH274310   0.692   0.734   0.442 -0.0339  0.0255 -0.3554
17632TIP3    H174311   0.681   0.815   0.391 -0.1696  0.8075  0.8655
17632TIP3    H274312   0.618   0.734   0.502 -0.1430 -1.1305 -0.4703
17633TIP3   OH274313   0.760   5.522  15.600  0.2974  0.8379 -0.4452
17633TIP3    H174314   0.694   5.583  15.566  0.3871 -0.3635 -2.9967
17633TIP3    H274315   0.711   5.442  15.617  0.5851  0.8818  0.6178
17634TIP3   OH274316   1.270   0.126  17.094  0.4617  0.7500  0.2325
17634TIP3    H174317   1.290   0.203  17.042  0.6001  0.0057 -0.8582
17634TIP3    H274318   1.174   0.122  17.096  0.4424  1.4701  1.1079
17635TIP3   OH274319   6.083   3.478  12.738 -0.4228  0.0044 -0.7171
17635TIP3    H174320   6.153   3.454  12.677  0.1503  1.4405 -0.6507
17635TIP3    H274321   6.120   3.548  12.791 -2.4287  1.9878 -1.7694
17636TIP3   OH274322   2.923   4.516   0.636  0.6417  0.0711  0.0302
17636TIP3    H174323   2.875   4.445   0.593 -0.8924  0.7610  0.5322
17636TIP3    H274324   2.930   4.488   0.727 -0.5297  0.7856  0.3746
17637TIP3   OH274325   3.221   0.238  12.805  0.3413 -0.0489  0.1622
17637TIP3    H174326   3.252   0.315  12.852 -0.8080  0.3794  0.2459
17637TIP3    H274327   3.262   0.244  12.719  0.1479  0.7477  0.1195
17638TIP3   OH274328   1.323   0.951  13.712 -0.1729  0.1646  0.5994
17638TIP3    H174329   1.327   1.016  13.642 -1.4396 -0.3712  0.0043
17638TIP3    H274330   1.234   0.955  13.745 -0.0759 -0.7826  1.0278
17639TIP3   OH274331   5.689   4.333  16.553  0.4586  0.4034  0.0979
17639TIP3    H174332   5.656   4.262  16.498 -0.7934  0.0606  1.2364
17639TIP3    H274333   5.719   4.289  16.633 -1.4648  1.1788  1.3362
17640TIP3   OH274334   5.661   0.766  14.565  0.0431  0.7558 -0.4041
17640TIP3    H174335   5.691   0.842  14.614 -0.7490  1.7981 -1.4899
17640TIP3    H274336   5.726   0.698  14.583  1.9255  2.3024 -1.0687
17641TIP3   OH274337   4.819   2.541  13.082 -0.0482 -0.0357 -0.4447
17641TIP3    H174338   4.747   2.501  13.033 -0.2636  1.3731 -1.3407
17641TIP3    H274339   4.789   2.542  13.173 -0.9908  0.1556 -0.7459
17642TIP3   OH274340   5.910   4.388   3.560  0.3541 -0.7288 -0.0172
17642TIP3    H174341   5.842   4.339   3.606  0.8303 -1.5342 -0.1361
17642TIP3    H274342   5.865   4.464   3.523 -0.0210  0.0041  1.8341
17643TIP3   OH274343   1.034   3.387   0.922  0.3168  0.1182 -0.3473
17643TIP3    H174344   1.120   3.377   0.882  0.0599 -1.3313 -0.6039
17643TIP3    H274345   0.972   3.382   0.849 -0.0279  0.2093 -0.0689
17644TIP3   OH274346   1.451   3.170  11.769 -0.7551 -0.1423  0.1991
17644TIP3    H174347   1.479   3.079  11.762 -0.0624 -0.0493  1.5504
17644TIP3    H274348   1.533   3.219  11.781 -1.1523  0.6263 -0.1658
17645TIP3   OH274349   1.315   3.711  13.552  0.3725  0.0107 -0.4159
17645TIP3    H174350   1.293   3.640  13.613 -0.5298  0.7459  0.1273
17645TIP3    H274351   1.352   3.780  13.608  2.1079 -0.3477 -1.0496
17646TIP3   OH274352   5.118   5.452   0.398 -0.1440  0.1201  1.1856
17646TIP3    H174353   5.099   5.390   0.329 -1.5379  0.1228  1.5497
17646TIP3    H274354   5.196   5.499   0.367 -1.3874  0.9182 -0.9214
17647TIP3   OH274355   5.052   4.564   0.321  0.0840  0.2071  0.1947
17647TIP3    H174356   5.094   4.650   0.329  0.2242  0.1260  0.3509
17647TIP3    H274357   4.960   4.581   0.339 -0.1122  0.5466 -1.0912
17648TIP3   OH274358   3.952   2.948   2.274 -0.7487 -0.2965  0.1112
17648TIP3    H174359   3.968   2.941   2.369  0.9646  1.9852  0.0876
17648TIP3    H274360   3.963   2.859   2.241  1.2202 -0.7344  1.7529
17649TIP3   OH274361   4.063   6.763  12.250 -0.0776  0.2550  0.6036
17649TIP3    H174362   4.026   6.678  12.272 -0.4325  0.9835  3.1024
17649TIP3    H274363   4.158   6.749  12.252 -0.1318 -0.0472  1.1040
17650TIP3   OH274364   1.617   2.512  16.202  0.3763  0.5545  0.3950
17650TIP3    H174365   1.527   2.487  16.185  0.9550 -2.4744  1.2598
17650TIP3    H274366   1.613   2.564  16.282 -0.6019  0.5098  0.3798
17651TIP3   OH274367   2.917   0.149   2.062 -0.0061 -0.0634  0.1777
17651TIP3    H174368   3.006   0.128   2.091 -0.2905  0.0331  1.1575
17651TIP3    H274369   2.922   0.148   1.967  0.7651 -1.2908  0.2056
17652TIP3   OH274370   0.365   3.275  11.088 -0.0069  0.6319  0.1081
17652TIP3    H174371   0.411   3.349  11.048  1.2537 -0.3344 -0.3068
17652TIP3    H274372   0.289   3.314  11.132 -0.2168  1.9831 -1.3783
17653TIP3   OH274373   5.628   0.849   2.159 -0.3006  0.0044 -0.2451
17653TIP3    H174374   5.683   0.810   2.227  0.4337  1.0707 -0.2215
17653TIP3    H274375   5.639   0.791   2.084  0.5412 -0.0060 -0.1203
17654TIP3   OH274376   2.866   2.756   1.298  0.1626  0.9231 -0.3393
17654TIP3    H174377   2.840   2.834   1.248 -1.7195 -0.2698 -1.2938
17654TIP3    H274378   2.867   2.685   1.234  2.4688  0.2062  0.3781
17655TIP3   OH274379   5.307   3.981  11.485 -0.1023 -0.0604 -0.4379
17655TIP3    H174380   5.213   4.001  11.484  0.0887  0.9585  0.0917
17655TIP3    H274381   5.312   3.888  11.466 -1.2376 -0.1656 -0.3109
17656TIP3   OH274382   6.391   0.739  12.902 -0.5034  0.0532  0.1357
17656TIP3    H174383   6.316   0.690  12.934 -0.4978 -0.0933 -0.0723
17656TIP3    H274384   6.420   0.690  12.825  0.7897 -0.8101  1.1233
17657TIP3   OH274385   2.113   2.642   2.090  0.5051 -0.4096  0.3247
17657TIP3    H174386   2.101   2.575   2.023 -1.0833 -0.3987  0.5705
17657TIP3    H274387   2.208   2.651   2.098  0.7317 -1.6879 -0.6436
17658TIP3   OH274388   4.775   3.410   2.936  0.3155  0.9074 -0.3471
17658TIP3    H174389   4.806   3.500   2.921 -0.1772  0.8034 -2.2844
17658TIP3    H274390   4.702   3.400   2.876 -4.0697  1.2748  4.2789
17659TIP3   OH274391   3.236   2.575  15.488 -0.1247 -0.1580  0.0326
17659TIP3    H174392   3.273   2.508  15.432  1.4108  1.6591 -1.2641
17659TIP3    H274393   3.230   2.653  15.432  1.5489  1.7763  2.3460
17660TIP3   OH274394   1.515   1.386  15.489 -0.1496  0.4230 -0.3560
17660TIP3    H174395   1.445   1.451  15.482 -1.0653 -0.4715  0.3503
17660TIP3    H274396   1.484   1.323  15.553  0.7730 -0.6660 -0.9368
17661TIP3   OH274397   6.159   1.731  15.842 -0.7440 -0.7062  0.4729
17661TIP3    H174398   6.074   1.759  15.808 -0.4445 -1.4541 -0.9300
17661TIP3    H274399   6.163   1.637  15.826  1.4529 -0.2870 -2.0601
17662TIP3   OH274400   1.900   6.559  14.832  0.1509  0.3108  0.0492
17662TIP3    H174401   1.821   6.515  14.864  1.1525 -2.2930 -0.7975
17662TIP3    H274402   1.932   6.609  14.908 -0.1393 -1.8182  1.6609
17663TIP3   OH274403   5.877   5.284  11.359 -0.4577 -0.3191 -0.5168
17663TIP3    H174404   5.884   5.191  11.337  0.7975 -0.3729 -0.0019
17663TIP3    H274405   5.833   5.323  11.284 -0.2086 -1.1964 -1.1380
17664TIP3   OH274406   5.357   5.017   4.792 -0.3321  0.0446  0.3627
17664TIP3    H174407   5.381   4.973   4.710 -0.6240  0.5845 -0.0205
17664TIP3    H274408   5.298   5.087   4.764  0.2444  0.7718  0.9464
17665TIP3   OH274409   0.462   4.572  14.019 -0.0871  0.3694  0.2502
17665TIP3    H174410   0.514   4.608  13.947 -0.9025 -0.5887 -0.8588
17665TIP3    H274411   0.526   4.527  14.074  0.7476  2.2850  0.9201
17666TIP3   OH274412   4.037   4.489   1.113  0.1782 -0.5230  0.0950
17666TIP3    H174413   3.970   4.508   1.179  1.2685 -0.2882  1.1923
17666TIP3    H274414   4.096   4.427   1.157  0.6118 -0.8239 -0.8842
17667TIP3   OH274415   2.090   4.921  15.901  0.3590 -0.6123  0.2367
17667TIP3    H174416   2.110   4.830  15.882  2.8899  0.2660 -1.8541
17667TIP3    H274417   2.161   4.950  15.958 -0.1893  0.1725  0.5382
17668TIP3   OH274418   5.507   0.189  11.637  0.0819  0.7214 -0.3080
17668TIP3    H174419   5.455   0.269  11.642 -1.8437 -0.4947  0.1748
17668TIP3    H274420   5.539   0.187  11.547  0.9627  2.4474 -0.0909
17669TIP3   OH274421   2.658   2.731   0.222  0.2381 -0.2672 -0.1132
17669TIP3    H174422   2.663   2.654   0.279  1.6214  0.3375  0.6157
17669TIP3    H274423   2.599   2.704   0.151 -1.7936 -0.9201  1.7304
17670TIP3   OH274424   2.056   4.523  14.351 -0.0303 -0.1957  0.2533
17670TIP3    H174425   2.083   4.577  14.278 -0.2817 -2.6680 -1.8312
17670TIP3    H274426   1.980   4.569  14.388 -0.8976  0.3986 -2.0760
17671TIP3   OH274427   0.496   3.966   4.907  0.3376  0.1590 -0.0127
17671TIP3    H174428   0.490   4.015   4.825 -0.2409  0.4004  0.1726
17671TIP3    H274429   0.482   4.032   4.975 -1.3135 -0.3920  0.2170
17672TIP3   OH274430   4.161   2.010   3.204 -0.3528 -0.3751  0.6427
17672TIP3    H174431   4.114   1.985   3.124  0.6961 -2.2363  0.5393
17672TIP3    H274432   4.182   1.926   3.246  1.3236  0.4585  1.5688
17673TIP3   OH274433   2.382   2.902  10.897  0.0001  0.1036 -0.0830
17673TIP3    H174434   2.332   2.957  10.837  2.0604  0.7329 -1.3470
17673TIP3    H274435   2.455   2.869  10.845  0.7805 -0.9693  1.5822
17674TIP3   OH274436   2.103   6.233   6.151 -0.0310 -0.0442 -0.1791
17674TIP3    H174437   2.155   6.240   6.231 -0.2151  0.5115 -0.0973
17674TIP3    H274438   2.132   6.153   6.110  0.0648 -0.3408  0.4505
17675TIP3   OH274439   0.027   6.335   2.877 -0.2758 -0.1187 -0.3858
17675TIP3    H174440  -0.059   6.374   2.888 -0.6455 -1.0866  0.1697
17675TIP3    H274441   0.030   6.262   2.938  1.0011 -0.0105 -0.2723
17676TIP3   OH274442   1.787   3.241   4.561 -0.2292  0.6813  0.5235
17676TIP3    H174443   1.864   3.201   4.601  0.6069  0.0426 -1.5987
17676TIP3    H274444   1.722   3.170   4.558  1.0419 -0.4986 -2.6729
17677TIP3   OH274445   4.882   2.574   0.199 -0.6763  0.1124 -0.5190
17677TIP3    H174446   4.894   2.489   0.158 -0.5283 -0.1743  0.0958
17677TIP3    H274447   4.794   2.571   0.236 -1.1720  0.7244 -1.6136
17678TIP3   OH274448   1.834   2.464  13.977  0.8986 -0.0917  0.5637
17678TIP3    H174449   1.816   2.397  14.043 -1.5409  0.8862  1.0057
17678TIP3    H274450   1.880   2.417  13.907 -1.1038 -2.3873  0.6419
17679TIP3   OH274451   5.054   4.477   3.860 -0.2888  0.5410 -0.2332
17679TIP3    H174452   5.056   4.488   3.765  3.0611 -0.1167 -0.3786
17679TIP3    H274453   4.962   4.489   3.884 -1.1235  1.5382 -3.4227
17680TIP3   OH274454   1.014   2.844  15.740 -0.0349 -0.3983 -0.1751
17680TIP3    H174455   0.971   2.868  15.822  1.3277 -1.8344  1.0072
17680TIP3    H274456   0.957   2.776  15.702  1.2837 -2.6513  1.6255
17681TIP3   OH274457   0.225   1.929   2.505 -0.5540  0.7725 -0.4980
17681TIP3    H174458   0.228   1.844   2.461  0.1258 -0.5344  1.8569
17681TIP3    H274459   0.316   1.944   2.533 -1.0063  1.3604  0.7165
17682TIP3   OH274460   1.712   3.956  15.061  0.5333  0.1326  0.0801
17682TIP3    H174461   1.720   3.958  15.156  1.2133  1.4721  0.0151
17682TIP3    H274462   1.802   3.962  15.029  0.1637  3.2877 -0.6446
17683TIP3   OH274463   2.425   2.776   1.430 -0.7110  0.2050 -0.3518
17683TIP3    H174464   2.492   2.737   1.374 -1.6139 -0.2642 -1.1397
17683TIP3    H274465   2.411   2.863   1.392  0.3178  0.8044  0.5727
17684TIP3   OH274466   5.232   2.690  17.178  0.0431 -0.7103  0.3428
17684TIP3    H174467   5.268   2.663  17.093  0.4296  1.5938 -0.3058
17684TIP3    H274468   5.163   2.626  17.197  0.6997 -1.9222 -1.1570
17685TIP3   OH274469   0.705   2.149  11.787  0.0098 -0.2230  0.5786
17685TIP3    H174470   0.770   2.215  11.811  0.8625 -0.2137 -1.4980
17685TIP3    H274471   0.756   2.069  11.774 -0.4344 -0.3489 -0.5540
17686TIP3   OH274472   0.471   4.955   0.766  0.4815  0.0503  0.2416
17686TIP3    H174473   0.391   4.984   0.809 -0.4630 -1.1077 -0.6429
17686TIP3    H274474   0.525   4.918   0.836 -0.4833 -0.6541  0.6321
17687TIP3   OH274475   2.638   5.348   2.323 -0.3079 -0.1823 -0.1463
17687TIP3    H174476   2.666   5.375   2.410 -0.7719 -3.1126  1.0045
17687TIP3    H274477   2.710   5.373   2.265 -0.1557  2.1511  0.9454
17688TIP3   OH274478   0.437   6.312  14.234 -0.1388  0.1420 -0.1204
17688TIP3    H174479   0.426   6.404  14.208 -0.8864 -0.8090 -3.6578
17688TIP3    H274480   0.348   6.278  14.243  0.1260 -0.4936  0.1951
17689TIP3   OH274481   0.397   5.963  13.844  0.6004 -0.4380  0.2031
17689TIP3    H174482   0.476   5.999  13.806  0.9454 -1.3190  0.0580
17689TIP3    H274483   0.357   6.036  13.891  1.2621  0.1218 -0.0907
17690TIP3   OH274484   6.169   3.228   1.393  0.5274  0.0512 -0.0100
17690TIP3    H174485   6.204   3.176   1.320  0.1288 -1.0840  0.5750
17690TIP3    H274486   6.096   3.277   1.356 -0.3671 -1.3411 -0.1664
17691TIP3   OH274487   3.438   2.090   4.329 -0.0135 -0.9433 -0.3076
17691TIP3    H174488   3.354   2.132   4.351  0.8105  0.8405 -0.4290
17691TIP3    H274489   3.477   2.071   4.414  0.7657  1.0297 -0.1567
17692TIP3   OH274490   1.623   5.154   0.009 -0.1044  0.0679  0.1788
17692TIP3    H174491   1.578   5.227  -0.033  2.8397 -0.2667 -4.1812
17692TIP3    H274492   1.594   5.076  -0.039  1.6062 -0.7271  0.3493
17693TIP3   OH274493   0.652   4.366   0.893  0.1283  0.5089 -0.0089
17693TIP3    H174494   0.562   4.335   0.900 -0.1986  1.6423  1.0128
17693TIP3    H274495   0.670   4.366   0.799 -0.4244 -1.1155 -0.1476
17694TIP3   OH274496   3.569   3.004   3.130  0.0206 -0.3035  0.0767
17694TIP3    H174497   3.642   2.991   3.070  0.4277  0.4757  0.3906
17694TIP3    H274498   3.610   3.021   3.215 -0.5126  0.3449  0.2173
17695TIP3   OH274499   4.007   3.048  14.264 -0.1050  0.4372 -0.0972
17695TIP3    H174500   3.926   3.074  14.219 -0.2167 -1.9348 -1.4506
17695TIP3    H274501   4.077   3.078  14.206 -0.2408 -2.2300 -1.8331
17696TIP3   OH274502   2.011   5.047   0.378 -0.2331  0.2205 -0.3596
17696TIP3    H174503   1.958   5.089   0.310 -2.5240 -1.5575  0.2140
17696TIP3    H274504   1.984   5.091   0.459 -0.1268 -0.0745 -0.1649
17697TIP3   OH274505   0.834   6.335  10.783  0.1588  0.1105 -0.1347
17697TIP3    H174506   0.871   6.319  10.870  0.9066  1.7532 -0.1145
17697TIP3    H274507   0.834   6.249  10.741  1.4004 -0.4215  0.8783
17698TIP3   OH274508   6.051   2.420   1.344  0.3230  0.0460  0.1702
17698TIP3    H174509   6.008   2.483   1.285 -0.2528  0.4011  0.9497
17698TIP3    H274510   6.063   2.342   1.291 -1.9370 -0.3178  0.0956
17699TIP3   OH274511   5.755   1.760  12.547  0.1538  0.3691  0.2139
17699TIP3    H174512   5.661   1.780  12.539  0.4197  1.8455  0.5025
17699TIP3    H274513   5.771   1.765  12.642  0.7721  1.3714  0.0622
17700TIP3   OH274514   2.661   0.739   4.813  0.1579 -0.0534  0.0676
17700TIP3    H174515   2.753   0.761   4.831  0.9275 -2.8645  0.0993
17700TIP3    H274516   2.659   0.725   4.718 -0.2977  0.1869  0.0419
17701TIP3   OH274517   2.139   1.309  13.230 -0.4011  0.3661 -0.2008
17701TIP3    H174518   2.051   1.318  13.193 -0.8550 -1.3406  0.3710
17701TIP3    H274519   2.184   1.249  13.172 -0.3416 -0.4701  0.6806
17702TIP3   OH274520   4.674   6.052   0.757 -0.0755 -0.1866  0.2008
17702TIP3    H174521   4.660   5.979   0.697  0.4591 -0.3741  0.3019
17702TIP3    H274522   4.642   6.128   0.709 -1.6436 -0.6193  0.5161
17703TIP3   OH274523   1.624   5.631   0.673  0.1097 -0.2346  0.0172
17703TIP3    H174524   1.609   5.573   0.748  0.1805 -0.2567  0.0138
17703TIP3    H274525   1.548   5.689   0.673  0.8733  0.8107  1.0763
17704TIP3   OH274526   5.681   4.548   1.684 -0.2056  0.2566 -0.3797
17704TIP3    H174527   5.687   4.592   1.599 -0.0922 -2.0400 -1.6486
17704TIP3    H274528   5.593   4.568   1.715 -0.6638  0.2333 -1.5963
17705TIP3   OH274529   5.160   2.432   3.393  0.3446 -0.6652 -0.0781
17705TIP3    H174530   5.160   2.392   3.480 -1.1870 -1.0573 -0.2253
17705TIP3    H274531   5.132   2.362   3.334  0.5902 -0.1924 -0.7681
17706TIP3   OH274532   4.293   1.736  17.116 -0.7072 -0.3996  0.1166
17706TIP3    H174533   4.321   1.649  17.142  0.2159 -0.1058  0.1614
17706TIP3    H274534   4.369   1.773  17.071 -1.3339  0.1107 -0.5593
17707TIP3   OH274535   0.872   5.135   1.005  0.4096 -0.6159  0.5653
17707TIP3    H174536   0.819   5.206   0.969  2.6180  0.5752 -0.5757
17707TIP3    H274537   0.819   5.099   1.076 -1.6999  0.7445 -0.2113
17708TIP3   OH274538   0.004   0.557   4.429  0.2406  0.5547  0.3840
17708TIP3    H174539  -0.014   0.519   4.516 -0.3900  0.9500  0.4323
17708TIP3    H274540   0.087   0.517   4.403 -0.9635 -1.8500 -0.1055
17709TIP3   OH274541   6.242   1.066  16.940 -0.4947  0.0059 -0.2376
17709TIP3    H174542   6.194   1.062  17.023 -3.1634  1.1518 -1.6111
17709TIP3    H274543   6.263   1.158  16.928 -3.6233  0.6169 -2.5117
17710TIP3   OH274544   1.257   3.228   3.346 -0.6991  0.5718  0.5564
17710TIP3    H174545   1.170   3.227   3.387 -0.1886  0.0659  1.6859
17710TIP3    H274546   1.308   3.288   3.400 -1.0006  2.9813 -1.6479
17711TIP3   OH274547   6.344   3.429   3.435  0.4260 -0.4103  0.3831
17711TIP3    H174548   6.262   3.382   3.422  0.6541 -1.2235  1.6752
17711TIP3    H274549   6.409   3.378   3.385 -0.0001  0.8901 -1.6236
17712TIP3   OH274550   0.924   1.366   0.948 -0.8607  0.2871  0.5052
17712TIP3    H174551   0.894   1.433   1.009 -1.2457 -0.8297  1.5757
17712TIP3    H274552   0.981   1.310   1.000  3.1185  2.1813 -1.3550
17713TIP3   OH274553   5.682   2.905   5.612  0.1113 -0.0306 -0.7045
17713TIP3    H174554   5.600   2.905   5.661 -1.0881 -0.2791 -2.6066
17713TIP3    H274555   5.717   2.817   5.624 -1.1243 -0.6953 -1.7564
17714TIP3   OH274556   1.857   1.772   1.159  0.0207 -0.6851  0.0094
17714TIP3    H174557   1.779   1.727   1.191 -0.0041  0.8029  2.1992
17714TIP3    H274558   1.928   1.710   1.174 -0.3038 -0.8412  0.9343
17715TIP3   OH274559   3.388   5.227   5.468  0.0328 -0.2043 -0.0243
17715TIP3    H174560   3.439   5.162   5.420  0.6995  0.5358 -0.3503
17715TIP3    H274561   3.418   5.219   5.559  0.0313 -0.4144 -0.0409
17716TIP3   OH274562   3.213   1.655  12.657  0.5655  0.7946 -0.0050
17716TIP3    H174563   3.214   1.741  12.698  0.9450  0.7688  0.0424
17716TIP3    H274564   3.250   1.668  12.570  0.0281  0.7950 -0.2360
17717TIP3   OH274565   5.807   5.246   0.727  0.0577 -0.1564 -0.1026
17717TIP3    H174566   5.850   5.232   0.812  0.9351  0.1263 -0.4929
17717TIP3    H274567   5.747   5.172   0.719  0.2410 -0.3948  0.5954
17718TIP3   OH274568   6.395   3.045   1.808  0.3552 -0.0387  0.2694
17718TIP3    H174569   6.327   3.030   1.742  1.9204 -0.5523 -1.3195
17718TIP3    H274570   6.397   3.141   1.817  0.6331  0.1027 -1.0439
17719TIP3   OH274571   3.459   2.475  11.726 -0.1073  0.7154 -0.2289
17719TIP3    H174572   3.410   2.443  11.651 -0.8467  0.4813  0.3443
17719TIP3    H274573   3.498   2.397  11.765  0.6191  0.8827 -0.5929
17720TIP3   OH274574   1.890   0.151  12.890 -0.2351 -0.4775 -0.0896
17720TIP3    H174575   1.890   0.157  12.986 -3.8625 -0.9271  0.0540
17720TIP3    H274576   1.833   0.223  12.861 -0.3205 -1.1971 -1.8367
17721TIP3   OH274577   5.657   5.678   1.255 -0.0990 -0.4076 -0.3063
17721TIP3    H174578   5.568   5.675   1.289 -1.0041  1.7332 -2.2529
17721TIP3    H274579   5.705   5.732   1.318 -1.3841  2.2486 -1.4270
17722TIP3   OH274580   5.245   4.367  12.505 -0.2283  0.0076 -0.4351
17722TIP3    H174581   5.218   4.277  12.521 -0.1365  0.3763  2.1889
17722TIP3    H274582   5.194   4.394  12.428  1.0070 -2.7519 -2.3846
17723TIP3   OH274583   5.173   4.528  13.519  0.5100  0.1766  0.5313
17723TIP3    H174584   5.137   4.489  13.439 -1.4186  0.9436  0.9887
17723TIP3    H274585   5.221   4.456  13.561  0.3724 -0.6076 -0.6141
17724TIP3   OH274586   6.406   4.488   4.294 -0.4889  0.1201 -0.7027
17724TIP3    H174587   6.483   4.455   4.248 -0.8626 -1.2480 -0.4110
17724TIP3    H274588   6.439   4.519   4.378 -0.4433 -2.4072  0.3172
17725TIP3   OH274589   5.408   2.479  15.876 -0.0508 -0.2866 -0.2251
17725TIP3    H174590   5.470   2.495  15.805 -0.0910  0.2285 -0.1494
17725TIP3    H274591   5.325   2.514  15.844 -0.1459 -0.3622 -0.0609
17726TIP3   OH274592   5.721   3.390   3.525  0.7657  0.0114 -0.1385
17726TIP3    H174593   5.687   3.388   3.614 -0.9216 -0.8330 -0.7490
17726TIP3    H274594   5.774   3.311   3.517 -1.0462 -1.2371 -0.5449
17727TIP3   OH274595   5.142   4.827   4.533 -0.3086  0.1080 -0.0088
17727TIP3    H174596   5.186   4.787   4.607  0.6361  0.3971 -0.3959
17727TIP3    H274597   5.110   4.911   4.566 -2.3966 -0.9379  0.8365
17728TIP3   OH274598   1.684   1.648  13.184  0.3470  0.1344  0.6145
17728TIP3    H174599   1.699   1.737  13.217 -0.8190  0.7868 -0.5090
17728TIP3    H274600   1.676   1.659  13.089  0.4254 -1.2170  0.4392
17729TIP3   OH274601   6.487   1.622  17.232 -0.4841 -0.1596 -0.2371
17729TIP3    H174602   6.524   1.621  17.144  0.0953  2.7903 -0.1432
17729TIP3    H274603   6.562   1.638  17.290 -0.7248 -2.8014  0.9802
17730TIP3   OH274604   5.274   4.784   6.407 -0.0066  0.4874  0.3142
17730TIP3    H174605   5.349   4.839   6.383  1.0100 -0.8607  0.2835
17730TIP3    H274606   5.210   4.845   6.443  1.6209  1.5363  1.5664
17731TIP3   OH274607   3.127   0.300  17.096  0.1717  0.6204  0.7345
17731TIP3    H174608   3.070   0.327  17.167 -1.5356 -0.4501 -0.1553
17731TIP3    H274609   3.156   0.212  17.120 -1.5974 -0.3639 -0.4799
17732TIP3   OH274610   1.376   4.321  13.187  0.1058  0.3942  0.0131
17732TIP3    H174611   1.381   4.398  13.129 -0.5897  0.6828  0.3187
17732TIP3    H274612   1.465   4.308  13.218  0.5846 -0.0297 -1.4612
17733TIP3   OH274613   3.167   2.207   1.993 -0.1162 -0.1499 -0.2738
17733TIP3    H174614   3.170   2.208   2.089 -2.7077 -0.6107 -0.1305
17733TIP3    H274615   3.091   2.260   1.971  0.6569  0.2635 -2.1316
17734TIP3   OH274616   4.248   1.680  13.706 -0.2214  0.2258  0.4122
17734TIP3    H174617   4.207   1.736  13.641  0.0186  0.1396  0.1820
17734TIP3    H274618   4.209   1.594  13.692 -0.5312  0.3181  0.7112
17735TIP3   OH274619   0.967   6.736  15.601  0.3018 -0.5385  0.4208
17735TIP3    H174620   0.932   6.649  15.616 -1.8589  0.3476  0.9477
17735TIP3    H274621   0.905   6.777  15.540 -0.3850  1.5115  2.3239
17736TIP3   OH274622   4.214   5.932   4.885 -0.1832 -0.2954  0.0679
17736TIP3    H174623   4.190   6.024   4.885 -1.8725 -0.6989 -0.5448
17736TIP3    H274624   4.305   5.931   4.915  0.3676  1.6689 -1.3481
17737TIP3   OH274625   2.673   1.342   2.390  0.0545 -0.1440 -0.1757
17737TIP3    H174626   2.637   1.265   2.435  2.7828 -0.3071  2.0756
17737TIP3    H274627   2.610   1.412   2.407 -1.1457 -1.2768  0.1352
17738TIP3   OH274628   3.110   3.088  12.992 -0.1990  0.9329 -0.1720
17738TIP3    H174629   3.130   3.053  13.079  0.0524  0.0710 -0.5688
17738TIP3    H274630   3.195   3.106  12.953  0.0107 -2.6737 -1.8366
17739TIP3   OH274631   0.199   1.142   3.887 -0.6372  0.2375  0.5234
17739TIP3    H174632   0.167   1.064   3.842 -1.5349  1.1021 -0.4206
17739TIP3    H274633   0.294   1.135   3.884 -0.6893 -0.1524 -0.8069
17740TIP3   OH274634   3.844   3.586   2.214 -0.3562  0.1773 -0.7845
17740TIP3    H174635   3.757   3.611   2.245 -0.3434 -0.1000 -0.5204
17740TIP3    H274636   3.891   3.669   2.205 -0.9813  0.4229 -1.9610
17741TIP3   OH274637   5.616   4.603   2.040 -0.0223  0.0086  0.2533
17741TIP3    H174638   5.707   4.600   2.008  0.4817  1.9064  1.3616
17741TIP3    H274639   5.608   4.688   2.082 -2.6890  0.3592 -0.7711
17742TIP3   OH274640   1.736   4.276  14.281 -0.4244  0.5520  0.4017
17742TIP3    H174641   1.755   4.275  14.374  1.5169  2.1592  0.0656
17742TIP3    H274642   1.819   4.255  14.238 -1.4715 -1.0805 -0.9910
17743TIP3   OH274643   0.225   6.412  16.480 -0.3321 -0.2407  0.5131
17743TIP3    H174644   0.227   6.321  16.509  0.5963 -0.5702 -0.5288
17743TIP3    H274645   0.317   6.440  16.481 -0.3620  0.0212 -1.1195
17744TIP3   OH274646   1.499   5.326  14.414  0.1053  0.1260  0.0614
17744TIP3    H174647   1.575   5.317  14.471 -1.0326 -0.5644  1.5635
17744TIP3    H274648   1.436   5.377  14.466 -0.0475  1.7602 -1.6126
17745TIP3   OH274649   6.768   6.082   0.221  0.4192  0.2919  0.7254
17745TIP3    H174650   6.708   6.052   0.289  0.8695 -0.6619  0.7281
17745TIP3    H274651   6.834   6.134   0.267  0.4243  0.0922  0.9429
17746TIP3   OH274652   5.779   2.622   5.627 -0.0080 -0.1336 -0.0547
17746TIP3    H174653   5.757   2.561   5.556  1.3973 -2.1249  1.1487
17746TIP3    H274654   5.785   2.567   5.705  0.0648  1.7686  1.3392
17747TIP3   OH274655   1.592   4.073  15.347  0.4041 -0.4035 -0.3435
17747TIP3    H174656   1.525   4.088  15.413 -0.7123 -1.2828 -1.2202
17747TIP3    H274657   1.596   3.978  15.337  0.3740 -0.2915 -1.6802
17748TIP3   OH274658   0.431   2.911  11.681  0.3210  0.6240  0.0388
17748TIP3    H174659   0.357   2.921  11.621 -0.3659  0.0232  0.7653
17748TIP3    H274660   0.445   2.817  11.686 -0.1446  0.5986  1.4057
17749TIP3   OH274661   6.090   6.495   1.964 -0.0370 -0.0623  0.1063
17749TIP3    H174662   6.068   6.475   1.873 -3.2564  0.3267  0.6898
17749TIP3    H274663   6.059   6.584   1.978  0.3052 -0.1468  1.6047
17750TIP3   OH274664   4.451   1.489  13.221  0.2900 -0.2324 -0.3286
17750TIP3    H174665   4.373   1.534  13.254  0.3452  0.8729 -1.5758
17750TIP3    H274666   4.520   1.556  13.225  0.6541 -0.5415 -1.1667
17751TIP3   OH274667   5.767   4.271   3.758  0.3929  0.8914 -0.1128
17751TIP3    H174668   5.765   4.258   3.853 -1.4370  1.7743  0.0164
17751TIP3    H274669   5.795   4.187   3.723  0.0554  0.2197  1.1597
17752TIP3   OH274670   0.618   0.285   4.268 -0.3306 -0.1796  0.3688
17752TIP3    H174671   0.590   0.262   4.356  0.2893 -0.5521  0.4777
17752TIP3    H274672   0.710   0.312   4.279 -0.2748 -0.1471 -0.1450
17753TIP3   OH274673   0.367   4.313  14.565 -0.1692  0.4390  0.0353
17753TIP3    H174674   0.328   4.264  14.637  0.0753  0.9127  0.4981
17753TIP3    H274675   0.293   4.343  14.512 -0.2857 -1.6123 -1.0707
17754TIP3   OH274676   3.781   4.152   5.826  0.1451  0.0029 -0.6358
17754TIP3    H174677   3.856   4.201   5.862  0.0381 -0.2432 -0.0637
17754TIP3    H274678   3.706   4.209   5.842  0.0844 -0.1471 -0.3883
17755TIP3   OH274679   5.878   6.425  13.582 -0.0488  0.1085  0.0944
17755TIP3    H174680   5.923   6.468  13.654 -2.8701  4.4960 -0.3807
17755TIP3    H274681   5.921   6.459  13.503 -0.4716 -0.2946 -0.3213
17756TIP3   OH274682   1.108   2.848   3.319  0.2565 -0.6214  0.3469
17756TIP3    H174683   1.184   2.794   3.296  0.7082  0.2198 -0.1746
17756TIP3    H274684   1.111   2.922   3.257 -2.6259 -2.0024 -1.7078
17757TIP3   OH274685   2.945   5.879   5.632 -0.1357 -0.5847 -0.0268
17757TIP3    H174686   2.849   5.883   5.632 -0.1079  0.4192  0.2587
17757TIP3    H274687   2.969   5.900   5.542 -0.1717 -0.1769  0.0559
17758TIP3   OH274688   4.281   5.403   5.344  0.4933  0.5646  0.5448
17758TIP3    H174689   4.223   5.409   5.268  1.3217  0.6222 -0.0962
17758TIP3    H274690   4.308   5.312   5.346 -0.1511  0.3736  1.2647
17759TIP3   OH274691   1.541   6.253   5.926 -0.0048  0.3764  0.4294
17759TIP3    H174692   1.584   6.313   5.987  1.1622  1.8735 -1.7588
17759TIP3    H274693   1.448   6.276   5.932  0.2607  1.4369  0.6561
17760TIP3   OH274694   5.777   4.092  10.502 -0.2101  0.8909 -0.1368
17760TIP3    H174695   5.750   4.184  10.502  0.6440  1.1548 -0.5966
17760TIP3    H274696   5.699   4.044  10.528 -0.5607  1.7781  0.5028
17761TIP3   OH274697   3.888   3.075   0.366 -0.0991 -0.0415 -0.0800
17761TIP3    H174698   3.971   3.088   0.320 -0.1486  1.1817  0.1412
17761TIP3    H274699   3.822   3.070   0.297 -0.1129  1.3026 -0.1851
17762TIP3   OH274700   5.944   5.834  15.635  0.4596  0.3840 -0.7316
17762TIP3    H174701   5.932   5.883  15.554  1.0081  0.9856 -0.4583
17762TIP3    H274702   5.924   5.743  15.612 -0.7190  0.7448 -1.2174
17763TIP3   OH274703   0.699   4.767  11.548 -0.3352 -0.1471  0.2638
17763TIP3    H174704   0.768   4.727  11.601 -0.1643  0.7570  0.7422
17763TIP3    H274705   0.631   4.791  11.611 -0.0043  1.2008  0.1520
17764TIP3   OH274706   5.247   1.278  11.661 -0.4266  0.3562 -0.4630
17764TIP3    H174707   5.197   1.353  11.628  1.7357  1.7127 -0.8092
17764TIP3    H274708   5.338   1.299  11.643  0.4000 -1.5804  1.0420
17765TIP3   OH274709   5.501   2.378   0.666 -0.4126  0.3916  0.1117
17765TIP3    H174710   5.568   2.446   0.660 -1.2778  1.2023 -0.5512
17765TIP3    H274711   5.418   2.425   0.657 -1.0078 -0.8168 -0.9726
17766TIP3   OH274712   5.403   3.970   3.351 -0.0802 -0.8114 -0.8131
17766TIP3    H174713   5.319   3.940   3.315  0.3547  0.3910 -2.9494
17766TIP3    H274714   5.464   3.900   3.331 -0.3206 -1.1971 -0.2378
17767TIP3   OH274715   4.422   4.847  15.316  0.0302  0.4847 -0.2960
17767TIP3    H174716   4.345   4.885  15.274  0.7722  1.3843 -0.8968
17767TIP3    H274717   4.490   4.913  15.304  0.9300 -0.3471  0.1144
17768TIP3   OH274718   3.370   0.820   2.103 -0.0354  0.3532  0.3003
17768TIP3    H174719   3.348   0.754   2.169 -0.6107  0.5963  0.3584
17768TIP3    H274720   3.383   0.900   2.153  0.3558  0.3546  0.1983
17769TIP3   OH274721   2.880   0.417   1.505 -0.1412  0.0176  0.4838
17769TIP3    H174722   2.945   0.487   1.496  0.9739 -0.6672  2.4443
17769TIP3    H274723   2.832   0.418   1.422  0.8567  2.0569 -0.1487
17770TIP3   OH274724   0.343   4.456  15.872  0.1543  0.1498 -0.0895
17770TIP3    H174725   0.329   4.496  15.958  0.7192 -2.8762  1.5510
17770TIP3    H274726   0.258   4.464  15.828 -1.2448 -1.1849  2.1602
17771TIP3   OH274727   2.996   0.324  13.855  0.4585 -0.1235  0.0352
17771TIP3    H174728   3.084   0.288  13.842  0.8866  0.7110  0.5496
17771TIP3    H274729   2.994   0.404  13.804  1.0529  1.4601  2.3554
17772TIP3   OH274730   2.471   4.210   1.722 -0.0758 -0.6149  0.0767
17772TIP3    H174731   2.390   4.179   1.760 -0.1363  1.0797  1.4870
17772TIP3    H274732   2.448   4.293   1.680  0.8062 -0.3944 -0.0016
17773TIP3   OH274733   4.067   6.645  11.794 -0.1111  0.2938 -0.0851
17773TIP3    H174734   4.094   6.730  11.759 -1.7334  1.1198  0.5708
17773TIP3    H274735   4.034   6.665  11.881 -0.1287 -1.0896  0.2350
17774TIP3   OH274736   5.741   6.347   0.451  0.3604 -0.5186  0.6685
17774TIP3    H174737   5.767   6.341   0.359 -1.0734 -0.2191  0.2231
17774TIP3    H274738   5.729   6.256   0.478  1.9961 -0.6847  0.9562
17775TIP3   OH274739   0.978   2.163   0.947 -0.2520  0.3385  0.4129
17775TIP3    H174740   1.006   2.215   1.022  0.3409 -0.5353  0.8122
17775TIP3    H274741   1.021   2.203   0.872  1.0501 -0.1922  0.8521
17776TIP3   OH274742   3.718   0.362  12.942  0.2400 -0.5642 -0.3896
17776TIP3    H174743   3.689   0.368  13.033 -1.1698  1.7595 -0.9026
17776TIP3    H274744   3.770   0.441  12.928 -1.3464  0.2542 -2.1215
17777TIP3   OH274745   0.883   0.983   4.554  0.1803  0.4371 -0.1454
17777TIP3    H174746   0.883   0.901   4.506 -2.8059  0.1684  0.1121
17777TIP3    H274747   0.934   1.043   4.499  0.7436 -1.0428 -1.3053
17778TIP3   OH274748   6.415   3.546  11.337  0.4280 -0.1731 -0.3165
17778TIP3    H174749   6.378   3.617  11.389  0.5309 -0.3944  0.0636
17778TIP3    H274750   6.376   3.556  11.251  0.4031  0.3157 -0.2518
17779TIP3   OH274751   1.508   2.919   0.597  0.5373 -0.1817  0.5138
17779TIP3    H174752   1.421   2.893   0.627 -1.0409  1.7722 -1.8905
17779TIP3    H274753   1.524   2.865   0.519  2.1242 -1.4178  1.6251
17780TIP3   OH274754   6.692   2.579   1.672  0.6121 -0.1360 -0.2807
17780TIP3    H174755   6.637   2.503   1.685 -0.1948  0.7652  2.1784
17780TIP3    H274756   6.782   2.546   1.679  0.2680 -0.8710  0.8474
17781TIP3   OH274757   3.499   0.832   6.463  0.1002  0.4280 -0.3586
17781TIP3    H174758   3.493   0.780   6.542 -3.2256 -1.5573 -1.7199
17781TIP3    H274759   3.478   0.921   6.490  0.1184  0.0024  1.1077
17782TIP3   OH274760   1.729   6.112   2.439 -0.5013  0.9095 -0.4311
17782TIP3    H174761   1.681   6.057   2.378 -0.6140 -0.2456  0.6662
17782TIP3    H274762   1.749   6.191   2.389 -0.5539 -0.0093 -1.9553
17783TIP3   OH274763   1.348   4.861   5.146 -0.1682  0.7422  0.3955
17783TIP3    H174764   1.287   4.925   5.183  1.1606  2.0242  0.4206
17783TIP3    H274765   1.319   4.851   5.055 -1.2789  0.2312  0.7795
17784TIP3   OH274766   5.179   1.504   4.118  0.0090 -0.0566  0.1463
17784TIP3    H174767   5.183   1.472   4.028  3.2342 -1.5893  0.6638
17784TIP3    H274768   5.180   1.599   4.110 -0.0854 -0.1642 -1.4288
17785TIP3   OH274769   0.861   2.891   0.236 -0.2355  0.0421  0.0717
17785TIP3    H174770   0.803   2.935   0.174  0.3253  0.9519  0.1780
17785TIP3    H274771   0.867   2.951   0.310  0.6472 -0.1467  0.1640
17786TIP3   OH274772   4.498   4.848   2.789 -0.8843  0.3014 -0.1250
17786TIP3    H174773   4.570   4.799   2.829 -1.9567  0.2579  1.8433
17786TIP3    H274774   4.421   4.795   2.805 -1.8109  1.7743  0.5269
17787TIP3   OH274775   4.474   6.394   6.014 -0.1208 -0.1971 -0.2335
17787TIP3    H174776   4.521   6.377   6.095  1.3852 -1.4737 -1.2936
17787TIP3    H274777   4.402   6.451   6.039  1.2112  0.7468  1.7176
17788TIP3   OH274778   2.657   6.334  15.451 -0.2357  0.3289  0.3308
17788TIP3    H174779   2.710   6.366  15.378  0.0701 -0.0800  0.3694
17788TIP3    H274780   2.720   6.319  15.521 -0.4390  0.1015  0.4663
17789TIP3   OH274781   6.350   2.535  12.841  0.4077  0.4835 -0.0400
17789TIP3    H174782   6.311   2.609  12.794 -0.2836 -1.1635 -2.2280
17789TIP3    H274783   6.275   2.483  12.870  0.8786 -0.7105 -0.8790
17790TIP3   OH274784   2.089   0.540   2.177  0.3644  0.0726  0.0894
17790TIP3    H174785   2.163   0.584   2.136  0.6221 -1.1473 -0.8336
17790TIP3    H274786   2.056   0.602   2.242  2.2140  0.6195  0.5558
17791TIP3   OH274787   4.688   3.985   3.793 -0.2437 -0.0601 -0.3238
17791TIP3    H174788   4.739   3.908   3.820  0.4018  0.1290 -0.9813
17791TIP3    H274789   4.603   3.949   3.768 -0.1697 -0.4798  0.0164
17792TIP3   OH274790   1.626   1.182  16.672  0.0095  0.3189  0.0742
17792TIP3    H174791   1.560   1.239  16.633  0.1189 -0.2177 -0.9172
17792TIP3    H274792   1.706   1.235  16.673 -0.3757  0.9238  1.1630
17793TIP3   OH274793   2.904   3.496   3.696  0.5110 -0.6467  0.7175
17793TIP3    H174794   2.942   3.457   3.617 -0.1060 -1.3707  0.7613
17793TIP3    H274795   2.845   3.428   3.730 -2.1307  1.0011 -0.2582
17794TIP3   OH274796   5.048   3.385   2.692  0.6166 -0.1955 -0.3582
17794TIP3    H174797   5.073   3.378   2.784  3.0871  0.9154 -0.8638
17794TIP3    H274798   5.044   3.480   2.676 -0.3618 -0.3713 -1.2721
17795TIP3   OH274799   0.977   4.429   3.176 -0.3167 -0.0141 -0.3625
17795TIP3    H174800   1.049   4.428   3.239 -2.1991  0.1982  1.8786
17795TIP3    H274801   0.950   4.520   3.172 -0.2031 -0.0159 -1.5553
17796TIP3   OH274802   0.809   2.991  16.671 -0.1472  0.4812 -0.0820
17796TIP3    H174803   0.890   3.003  16.721 -1.1038  3.3382  0.9847
17796TIP3    H274804   0.747   3.051  16.711 -3.0344 -1.9884 -0.5188
17797TIP3   OH274805   1.962   0.375  16.228  0.1589  0.2209 -0.3747
17797TIP3    H174806   1.978   0.284  16.253  0.8262  0.4154 -0.0419
17797TIP3    H274807   2.012   0.426  16.292  1.2360  0.7656 -1.5855
17798TIP3   OH274808   4.214   1.535   3.839  0.1069  0.4093  0.1229
17798TIP3    H174809   4.131   1.537   3.886 -0.5553 -1.1320 -0.8823
17798TIP3    H274810   4.206   1.460   3.779  0.6838  2.4647 -2.7586
17799TIP3   OH274811   0.169   1.927  12.829  0.5255  0.1825 -0.2199
17799TIP3    H174812   0.198   2.009  12.788 -0.4014  0.4051 -0.4525
17799TIP3    H274813   0.076   1.921  12.807 -0.4282  1.0600  3.1020
17800TIP3   OH274814   4.073   5.928  15.681  0.2976  0.2358 -0.6856
17800TIP3    H174815   3.986   5.889  15.673  0.6323 -0.6969 -0.0552
17800TIP3    H274816   4.131   5.852  15.691  0.8323  0.9176  1.9896
17801TIP3   OH274817   1.111   5.963  12.981  0.6456  0.1863 -0.2554
17801TIP3    H174818   1.163   5.884  12.965 -0.9085 -1.0111  0.3815
17801TIP3    H274819   1.020   5.935  12.968 -0.0347  1.5134  1.3745
17802TIP3   OH274820   5.416   2.228   5.724  0.7587 -0.1180  0.3260
17802TIP3    H174821   5.494   2.279   5.745  0.7725 -0.9599  2.5911
17802TIP3    H274822   5.441   2.137   5.740 -0.7367 -0.3860  1.3378
17803TIP3   OH274823   2.789   5.172   6.967 -0.0489 -0.1522 -0.5005
17803TIP3    H174824   2.735   5.113   6.916  2.4886 -1.2216 -2.1753
17803TIP3    H274825   2.829   5.230   6.902  0.8585  0.5594  0.6398
17804TIP3   OH274826   1.783   4.152   1.861 -0.2049 -0.1785 -0.4203
17804TIP3    H174827   1.873   4.170   1.889  0.0863 -1.5200 -0.4551
17804TIP3    H274828   1.745   4.102   1.933 -0.6039 -0.4943 -0.8481
17805TIP3   OH274829   5.674   1.454  12.452  0.2782  0.3880 -0.3102
17805TIP3    H174830   5.633   1.527  12.407  0.6853  0.6708 -0.2262
17805TIP3    H274831   5.604   1.416  12.506 -0.1892  0.0958 -1.1108
17806TIP3   OH274832   3.325   1.764   2.798  0.2948  0.8383 -0.0897
17806TIP3    H174833   3.263   1.828   2.762 -1.0616  0.6955  1.8502
17806TIP3    H274834   3.270   1.688   2.819  1.3465  0.2284  0.5092
17807TIP3   OH274835   1.432   3.726   0.904  0.2135  0.2893 -0.6464
17807TIP3    H174836   1.358   3.727   0.964  1.0814  2.4261  0.4910
17807TIP3    H274837   1.503   3.685   0.955 -0.1384 -1.8784 -1.7746
17808TIP3   OH274838   1.453   1.143   2.119 -0.2280 -0.3378  0.1938
17808TIP3    H174839   1.408   1.177   2.197 -0.1190  0.5771 -0.1270
17808TIP3    H274840   1.405   1.182   2.046  0.5305 -0.0876 -0.1693
17809TIP3   OH274841   5.126   2.032  16.340 -0.5494 -0.1516  0.1721
17809TIP3    H174842   5.095   1.979  16.413 -1.4240 -0.8556 -0.6937
17809TIP3    H274843   5.061   2.020  16.271 -0.0071  0.9018 -0.5587
17810TIP3   OH274844   2.257   1.949  13.783 -0.2621  1.0332 -0.4343
17810TIP3    H174845   2.302   1.993  13.711 -1.6186 -1.6216 -3.0904
17810TIP3    H274846   2.165   1.974  13.772 -0.6151 -0.1185 -0.2184
17811TIP3   OH274847   4.447   6.292   5.185  0.0863  0.0391  0.0420
17811TIP3    H174848   4.385   6.222   5.166  0.7585 -0.1571 -1.5394
17811TIP3    H274849   4.469   6.279   5.278 -2.4160  0.3187  0.7532
17812TIP3   OH274850   1.483   5.703  10.582  0.4784  0.1202  0.2961
17812TIP3    H174851   1.452   5.648  10.510 -1.3956 -0.6786  1.6196
17812TIP3    H274852   1.405   5.752  10.609  1.5241  1.5886  0.7798
17813TIP3   OH274853   3.713   3.931   3.861  0.3680  0.6959  0.1842
17813TIP3    H174854   3.733   3.986   3.785  0.6883  1.3378  0.7255
17813TIP3    H274855   3.795   3.884   3.879  1.5052  3.2480  2.3368
17814TIP3   OH274856   5.659   5.199  13.984  0.1330 -0.3385  0.0282
17814TIP3    H174857   5.625   5.262  14.049  0.6972 -0.6610  0.6491
17814TIP3    H274858   5.631   5.114  14.017 -0.0631 -0.4681 -0.4630
17815TIP3   OH274859   1.248   0.665   5.668 -0.5852  0.6646 -0.1648
17815TIP3    H174860   1.338   0.641   5.690  0.1862  1.9350 -1.7125
17815TIP3    H274861   1.243   0.759   5.686 -1.4790  0.6953 -0.4870
17816TIP3   OH274862   1.354   5.221  11.694 -0.1188 -0.0450 -0.3816
17816TIP3    H174863   1.283   5.211  11.631 -0.5932 -0.4739  0.2105
17816TIP3    H274864   1.348   5.143  11.749  1.0190 -0.2581 -0.5265
17817TIP3   OH274865   3.988   0.198   5.471 -0.4261 -0.5109  0.1875
17817TIP3    H174866   3.930   0.137   5.516 -2.2879  0.4598 -0.7972
17817TIP3    H274867   3.947   0.284   5.483  1.2453  0.3361  0.1258
17818TIP3   OH274868   1.101   0.694  15.149 -0.3030  0.3290  0.6036
17818TIP3    H174869   1.046   0.772  15.144  0.1976  0.6117 -1.3344
17818TIP3    H274870   1.191   0.729  15.149 -0.0267 -0.2195 -1.7839
17819TIP3   OH274871   1.929   5.186  10.609  0.1012 -0.3677  0.6474
17819TIP3    H174872   1.913   5.236  10.689 -0.7485 -0.8690  0.8007
17819TIP3    H274873   2.025   5.177  10.605  0.1130 -2.6234  3.0763
17820TIP3   OH274874   3.132   3.745   1.466  0.4915  0.4064 -0.1261
17820TIP3    H174875   3.112   3.835   1.493 -0.2308  0.0121  0.6735
17820TIP3    H274876   3.048   3.707   1.444  0.4066 -0.9349  2.2225
17821TIP3   OH274877   3.649   2.172   2.385  0.0030  0.0836  0.2736
17821TIP3    H174878   3.622   2.097   2.438  1.4131 -0.4756  0.2524
17821TIP3    H274879   3.643   2.141   2.295 -1.9861  0.8985  0.0721
17822TIP3   OH274880   0.612   0.768  15.841  0.2990 -0.2461  0.2532
17822TIP3    H174881   0.634   0.677  15.863  0.3210  0.0621  1.5792
17822TIP3    H274882   0.565   0.800  15.917 -1.0606  0.4082 -0.8197
17823TIP3   OH274883   3.885   0.458   3.065  0.1382  0.8457  0.4780
17823TIP3    H174884   3.848   0.391   3.122  0.1362  1.5731  1.3409
17823TIP3    H274885   3.810   0.511   3.038 -0.0669 -0.2483 -1.2694
17824TIP3   OH274886   0.162   0.369  11.893  0.0681  0.4211  0.0425
17824TIP3    H174887   0.225   0.321  11.946 -0.5969 -0.9187 -0.3164
17824TIP3    H274888   0.104   0.411  11.956  1.1889  1.5489  0.3746
17825TIP3   OH274889   6.072   2.829  12.884  0.3948 -0.0384 -0.1784
17825TIP3    H174890   6.099   2.920  12.896  1.1322 -0.1609 -0.7939
17825TIP3    H274891   6.128   2.797  12.813  0.6504 -1.1816  0.5166
17826TIP3   OH274892   6.079   3.137  11.148  0.5256  0.6470 -0.6278
17826TIP3    H174893   6.146   3.204  11.136  1.1266  0.5097  1.5541
17826TIP3    H274894   6.088   3.081  11.071  1.4020  1.8952 -1.4740
17827TIP3   OH274895   0.939   5.493   5.284  0.2532 -1.2222 -0.5953
17827TIP3    H174896   0.994   5.471   5.359  1.3539  0.4900 -0.8476
17827TIP3    H274897   0.850   5.494   5.319  0.8616  1.1823  1.2029
17828TIP3   OH274898   1.181   0.349   2.091  0.0944  0.4009  0.1939
17828TIP3    H174899   1.195   0.351   1.996 -2.3356  2.2320 -0.2388
17828TIP3    H274900   1.189   0.440   2.119  1.7597 -0.2236  1.9869
17829TIP3   OH274901   1.707   1.658  15.716  0.4102 -0.7610  0.3881
17829TIP3    H174902   1.612   1.645  15.708 -0.2344  2.9266  0.6165
17829TIP3    H274903   1.742   1.569  15.727 -2.6332 -2.6318 -2.8296
17830TIP3   OH274904   3.582   6.236  15.447 -0.0470 -0.0363 -0.2662
17830TIP3    H174905   3.530   6.286  15.511 -0.8987 -0.5184 -0.5620
17830TIP3    H274906   3.641   6.184  15.500 -0.5568 -0.2253  0.1288
17831TIP3   OH274907   0.183   6.321   2.049 -0.2871 -0.2174 -0.0364
17831TIP3    H174908   0.117   6.268   2.093 -1.7399  0.2179 -1.5505
17831TIP3    H274909   0.132   6.387   2.002  1.2001 -0.1590 -1.6667
17832TIP3   OH274910   0.588   3.622  16.840  0.2341 -0.2201 -0.0715
17832TIP3    H174911   0.629   3.615  16.926  1.6117 -0.3004 -0.7102
17832TIP3    H274912   0.509   3.569  16.847  1.0755 -1.4223  0.7275
17833TIP3   OH274913   2.974   6.529  13.864  0.6824 -0.1385 -0.1837
17833TIP3    H174914   2.952   6.437  13.858  0.9753 -0.1743 -0.8820
17833TIP3    H274915   3.063   6.534  13.829  0.5122  0.4617 -0.5445
17834TIP3   OH274916   0.076   0.101   2.209 -0.1184  0.3235 -0.7940
17834TIP3    H174917   0.123   0.018   2.210 -2.8230 -1.4413 -3.2497
17834TIP3    H274918   0.065   0.121   2.116 -2.1210  1.7955 -0.3106
17835TIP3   OH274919   4.059   2.952   4.286  0.2994 -0.3392 -0.2109
17835TIP3    H174920   4.091   2.982   4.371  0.0788 -0.9921  0.1126
17835TIP3    H274921   4.125   2.889   4.256  0.7638  0.4518 -0.8846
17836TIP3   OH274922   5.993   2.031   0.262  0.0076 -0.4089  0.0006
17836TIP3    H174923   5.925   2.048   0.328  0.7982 -0.6215  0.8844
17836TIP3    H274924   6.062   2.094   0.281  0.8754 -1.4261  0.2947
17837TIP3   OH274925   3.794   2.357  11.715 -0.5164 -0.3811  0.5060
17837TIP3    H174926   3.829   2.432  11.763  1.1006 -0.3154 -0.7110
17837TIP3    H274927   3.723   2.325  11.771  0.5191  0.3936  2.3797
17838TIP3   OH274928   3.478   2.067   3.304 -0.4854  0.7181 -0.1441
17838TIP3    H174929   3.498   2.153   3.341 -0.9529  0.0570  1.7341
17838TIP3    H274930   3.507   2.005   3.370 -2.1895 -0.4892 -0.4758
17839TIP3   OH274931   6.456   3.744  13.863  0.0467 -0.2102  0.4385
17839TIP3    H174932   6.399   3.819  13.882  0.2925  0.7583 -2.2090
17839TIP3    H274933   6.402   3.668  13.884 -0.3791  0.6298  2.7493
17840TIP3   OH274934   1.707   6.255  14.125 -0.0622  0.4951 -0.7850
17840TIP3    H174935   1.759   6.232  14.048 -0.5435 -2.4089 -0.3743
17840TIP3    H274936   1.704   6.174  14.177 -0.5921  2.0493  1.8230
17841TIP3   OH274937   5.607   2.709  13.679 -0.7697  0.1522  0.4863
17841TIP3    H174938   5.692   2.724  13.638 -1.0232 -0.5672 -0.3344
17841TIP3    H274939   5.554   2.785  13.652 -0.2899  0.7728  1.2842
17842TIP3   OH274940   5.027   2.644   3.799  0.3668 -0.1507 -0.5773
17842TIP3    H174941   5.040   2.551   3.817 -0.2964 -0.4055 -1.3449
17842TIP3    H274942   4.992   2.680   3.881  1.2821 -0.4261 -0.0597
17843TIP3   OH274943   0.125   4.994  13.067 -0.4298  0.5462 -0.2580
17843TIP3    H174944   0.095   5.079  13.037  1.0094  1.0351 -0.3971
17843TIP3    H274945   0.164   4.953  12.990 -0.7296 -0.0704 -0.0919
17844TIP3   OH274946   4.951   4.237  16.231 -0.2478 -0.2450  0.2025
17844TIP3    H174947   4.911   4.259  16.147  1.3772  2.1184 -0.0462
17844TIP3    H274948   4.919   4.305  16.290  2.8342  1.4529  0.1042
17845TIP3   OH274949   1.850   1.742   4.536  0.1693 -0.2959 -0.1282
17845TIP3    H174950   1.945   1.753   4.540  0.4192 -2.1852 -0.0243
17845TIP3    H274951   1.818   1.789   4.613  1.2622 -1.5265  1.1563
17846TIP3   OH274952   2.908   6.069  17.018  0.0370 -0.1063 -0.4838
17846TIP3    H174953   2.883   6.044  16.929 -1.2249  1.2509 -0.5481
17846TIP3    H274954   3.003   6.079  17.014  0.0937 -0.8294 -1.4652
17847TIP3   OH274955   1.043   2.214   2.401 -0.1716 -0.1848 -0.1130
17847TIP3    H174956   1.003   2.243   2.483  1.2624  1.9974 -0.1232
17847TIP3    H274957   1.108   2.149   2.428 -1.3256 -1.2632  0.1962
17848TIP3   OH274958   1.415   4.389   0.268  0.0490  0.0984 -0.7497
17848TIP3    H174959   1.324   4.415   0.257 -0.3632 -1.4791 -1.2878
17848TIP3    H274960   1.465   4.461   0.231 -0.9476  1.1754 -0.0721
17849TIP3   OH274961   3.423   4.413  12.700  0.4397 -0.4066  0.7949
17849TIP3    H174962   3.337   4.371  12.693  0.6580 -0.7959  0.4016
17849TIP3    H274963   3.415   4.471  12.776 -1.0313  1.5919 -0.7883
17850TIP3   OH274964   2.731   6.237  17.208  0.7290 -0.1391 -0.4329
17850TIP3    H174965   2.810   6.218  17.259  0.2039 -0.7582  0.1599
17850TIP3    H274966   2.755   6.216  17.118  0.8999 -1.4034 -0.1066
17851TIP3   OH274967   1.974   6.575   6.036  0.3254 -0.4640 -0.2746
17851TIP3    H174968   1.886   6.553   6.005  0.3133 -1.2172  0.2616
17851TIP3    H274969   2.032   6.531   5.973  0.3334  0.4942 -0.9530
17852TIP3   OH274970   5.192   2.195   2.415 -0.4110  0.5391  0.5081
17852TIP3    H174971   5.245   2.158   2.344 -0.5162  0.8738  0.2502
17852TIP3    H274972   5.222   2.285   2.423  1.0988 -0.0683  2.3486
17853TIP3   OH274973   3.683   4.951  12.268 -0.1376  0.0181  0.2938
17853TIP3    H174974   3.595   4.954  12.230 -0.4368 -0.1535  0.9480
17853TIP3    H274975   3.720   5.038  12.250 -1.2236  0.8387  1.7904
17854TIP3   OH274976   3.659   4.214  13.731 -0.4510 -0.3357 -0.0944
17854TIP3    H174977   3.660   4.120  13.748 -0.0094 -0.1974  0.6602
17854TIP3    H274978   3.575   4.229  13.687  0.3596 -1.4020 -2.1202
17855TIP3   OH274979   4.255   1.851   5.232  0.0374  0.4883 -0.7793
17855TIP3    H174980   4.349   1.837   5.238  0.0001  0.4920 -0.1178
17855TIP3    H274981   4.235   1.914   5.301 -0.5220  0.0982 -0.5709
17856TIP3   OH274982   0.610   2.151   2.024 -0.0539 -0.3329  0.2507
17856TIP3    H174983   0.558   2.084   2.069 -1.0902  1.0095  1.1845
17856TIP3    H274984   0.555   2.178   1.950 -0.8511  1.1921  1.3226
17857TIP3   OH274985   5.585   1.717  11.046  0.0765 -0.0366  0.3572
17857TIP3    H174986   5.606   1.628  11.020  1.9355  0.5653 -0.3528
17857TIP3    H274987   5.577   1.766  10.964 -0.2962  0.5898  0.7524
17858TIP3   OH274988   1.537   5.944   0.586  0.2084  0.2614 -0.2391
17858TIP3    H174989   1.627   5.916   0.572  0.2078  0.7066 -1.2187
17858TIP3    H274990   1.542   6.006   0.659  0.8300  0.9583 -0.8606
17859TIP3   OH274991   3.162   6.066  16.916  0.2639  0.2780 -0.6343
17859TIP3    H174992   3.223   6.134  16.887  2.5778 -0.6101  1.7610
17859TIP3    H274993   3.203   5.983  16.889 -0.2411 -0.3311  0.4065
17860TIP3   OH274994   4.425   1.253  10.662 -0.1642 -0.6912  0.2067
17860TIP3    H174995   4.330   1.242  10.664 -0.0490 -2.8962  3.8170
17860TIP3    H274996   4.458   1.166  10.643  1.1424 -0.1606 -0.0157
17861TIP3   OH274997   3.139   1.733  15.126  0.6377 -0.1640 -0.5204
17861TIP3    H174998   3.216   1.679  15.108  0.7745 -0.4386  0.7548
17861TIP3    H274999   3.173   1.805  15.179  0.0355 -0.2543 -0.0071
17862TIP3   OH275000   2.855   1.094  11.019 -0.2551 -0.2298  0.2115
17862TIP3    H175001   2.882   1.103  10.927  1.1352  0.4949  0.6676
17862TIP3    H275002   2.815   1.007  11.023  0.1663 -0.5008 -0.9584
17863TIP3   OH275003   4.309   5.562   1.420  0.1567 -0.1236 -0.3637
17863TIP3    H175004   4.300   5.653   1.447 -0.1034 -0.6302  1.3220
17863TIP3    H275005   4.228   5.544   1.372  0.6064  0.7714 -1.5176
17864TIP3   OH275006   5.749   6.271   3.547  0.2175  0.9703 -0.2793
17864TIP3    H175007   5.802   6.219   3.608 -0.3698  0.5379 -0.1302
17864TIP3    H275008   5.802   6.275   3.468  0.6235  0.8341 -0.0215
17865TIP3   OH275009   4.362   2.009   2.291  0.2986 -0.0009 -0.0130
17865TIP3    H175010   4.366   2.012   2.387 -1.3658 -0.7236  0.1058
17865TIP3    H275011   4.383   2.098   2.263 -3.2677  1.3770  1.2325
17866TIP3   OH275012   1.035   5.210   0.373 -0.2970 -0.7703 -0.0525
17866TIP3    H175013   0.951   5.164   0.386 -0.7349  0.4088  1.5131
17866TIP3    H275014   1.010   5.297   0.342  0.3989 -0.6873 -0.3876
17867TIP3   OH275015   6.215   4.188  13.166  0.0081  0.3287 -0.5036
17867TIP3    H175016   6.150   4.220  13.229  0.1053  0.8230 -0.6468
17867TIP3    H275017   6.285   4.253  13.170  0.3819 -0.0712 -0.5335
17868TIP3   OH275018   2.052   2.323  11.367 -0.3004 -0.5062  0.2892
17868TIP3    H175019   2.083   2.244  11.412  0.8433 -0.5356 -0.5254
17868TIP3    H275020   2.037   2.296  11.277 -0.0806  0.1622  0.0446
17869TIP3   OH275021   2.656   6.638  11.778 -0.3012 -0.1245  0.1342
17869TIP3    H175022   2.658   6.631  11.873 -0.7398 -1.2437  0.0773
17869TIP3    H275023   2.748   6.637  11.752 -0.1749  0.3165  0.5486
17870TIP3   OH275024   1.889   0.451  11.999 -0.3217  0.1739  0.0802
17870TIP3    H175025   1.947   0.504  12.054 -0.1790 -0.0146  0.1128
17870TIP3    H275026   1.825   0.414  12.060  0.2478 -0.5885  0.2272
17871TIP3   OH275027   3.798   2.493   0.994 -0.1482 -0.1262  0.2280
17871TIP3    H175028   3.709   2.495   0.959 -0.3150  0.7829  0.6452
17871TIP3    H275029   3.809   2.580   1.034  0.7694 -0.3859  0.5628
17872TIP3   OH275030   0.876   6.286  13.598  0.4618  0.0579 -0.3454
17872TIP3    H175031   0.925   6.233  13.659  2.2804  0.8871 -1.0156
17872TIP3    H275032   0.941   6.316  13.534 -0.7755  1.7815 -0.8720
17873TIP3   OH275033   4.978   5.233  16.506  0.1733 -0.0077 -0.6261
17873TIP3    H175034   5.016   5.166  16.563 -0.0098 -0.1405 -0.6583
17873TIP3    H275035   5.052   5.266  16.456  0.2571 -0.2231 -0.6490
17874TIP3   OH275036   2.971   4.694  11.243 -0.0062 -0.0512  0.1148
17874TIP3    H175037   3.033   4.740  11.187 -0.7210  0.7140 -0.0740
17874TIP3    H275038   2.893   4.683  11.188 -0.3831 -0.1265  0.6609
17875TIP3   OH275039   3.320   5.168  13.805 -0.0544 -0.1557  0.2820
17875TIP3    H175040   3.289   5.219  13.880 -1.3171  0.4949 -0.6444
17875TIP3    H275041   3.259   5.094  13.799 -0.3734  0.1535 -0.4778
17876TIP3   OH275042   1.617   0.510  15.591  0.3710  0.3125  0.3115
17876TIP3    H175043   1.550   0.443  15.599  1.1277 -0.3404  1.4749
17876TIP3    H275044   1.668   0.484  15.514 -1.1125  1.2320 -1.0506
17877TIP3   OH275045   4.722   0.272   3.122 -0.0934 -0.3602  1.1243
17877TIP3    H175046   4.752   0.266   3.213 -1.3167  0.3404  1.5998
17877TIP3    H275047   4.626   0.274   3.128 -0.1765  0.5159 -0.1181
17878TIP3   OH275048   5.630   5.148  12.061 -0.0701  0.1010 -0.0017
17878TIP3    H175049   5.584   5.196  11.992 -0.8073  0.7658  0.9272
17878TIP3    H275050   5.569   5.080  12.088 -0.4138  0.7791  1.0089
17879TIP3   OH275051   3.497   4.935   1.622 -0.0799 -0.1489  0.2943
17879TIP3    H175052   3.433   4.888   1.674 -0.5778 -0.2394 -0.3786
17879TIP3    H275053   3.456   4.942   1.535  0.8272 -0.2256 -0.1512
17880TIP3   OH275054   2.144   1.115   0.830  0.2127  0.5185 -0.3229
17880TIP3    H175055   2.237   1.100   0.814  0.6316  1.9802  0.5989
17880TIP3    H275056   2.141   1.167   0.910 -1.3230  1.8404 -1.1742
17881TIP3   OH275057   4.958   2.840  14.428  0.3505  0.6265 -0.0839
17881TIP3    H175058   4.944   2.836  14.333  1.2474 -1.3797 -0.1803
17881TIP3    H275059   5.049   2.867  14.439  0.0433  1.5673  0.2432
17882TIP3   OH275060   4.651   2.964   2.534  0.0049 -0.5300  0.3545
17882TIP3    H175061   4.599   3.001   2.605  1.2306 -2.7105  2.5485
17882TIP3    H275062   4.729   3.020   2.529 -0.3241 -0.0721  0.3815
17883TIP3   OH275063   0.364   0.770   1.989 -0.4681  0.6357  0.3257
17883TIP3    H175064   0.382   0.782   2.082  0.4218 -0.6297  0.3433
17883TIP3    H275065   0.445   0.797   1.946  0.0066 -1.0404  0.1026
17884TIP3   OH275066   1.600   1.952   0.122 -0.0907 -0.4558 -0.0418
17884TIP3    H175067   1.681   1.926   0.166 -0.6836 -1.2055  0.6299
17884TIP3    H275068   1.575   2.035   0.164  1.4021  0.9170 -1.6738
17885TIP3   OH275069   6.328   3.255  15.899  0.4097 -0.1727  0.2113
17885TIP3    H175070   6.421   3.265  15.921  0.2750  1.4304  0.0992
17885TIP3    H275071   6.311   3.161  15.913  1.1335  0.0764  3.7620
17886TIP3   OH275072   0.946   3.439   5.096  0.4130  0.4888 -0.4861
17886TIP3    H175073   0.991   3.359   5.123  1.5659  1.1616 -0.3257
17886TIP3    H275074   0.890   3.412   5.023  0.6529 -0.4859 -0.3232
17887TIP3   OH275075   4.225   4.417   4.834  0.2181 -0.0771  0.6083
17887TIP3    H175076   4.163   4.484   4.804  0.1155 -0.0720  0.8326
17887TIP3    H275077   4.307   4.465   4.848  0.8454 -0.4020 -1.5691
17888TIP3   OH275078   5.240   5.607  11.003  0.1086  0.2564 -0.7530
17888TIP3    H175079   5.169   5.669  11.018  0.3439  0.1253  1.2330
17888TIP3    H275080   5.198   5.521  11.008  0.3803  0.1751  0.5443
17889TIP3   OH275081   0.017   1.755   1.024  0.2217 -0.3179 -0.0126
17889TIP3    H175082  -0.004   1.841   1.061 -0.2184  0.1642 -1.3052
17889TIP3    H275083  -0.019   1.692   1.086 -1.6161  0.4597 -0.2261
17890TIP3   OH275084   2.699   3.415  16.142 -0.1719 -0.0685 -0.0392
17890TIP3    H175085   2.612   3.374  16.141  0.1753 -0.8553  0.9629
17890TIP3    H275086   2.742   3.381  16.064 -0.0732 -1.2468  0.5019
17891TIP3   OH275087   6.648   0.464  16.112 -0.5057 -0.3906 -0.0435
17891TIP3    H175088   6.586   0.536  16.101 -0.4027 -0.3548 -0.3845
17891TIP3    H275089   6.730   0.496  16.075 -0.4983 -0.7342 -0.3365
17892TIP3   OH275090   3.120   4.002   3.337  0.2511 -0.3825 -0.1089
17892TIP3    H175091   3.104   3.968   3.249 -0.6507  0.3365 -0.2379
17892TIP3    H275092   3.054   4.070   3.348 -0.2220 -1.0506  1.4537
17893TIP3   OH275093   6.225   5.430  15.746 -0.1327  0.2392  0.3256
17893TIP3    H175094   6.173   5.432  15.665  0.1814 -0.1731  0.1057
17893TIP3    H275095   6.197   5.507  15.795 -1.2775 -0.2074  0.4118
17894TIP3   OH275096   6.618   5.344  15.075  0.2141 -0.2692  0.3406
17894TIP3    H175097   6.551   5.405  15.108  0.2420  0.2043 -0.4678
17894TIP3    H275098   6.670   5.323  15.152  0.0359  0.5208  0.6903
17895TIP3   OH275099   4.814   1.343   5.593 -0.9044 -0.4178 -0.5109
17895TIP3    H175100   4.849   1.346   5.682  2.1872  2.9389 -1.5980
17895TIP3    H275101   4.719   1.334   5.605 -0.5797 -0.5233  3.0552
17896TIP3   OH275102   4.300   3.834   3.137  1.2509  0.5403 -0.3057
17896TIP3    H175103   4.226   3.780   3.111  1.5653 -0.1570  0.2010
17896TIP3    H275104   4.269   3.924   3.129 -0.2694  0.2380  1.6681
17897TIP3   OH275105   3.056   6.549  14.167 -0.0093 -0.1139 -0.1990
17897TIP3    H175106   2.965   6.543  14.194 -0.3403  1.7519 -0.7580
17897TIP3    H275107   3.052   6.581  14.076  1.1947  0.7913  0.0447
17898TIP3   OH275108   5.067   2.566   6.542  0.1918 -0.0821 -0.0111
17898TIP3    H175109   5.027   2.481   6.527  0.0745 -0.5190  2.3614
17898TIP3    H275110   5.156   2.558   6.506 -0.5048 -0.4269 -1.7459
17899TIP3   OH275111   5.735   6.532   0.991 -0.0550  0.5637 -0.5285
17899TIP3    H175112   5.732   6.607   0.932  0.8788  0.3062 -0.9186
17899TIP3    H275113   5.794   6.469   0.948 -2.7585 -1.5198 -1.4801
17900TIP3   OH275114   5.766   3.107  16.741 -0.5777 -0.5285  0.0967
17900TIP3    H175115   5.722   3.171  16.796  1.0225  0.6087  0.1062
17900TIP3    H275116   5.697   3.073  16.684 -1.5265  0.9888  0.2879
17901TIP3   OH275117   6.141   0.580  17.260  0.8740  0.1449  0.0656
17901TIP3    H175118   6.193   0.654  17.293  0.6011  0.2142  0.3560
17901TIP3    H275119   6.189   0.547  17.185 -0.1801  2.1283 -1.5943
17902TIP3   OH275120   3.027   5.947   1.089 -0.2210 -1.0040  0.1639
17902TIP3    H175121   2.968   5.995   1.030 -0.5569  0.0618  1.3194
17902TIP3    H275122   3.111   5.993   1.080 -0.6039 -0.0041  1.4523
17903TIP3   OH275123   3.377   6.092   1.075  0.1525  0.1506  0.7415
17903TIP3    H175124   3.338   6.025   1.020  1.2114  0.3237 -0.2571
17903TIP3    H275125   3.322   6.169   1.062  0.5070  0.2529 -0.2705
17904TIP3   OH275126   6.669   1.754  16.850  0.5746 -0.0314  0.1846
17904TIP3    H175127   6.592   1.809  16.860  0.8440  0.4799 -0.4678
17904TIP3    H275128   6.738   1.800  16.899  0.4935 -0.4433  0.6945
17905TIP3   OH275129   1.401   5.534  16.028  0.5739  0.9765 -0.1329
17905TIP3    H175130   1.410   5.464  16.093 -1.1648  0.5857 -0.2474
17905TIP3    H275131   1.344   5.598  16.069 -0.8336  0.5626 -1.3489
17906TIP3   OH275132   5.006   1.226  14.803 -0.2093  0.0861  0.9552
17906TIP3    H175133   5.101   1.221  14.810 -0.3206 -0.4685  2.4254
17906TIP3    H275134   4.986   1.319  14.802  0.3203  0.2017  1.0635
17907TIP3   OH275135   4.083   3.687  16.870  0.0544  0.3478  0.3383
17907TIP3    H175136   4.122   3.608  16.831  0.0373  0.1220  0.7754
17907TIP3    H275137   4.049   3.736  16.795 -1.2656 -0.7760  0.1645
17908TIP3   OH275138   6.315   6.747   6.800  0.0464 -0.7158  0.7085
17908TIP3    H175139   6.383   6.701   6.750  0.3566 -0.4142  0.8476
17908TIP3    H275140   6.356   6.830   6.826 -1.2394  0.6999 -1.4999
17909TIP3   OH275141   3.365   6.740   0.123 -0.3947  0.0728  0.0823
17909TIP3    H175142   3.326   6.715   0.207  2.2609 -0.1064  1.3602
17909TIP3    H275143   3.452   6.701   0.124 -0.2028  0.2044 -2.7319
17910TIP3   OH275144   2.800   5.529  14.646  0.1855 -0.1782  0.1102
17910TIP3    H175145   2.866   5.471  14.685 -0.0442 -1.3775 -1.2189
17910TIP3    H275146   2.835   5.552  14.560  0.6337  2.3590  0.8878
17911TIP3   OH275147   6.580   0.761  14.382 -0.6888  0.0963 -0.9385
17911TIP3    H175148   6.541   0.778  14.467  2.1058 -2.8980  1.2156
17911TIP3    H275149   6.574   0.844  14.335 -0.9819  2.3920  2.7751
17912TIP3   OH275150   3.674   1.116   0.021 -0.4317  0.3566  0.2850
17912TIP3    H175151   3.589   1.090   0.057  0.1624 -1.3392  0.5377
17912TIP3    H275152   3.729   1.038   0.030  1.9944  2.1416  2.5942
17913TIP3   OH275153   4.238   6.452  12.135  0.0123  0.4573 -0.1160
17913TIP3    H175154   4.225   6.446  12.040  2.9297 -1.5634 -0.5088
17913TIP3    H275155   4.153   6.430  12.172 -0.5617 -1.3639 -2.2903
17914TIP3   OH275156   0.466   3.281   2.377 -0.1871 -0.5792 -0.1878
17914TIP3    H175157   0.441   3.198   2.336 -0.2363 -1.1448  0.9370
17914TIP3    H275158   0.404   3.291   2.449 -1.7184  1.6537 -1.7028
17915TIP3   OH275159   2.170   1.096  16.409 -0.0151  0.7192 -0.1108
17915TIP3    H175160   2.217   1.023  16.451 -0.3759  0.9565  0.7141
17915TIP3    H275161   2.119   1.135  16.479 -1.7010  0.2876 -1.0568
17916TIP3   OH275162   4.220   4.283  12.048 -0.1536  0.1942  0.1285
17916TIP3    H175163   4.311   4.256  12.060  0.0064  0.0621 -1.2384
17916TIP3    H275164   4.169   4.202  12.059 -0.1659  0.3555  1.3741
17917TIP3   OH275165   4.610   2.270   1.749  0.3955 -0.1796  0.3953
17917TIP3    H175166   4.563   2.235   1.825 -0.7479 -0.5749 -0.4531
17917TIP3    H275167   4.656   2.194   1.713  0.1965 -0.1966  0.1742
17918TIP3   OH275168   3.033   1.548   0.641 -0.3030  0.3044 -0.6333
17918TIP3    H175169   3.056   1.467   0.686 -4.4033 -0.5005  0.4046
17918TIP3    H275170   3.043   1.527   0.548 -1.8508 -1.6789 -0.4192
17919TIP3   OH275171   6.335   4.646   1.878 -0.1851  0.4547 -0.9346
17919TIP3    H175172   6.270   4.650   1.808  0.2077 -0.2919 -1.3474
17919TIP3    H275173   6.288   4.606   1.952 -0.1251 -0.3502 -1.3222
17920TIP3   OH275174   0.655   5.261   6.065 -0.1903 -0.7104  0.6168
17920TIP3    H175175   0.670   5.342   6.016 -1.4163  0.0172  1.4101
17920TIP3    H275176   0.678   5.283   6.155  0.7544 -1.6579  0.6379
17921TIP3   OH275177   1.358   5.819  14.764 -0.1330 -0.1831  0.0214
17921TIP3    H175178   1.329   5.874  14.837 -0.2735  0.7494 -0.7119
17921TIP3    H275179   1.380   5.735  14.805 -0.0997  0.3456  1.1458
17922TIP3   OH275180   2.770   4.381   0.965 -0.3135 -0.0741 -0.0370
17922TIP3    H175181   2.855   4.383   0.921 -0.1024 -2.1894  0.1999
17922TIP3    H275182   2.707   4.364   0.895  0.0274 -3.4918  0.3154
17923TIP3   OH275183   4.653   2.453   2.899 -0.6751 -0.3997 -0.5396
17923TIP3    H175184   4.705   2.433   2.822 -0.0080  0.0704 -0.2195
17923TIP3    H275185   4.629   2.545   2.888 -1.0065 -0.4727 -0.4363
17924TIP3   OH275186   4.810   1.484  15.869  0.0486 -0.1888  0.0251
17924TIP3    H175187   4.812   1.400  15.823  0.1264  0.2459 -0.7905
17924TIP3    H275188   4.891   1.485  15.919 -0.5014 -1.0896  0.9547
17925TIP3   OH275189   0.569   3.448  16.222 -0.4747 -0.0406 -0.6930
17925TIP3    H175190   0.631   3.440  16.149 -1.3079 -0.2827 -1.3909
17925TIP3    H275191   0.483   3.436  16.182 -0.9461 -0.2667  0.3500
17926TIP3   OH275192   3.530   1.469  16.481 -0.0706 -0.0945 -0.2823
17926TIP3    H175193   3.491   1.434  16.401 -0.6789  1.9464 -0.9216
17926TIP3    H275194   3.624   1.455  16.471 -0.2722 -1.3711 -0.5634
17927TIP3   OH275195   3.346   6.771   4.240  0.5842  0.6268  0.7250
17927TIP3    H175196   3.292   6.741   4.314  1.5774 -0.4224  1.0455
17927TIP3    H275197   3.398   6.695   4.216 -1.1561  0.2715 -2.4386
17928TIP3   OH275198   6.618   0.908  12.974  0.0056 -0.4301 -0.4954
17928TIP3    H175199   6.654   0.883  13.059  0.8501 -0.7842 -0.9461
17928TIP3    H275200   6.537   0.857  12.967  0.2606 -0.8909 -0.1842
17929TIP3   OH275201   5.901   2.387  15.501 -0.1902 -0.1477 -0.4353
17929TIP3    H175202   5.879   2.429  15.584 -0.9629 -0.5011 -0.4512
17929TIP3    H275203   5.880   2.294  15.514  0.4213 -0.3402 -0.7703
17930TIP3   OH275204   0.206   0.909  17.166 -0.2291  0.3206 -0.5502
17930TIP3    H175205   0.281   0.856  17.140 -1.0941 -0.7254 -0.9705
17930TIP3    H275206   0.140   0.894  17.098 -0.3822  2.2544 -0.9057
17931TIP3   OH275207   4.060   1.821   6.227 -0.1381  0.2296 -0.2699
17931TIP3    H175208   4.151   1.800   6.247 -0.6356 -0.8400  1.0354
17931TIP3    H275209   4.020   1.839   6.312 -1.4917 -0.8410 -0.6378
17932TIP3   OH275210   1.663   4.017   5.674  0.1528  0.4522 -0.8958
17932TIP3    H175211   1.705   4.010   5.588 -1.0607  1.7434 -1.6267
17932TIP3    H275212   1.629   3.929   5.691  1.1277 -0.0295 -1.3307
17933TIP3   OH275213   2.504   0.124  17.070 -0.4901  0.1229 -0.2994
17933TIP3    H175214   2.541   0.170  17.146  0.0738 -1.3161  0.3286
17933TIP3    H275215   2.580   0.092  17.022 -0.8743 -0.7229 -0.3571
17934TIP3   OH275216   5.251   6.199  12.906 -0.1733  0.2096  0.1686
17934TIP3    H175217   5.280   6.108  12.915  0.3754  0.3665  0.0222
17934TIP3    H275218   5.173   6.205  12.961  0.8200  0.1166  1.6577
17935TIP3   OH275219   4.387   1.184   5.378 -0.7377 -0.3513 -0.2773
17935TIP3    H175220   4.459   1.161   5.318 -1.6228  1.2194 -2.0385
17935TIP3    H275221   4.374   1.105   5.431  1.6031 -1.0074 -0.5827
17936TIP3   OH275222   4.181   5.548   4.679 -0.4496 -0.7439  0.3045
17936TIP3    H175223   4.149   5.559   4.769 -1.2271 -1.8037  0.1705
17936TIP3    H275224   4.186   5.637   4.644 -1.3065 -0.4118  0.9973
17937TIP3   OH275225   5.609   0.827   5.417 -0.0252 -0.2169 -0.2854
17937TIP3    H175226   5.544   0.889   5.384  1.2626  0.2828 -2.0118
17937TIP3    H275227   5.640   0.781   5.339  1.1850 -0.9516  0.5969
17938TIP3   OH275228   4.107   5.637   0.242 -0.1535  0.3033 -0.0625
17938TIP3    H175229   4.123   5.710   0.182 -1.2258 -1.5509 -2.7815
17938TIP3    H275230   4.053   5.675   0.311  1.2249  2.5665 -0.1091
17939TIP3   OH275231   0.544   5.469  11.990 -0.3175  0.1994  0.3650
17939TIP3    H175232   0.467   5.421  12.018 -0.8054  0.3514 -0.6522
17939TIP3    H275233   0.556   5.537  12.056 -1.6354  0.7686  0.0485
17940TIP3   OH275234   3.446   1.556   4.529  0.0651 -0.4179 -0.6448
17940TIP3    H175235   3.484   1.546   4.616 -1.2381 -2.5845 -0.2414
17940TIP3    H275236   3.487   1.486   4.477 -0.4551 -0.2704 -1.2665
17941TIP3   OH275237   0.138   3.186   1.350 -0.3639 -0.6760  0.3904
17941TIP3    H175238   0.170   3.126   1.283 -0.7803 -1.8800  1.2431
17941TIP3    H275239   0.201   3.259   1.348 -1.4888  0.4068 -2.7324
17942TIP3   OH275240   5.608   0.569   2.791  0.2290 -1.1989  0.2597
17942TIP3    H175241   5.517   0.569   2.820  0.0621 -2.7530 -0.1586
17942TIP3    H275242   5.602   0.575   2.695  0.6720  0.8694  0.3150
17943TIP3   OH275243   2.607   2.513  11.719  0.3253  0.3189 -0.1970
17943TIP3    H175244   2.702   2.515  11.730  0.2906  0.6198  0.0539
17943TIP3    H275245   2.573   2.555  11.798  0.0561  2.0840 -1.1818
17944TIP3   OH275246   2.668   2.355   1.357 -0.0636  0.2969  1.1342
17944TIP3    H175247   2.624   2.406   1.289 -1.4984 -0.1596  1.6781
17944TIP3    H275248   2.707   2.281   1.310 -1.8631 -0.5506  0.8601
17945TIP3   OH275249   0.662   2.876  12.500  0.1351  0.2968  0.0798
17945TIP3    H175250   0.639   2.802  12.444 -0.6168  0.9466 -0.4879
17945TIP3    H275251   0.626   2.952  12.456  0.4605  0.9551  0.9149
17946TIP3   OH275252   5.002   6.324   3.009 -0.3613 -0.9522 -1.0186
17946TIP3    H175253   5.053   6.393   3.051 -0.4660 -0.8394 -1.0769
17946TIP3    H275254   5.054   6.298   2.933  0.5721 -2.2165  0.0118
17947TIP3   OH275255   0.801   4.533  16.133  0.2061  0.1677  0.0830
17947TIP3    H175256   0.722   4.488  16.101 -0.2709 -0.0473  1.4943
17947TIP3    H275257   0.810   4.503  16.223 -0.4189  3.2709  1.2789
17948TIP3   OH275258   4.983   4.631  14.641  0.1698 -0.0966  0.1099
17948TIP3    H175259   4.937   4.622  14.724  2.1797 -0.6180  1.2395
17948TIP3    H275260   5.065   4.583  14.654  1.5300  1.6809 -1.3926
17949TIP3   OH275261   3.910   4.575   3.094  0.1772  0.6488 -0.5763
17949TIP3    H175262   3.934   4.525   3.172 -0.9721  0.5275 -0.2780
17949TIP3    H275263   3.858   4.514   3.042  1.0166  0.6961 -1.5029
17950TIP3   OH275264   6.751   2.985  12.071 -0.3450  0.1916  0.2405
17950TIP3    H175265   6.824   2.939  12.113  0.1763  0.4351 -0.3897
17950TIP3    H275266   6.684   2.917  12.058 -0.5102  0.1031  1.4241
17951TIP3   OH275267   2.602   3.501   3.584 -0.3815  0.2029  0.1128
17951TIP3    H175268   2.673   3.490   3.648 -1.6443 -0.3817  1.4812
17951TIP3    H275269   2.634   3.568   3.524  1.3144 -0.0282  0.6907
17952TIP3   OH275270   0.000   4.220   1.927  0.5375  0.1076  0.2760
17952TIP3    H175271  -0.062   4.147   1.921  0.7678 -0.0119 -0.8018
17952TIP3    H275272   0.071   4.196   1.867  1.6061  0.2771  1.4310
17953TIP3   OH275273   5.165   4.409  16.324  0.1264 -0.3914  0.3185
17953TIP3    H175274   5.121   4.343  16.270  0.7857 -0.1036 -0.5940
17953TIP3    H275275   5.208   4.359  16.393  0.6723 -0.9393 -0.3998
17954TIP3   OH275276   0.362   4.084  13.507 -0.5338 -0.1816 -0.0676
17954TIP3    H175277   0.328   4.169  13.477  1.9379  0.6842 -0.6727
17954TIP3    H275278   0.284   4.036  13.535 -2.0360  2.3089  0.3837
17955TIP3   OH275279   5.169   5.258   1.489 -0.0256 -0.5207  0.5283
17955TIP3    H175280   5.180   5.196   1.417 -0.6998  0.1077 -0.1240
17955TIP3    H275281   5.130   5.205   1.559  1.9670 -1.4901  0.9915
17956TIP3   OH275282   4.031   6.674  11.498 -0.2857 -0.1857 -0.4562
17956TIP3    H175283   4.011   6.753  11.548  1.8494  0.5033 -0.5676
17956TIP3    H275284   3.993   6.689  11.412 -0.5356  0.3833 -0.2482
17957TIP3   OH275285   3.788   6.437  15.491 -0.2341  0.3955  0.2110
17957TIP3    H175286   3.727   6.392  15.433  0.7228 -1.9973  0.9463
17957TIP3    H275287   3.871   6.438  15.444 -0.2918  1.7412  0.0860
17958TIP3   OH275288   3.426   6.656   5.323 -0.1716  0.8504 -0.0048
17958TIP3    H175289   3.379   6.581   5.360  2.9403 -1.3941 -0.1235
17958TIP3    H275290   3.469   6.696   5.398  2.2989 -0.7683 -0.4459
17959TIP3   OH275291   3.752   1.201   5.243  0.2153  0.0623 -0.1401
17959TIP3    H175292   3.726   1.214   5.152 -1.7772 -2.0705  0.0336
17959TIP3    H275293   3.817   1.269   5.259  0.3868  0.7069 -3.0327
17960TIP3   OH275294   5.459   2.915   0.168  0.1273 -0.2532  0.2659
17960TIP3    H175295   5.495   2.881   0.249  1.7469  0.7992  0.0473
17960TIP3    H275296   5.368   2.885   0.167  0.4207 -1.3169  1.8477
17961TIP3   OH275297   5.682   1.001  16.329 -0.4670  0.3524  0.1336
17961TIP3    H175298   5.730   0.987  16.411  0.0820  1.0996 -0.0399
17961TIP3    H275299   5.704   1.091  16.305 -1.8042  0.6383 -0.0691
17962TIP3   OH275300   5.193   3.017   0.547 -0.2474 -0.5961 -0.3641
17962TIP3    H175301   5.198   3.056   0.460 -0.3568  0.1376 -0.0488
17962TIP3    H275302   5.278   2.975   0.560  0.0681 -0.0031 -0.4980
17963TIP3   OH275303   0.266   2.115   6.014  0.5902 -0.1144 -0.4329
17963TIP3    H175304   0.301   2.126   6.103  0.4680 -1.3133 -0.2155
17963TIP3    H275305   0.342   2.125   5.957  0.9481 -0.7812 -0.0886
17964TIP3   OH275306   0.572   0.428  14.336  0.5505  0.1342  0.1052
17964TIP3    H175307   0.516   0.490  14.289  1.4030  1.9678  1.3981
17964TIP3    H275308   0.660   0.448  14.306  0.7331 -1.7091 -0.7733
17965TIP3   OH275309   0.603   0.924   6.641 -0.3755 -0.2107 -0.4826
17965TIP3    H175310   0.573   0.993   6.581  1.0230  1.2318  0.4118
17965TIP3    H275311   0.651   0.863   6.584 -1.3265 -0.2965 -1.2285
17966TIP3   OH275312   6.241   0.145   0.906  0.3024  0.3688  0.1161
17966TIP3    H175313   6.232   0.171   0.814 -0.6023 -0.8471 -0.1637
17966TIP3    H275314   6.245   0.228   0.954  1.8979  1.0427 -1.0899
17967TIP3   OH275315   6.631   3.365  11.281 -0.4128  0.3738  0.7202
17967TIP3    H175316   6.565   3.434  11.285 -1.5784 -0.7113  0.6955
17967TIP3    H275317   6.583   3.283  11.293  0.6023 -0.6250 -1.3319
17968TIP3   OH275318   0.526   6.664   3.082 -0.2921  0.7286 -0.2401
17968TIP3    H175319   0.505   6.571   3.091  0.8456  0.6118  1.6811
17968TIP3    H275320   0.504   6.702   3.166  0.0827  2.0426 -0.7124
17969TIP3   OH275321   0.726   5.465  16.201  0.1308 -0.2611 -0.7607
17969TIP3    H175322   0.794   5.398  16.206  0.2533 -0.3363 -2.6655
17969TIP3    H275323   0.759   5.529  16.138  0.6436  2.4382  2.0427
17970TIP3   OH275324   6.676   5.336  15.405  0.1289 -0.7481 -0.3545
17970TIP3    H175325   6.760   5.359  15.444 -0.3839 -1.0517  0.9762
17970TIP3    H275326   6.613   5.345  15.476 -1.5377  2.4718 -1.9818
17971TIP3   OH275327   0.148   5.116  16.618  0.5264 -0.6022  0.2988
17971TIP3    H175328   0.233   5.159  16.622  0.6596 -0.7025 -1.0998
17971TIP3    H275329   0.167   5.023  16.613  0.3449 -0.6226 -0.0784
17972TIP3   OH275330   3.130   5.845  15.363  0.1947 -0.0860 -0.2262
17972TIP3    H175331   3.158   5.770  15.417 -1.5458 -0.6204 -0.0127
17972TIP3    H275332   3.093   5.907  15.426 -2.1122 -0.8276 -0.7504
17973TIP3   OH275333   2.726   6.685  14.653  0.8644  0.0432 -0.7260
17973TIP3    H175334   2.725   6.595  14.686 -0.4833  0.1907 -0.2872
17973TIP3    H275335   2.809   6.693  14.607 -0.0838 -2.3360 -3.1949
17974TIP3   OH275336   6.614   1.445  12.053 -0.6889  0.3564 -0.6726
17974TIP3    H175337   6.527   1.481  12.039 -1.7241 -2.0049 -0.8543
17974TIP3    H275338   6.605   1.390  12.131  0.5004 -0.3260 -0.9890
17975TIP3   OH275339   1.296   1.918  16.007 -0.5493  0.1059  0.2403
17975TIP3    H175340   1.208   1.952  15.989 -0.2144  0.9018  0.1080
17975TIP3    H275341   1.282   1.851  16.074 -1.4552 -0.8585 -0.8490
17976TIP3   OH275342   2.332   2.915   4.470 -0.4494 -0.1699 -0.2720
17976TIP3    H175343   2.265   2.883   4.410 -1.0667 -0.2791  0.4715
17976TIP3    H275344   2.323   3.010   4.468 -0.6725 -0.1880 -0.1192
17977TIP3   OH275345   0.795   1.681   0.635 -0.0779  0.5690  0.0948
17977TIP3    H175346   0.801   1.591   0.603  1.0494  1.2207 -1.6507
17977TIP3    H275347   0.721   1.718   0.587 -0.7060  0.5334  1.0046
17978TIP3   OH275348   6.130   4.076   0.731 -0.1052 -0.0421 -0.2984
17978TIP3    H175349   6.094   4.076   0.820 -0.3784 -1.5290 -0.3941
17978TIP3    H275350   6.054   4.073   0.674  0.0694  0.9761 -0.6072
17979TIP3   OH275351   6.138   6.138  17.262  0.2055  0.1403 -0.3455
17979TIP3    H175352   6.190   6.111  17.337 -0.7316  0.4823  0.4509
17979TIP3    H275353   6.106   6.055  17.224  0.3518 -0.0195 -0.1218
17980TIP3   OH275354   0.563   4.675  15.829  0.2314  0.6830 -0.8051
17980TIP3    H175355   0.505   4.599  15.824 -0.2029  0.9925 -0.5633
17980TIP3    H275356   0.651   4.639  15.828  0.0404  0.2154 -1.4617
17981TIP3   OH275357   4.647   4.417   1.878  0.4935  0.3394 -0.4659
17981TIP3    H175358   4.606   4.413   1.791  1.7691 -0.4310 -1.0548
17981TIP3    H275359   4.574   4.437   1.937 -0.4498  0.6117 -1.6661
17982TIP3   OH275360   1.539   3.616   2.747 -0.2699 -0.3191 -0.5907
17982TIP3    H175361   1.448   3.639   2.728 -0.1895  0.7307  0.2429
17982TIP3    H275362   1.537   3.585   2.837  0.3328  0.5447 -0.2724
17983TIP3   OH275363   6.139   1.715   0.397  0.1470  0.1046  1.0646
17983TIP3    H175364   6.128   1.623   0.371 -0.0727  0.5413 -0.5422
17983TIP3    H275365   6.200   1.712   0.470  1.9121 -1.1876 -0.3405
17984TIP3   OH275366   2.874   4.328  12.917  0.3305 -0.2085 -0.6979
17984TIP3    H175367   2.808   4.393  12.940 -0.9428 -0.9353 -2.0910
17984TIP3    H275368   2.950   4.349  12.971 -0.8032  1.0874  0.4344
17985TIP3   OH275369   3.126   0.524  14.007 -0.2523 -0.3053  0.1846
17985TIP3    H175370   3.162   0.612  14.021 -1.2544  0.2099 -0.3545
17985TIP3    H275371   3.087   0.528  13.920 -1.2505 -0.9588  0.5879
17986TIP3   OH275372   5.978   5.901   3.596 -0.0518  0.3496 -0.2768
17986TIP3    H175373   5.888   5.888   3.566  0.2819  0.7479 -1.5462
17986TIP3    H275374   5.995   5.829   3.655 -0.4264 -1.1218 -1.8863
17987TIP3   OH275375   6.124   2.664   4.341 -0.6232 -0.4196  0.3595
17987TIP3    H175376   6.113   2.580   4.387 -0.4523 -1.3016 -1.1535
17987TIP3    H275377   6.035   2.696   4.329 -0.7179 -0.6203  0.5108
17988TIP3   OH275378   4.483   2.512   4.675  0.1058  1.0122  0.4503
17988TIP3    H175379   4.509   2.463   4.597 -0.7175  2.6076 -0.8951
17988TIP3    H275380   4.419   2.455   4.719 -1.3746  1.1030 -1.4571
17989TIP3   OH275381   6.368   1.746  14.992  0.6339  0.6839  0.8423
17989TIP3    H175382   6.430   1.686  15.033  0.9121  0.0003 -0.5160
17989TIP3    H275383   6.321   1.786  15.065  0.9643 -0.6290  1.8078
17990TIP3   OH275384   0.929   5.800   0.692  0.3817 -0.3496  0.3747
17990TIP3    H175385   0.892   5.877   0.735 -2.7435 -2.1490  1.1787
17990TIP3    H275386   0.982   5.758   0.760 -0.7199 -0.7032  1.0311
17991TIP3   OH275387   4.844   1.165   4.662  0.1043  0.0782  0.1453
17991TIP3    H175388   4.936   1.176   4.686  0.6158 -0.3956 -1.4531
17991TIP3    H275389   4.821   1.248   4.619  0.4415 -0.5332 -1.3024
17992TIP3   OH275390   5.804   3.105   3.541  0.0953  0.0498 -0.1900
17992TIP3    H175391   5.863   3.084   3.468  0.1486 -2.3069  0.4527
17992TIP3    H275392   5.860   3.111   3.617 -0.1899  0.5777 -0.0142
17993TIP3   OH275393   0.707   6.545   4.605  0.0842 -0.2817  0.4052
17993TIP3    H175394   0.679   6.582   4.521  3.3034  1.0556 -0.1980
17993TIP3    H275395   0.766   6.473   4.582 -0.0450 -0.7853  1.5622
17994TIP3   OH275396   6.441   0.553   1.415 -0.4689  0.3037 -0.1494
17994TIP3    H175397   6.508   0.618   1.435 -0.3684 -0.3159  1.7246
17994TIP3    H275398   6.487   0.469   1.419 -0.9950 -0.0227 -0.6728
17995TIP3   OH275399   1.216   3.092  15.962 -0.2271 -0.3469 -0.0732
17995TIP3    H175400   1.298   3.123  16.001 -0.5555 -0.3661  0.6453
17995TIP3    H275401   1.214   3.132  15.875  0.7827 -0.7442 -0.2959
17996TIP3   OH275402   4.307   4.766  14.230  0.0504  0.3023  0.2471
17996TIP3    H175403   4.254   4.736  14.156 -0.4388 -1.2491  1.1711
17996TIP3    H275404   4.250   4.827  14.277 -1.5868 -2.3673  1.9967
17997TIP3   OH275405   2.733   4.528   0.261  0.0010  0.2096 -0.1821
17997TIP3    H175406   2.752   4.589   0.189  1.8286  0.2073  0.2476
17997TIP3    H275407   2.717   4.444   0.217 -2.5016  0.9128 -0.7735
17998TIP3   OH275408   2.172   4.451  11.783 -0.0291 -0.6041  0.2511
17998TIP3    H175409   2.250   4.406  11.750  1.4690  1.2640  1.0551
17998TIP3    H275410   2.178   4.443  11.878  0.5240  1.5877  0.4429
17999TIP3   OH275411   4.168   2.415  13.846  0.4160  0.3802  0.3475
17999TIP3    H175412   4.124   2.334  13.821 -2.3799  1.8878 -0.0520
17999TIP3    H275413   4.225   2.434  13.771  0.6337 -0.8638  0.1677
18000TIP3   OH275414   0.056   5.457  11.324 -0.4962  0.3266 -0.7529
18000TIP3    H175415   0.152   5.455  11.331 -0.5697 -0.1091  0.3004
18000TIP3    H275416   0.040   5.485  11.234  0.6209  0.5335 -0.9110
18001TIP3   OH275417   4.305   2.917   3.590  0.2195 -0.1387  0.1451
18001TIP3    H175418   4.367   2.863   3.541  1.3139 -1.3937  2.7311
18001TIP3    H275419   4.333   3.007   3.574  1.2823 -0.5777 -0.5384
18002TIP3   OH275420   5.754   0.588  15.569 -0.6002  1.1242 -0.0971
18002TIP3    H175421   5.763   0.682  15.580 -1.8602  1.0706  1.9292
18002TIP3    H275422   5.663   0.570  15.590 -0.0816 -0.6833  0.8495
18003TIP3   OH275423   0.841   0.431   1.157 -0.0294  0.1827  0.0946
18003TIP3    H175424   0.897   0.362   1.122  0.6003  0.5761  0.3140
18003TIP3    H275425   0.801   0.471   1.080 -0.2204 -0.2666 -0.0457
18004TIP3   OH275426   6.001   6.443   3.293 -0.4210  0.1312  0.1424
18004TIP3    H175427   6.065   6.406   3.232  1.0267  2.9512 -0.2181
18004TIP3    H275428   5.954   6.367   3.327  2.6921 -2.1004 -0.0424
18005TIP3   OH275429   0.263   5.332   5.114 -0.0719 -0.1837 -0.2247
18005TIP3    H175430   0.354   5.326   5.086  0.6876  1.6779  1.5589
18005TIP3    H275431   0.266   5.312   5.208 -1.4663  0.1789 -0.0797
18006TIP3   OH275432   6.361   1.887   0.250 -0.1250 -0.0550 -0.1421
18006TIP3    H175433   6.417   1.874   0.174  1.4647 -1.0486  1.1203
18006TIP3    H275434   6.388   1.972   0.284 -1.0667  0.5395 -0.8489
18007TIP3   OH275435   3.532   2.852  16.592  0.4434 -0.2827  0.7192
18007TIP3    H175436   3.569   2.770  16.559  0.4266 -0.3980  0.9877
18007TIP3    H275437   3.594   2.881  16.659  0.1033 -0.4160  1.0915
18008TIP3   OH275438   1.070   1.432   6.258 -0.4072  0.5605 -0.1920
18008TIP3    H175439   1.089   1.521   6.227 -0.7886 -0.0246 -2.2661
18008TIP3    H275440   1.032   1.388   6.182 -0.0430 -1.4477  0.7255
18009TIP3   OH275441   2.351   1.074   3.973 -0.0469 -0.2357 -0.1776
18009TIP3    H175442   2.376   1.131   4.045 -1.7862  0.4880 -0.1094
18009TIP3    H275443   2.405   0.996   3.984  1.0527  0.6407  0.7919
18010TIP3   OH275444   5.111   6.631   1.410 -0.5511  0.2447 -0.1007
18010TIP3    H175445   5.023   6.601   1.385 -1.2152  1.9241  0.0820
18010TIP3    H275446   5.132   6.581   1.489 -0.4190 -1.6953 -1.3081
18011TIP3   OH275447   2.713   0.737  11.396  0.0735 -0.2783 -0.4812
18011TIP3    H175448   2.647   0.739  11.465 -0.4952  1.9347 -1.0300
18011TIP3    H275449   2.698   0.653  11.352 -0.9702 -0.7576  0.7197
18012TIP3   OH275450   4.301   3.642   3.375 -0.2923  0.0577 -0.1307
18012TIP3    H175451   4.377   3.589   3.351 -2.6867 -4.1319  0.5405
18012TIP3    H275452   4.239   3.627   3.304 -0.6845  3.2792 -0.6010
18013TIP3   OH275453   5.156   3.787  14.277  0.2554  0.2535 -0.1842
18013TIP3    H175454   5.102   3.741  14.341 -0.8410  0.9566 -0.5693
18013TIP3    H275455   5.244   3.752  14.291 -0.1564 -0.4199  0.9374
18014TIP3   OH275456   4.280   4.658   2.276 -0.2612  0.2609 -0.4545
18014TIP3    H175457   4.226   4.593   2.230  1.5727 -1.6159 -0.0769
18014TIP3    H275458   4.284   4.627   2.366 -0.7406  1.8850  0.1696
18015TIP3   OH275459   6.757   3.881  13.052  0.1979 -0.1153 -0.8914
18015TIP3    H175460   6.694   3.871  13.122 -0.8505 -0.3926 -1.8463
18015TIP3    H275461   6.842   3.873  13.094 -0.3159  2.1054  0.7395
18016TIP3   OH275462   2.622   6.332   0.824  0.3991  0.1982  0.1164
18016TIP3    H175463   2.624   6.396   0.753 -0.9188  0.0871 -0.0404
18016TIP3    H275464   2.659   6.379   0.899  0.5830  0.7441 -0.3065
18017TIP3   OH275465   4.707   4.913   5.604 -0.3890 -0.3198 -0.2154
18017TIP3    H175466   4.749   4.850   5.662 -0.0460  0.3928  0.3244
18017TIP3    H275467   4.766   4.989   5.604  0.6132 -0.9824 -2.9763
18018TIP3   OH275468   1.597   1.576  13.435 -0.4411  0.1591 -0.1896
18018TIP3    H175469   1.557   1.661  13.452  1.4360  0.7901  1.4343
18018TIP3    H275470   1.648   1.589  13.355 -1.3939  0.0887 -0.8197
18019TIP3   OH275471   3.474   0.572   6.559 -0.6634 -0.3187 -0.0181
18019TIP3    H175472   3.452   0.552   6.468 -0.6207  0.3644 -0.1817
18019TIP3    H275473   3.549   0.515   6.578  0.2291  0.5321 -0.8574
18020TIP3   OH275474   0.909   4.705  11.706  0.6474 -0.1700 -0.0197
18020TIP3    H175475   0.918   4.614  11.736 -0.4470 -0.0297  0.7849
18020TIP3    H275476   0.923   4.758  11.784  1.5107  0.3758 -0.5310
18021TIP3   OH275477   3.128   1.217   1.348 -0.2494 -0.0999 -0.1603
18021TIP3    H175478   3.133   1.187   1.258  1.2162 -0.1337 -0.0986
18021TIP3    H275479   3.194   1.165   1.394  1.1915  1.9736  0.2895
18022TIP3   OH275480   4.416   3.671  13.897  0.2802  0.2332 -0.4492
18022TIP3    H175481   4.427   3.679  13.992  1.4108 -1.1170 -0.4409
18022TIP3    H275482   4.331   3.629  13.887  0.9966 -1.4273  0.0816
18023TIP3   OH275483   5.657   4.916  14.119 -0.4903 -0.4714  0.1500
18023TIP3    H175484   5.737   4.919  14.067 -0.3297  0.5565  0.4279
18023TIP3    H275485   5.611   4.838  14.089  1.0338 -1.5928  0.6000
18024TIP3   OH275486   3.400   0.623   5.595  0.2318  0.0060  0.3481
18024TIP3    H175487   3.463   0.692   5.615 -0.9632  0.6780  2.0591
18024TIP3    H275488   3.320   0.671   5.572 -0.9067 -0.7044  2.4989
18025TIP3   OH275489   0.899   2.765  14.895  0.3701 -0.7036  0.2210
18025TIP3    H175490   0.805   2.749  14.887  0.4613 -1.6006  0.7372
18025TIP3    H275491   0.910   2.858  14.876 -0.8571 -0.1780  1.8658
18026TIP3   OH275492   4.522   0.877  16.018  0.2955  0.2459  0.0562
18026TIP3    H175493   4.546   0.798  15.969 -0.4853  0.8901 -1.4078
18026TIP3    H275494   4.526   0.947  15.954 -2.8297  0.8141  0.3321
18027TIP3   OH275495   5.401   2.980   1.255  0.3818 -0.3338 -0.4345
18027TIP3    H175496   5.475   3.026   1.217 -0.4216  1.5371  0.1479
18027TIP3    H275497   5.441   2.909   1.306  1.6749 -0.1351 -1.1271
18028TIP3   OH275498   0.901   2.474  15.397 -0.7582  0.9651  0.7234
18028TIP3    H175499   0.919   2.387  15.434  0.1649  1.1438  0.7391
18028TIP3    H275500   0.907   2.462  15.303 -1.1891  0.9002  0.7037
18029TIP3   OH275501   2.244   4.384  15.734  0.1353 -0.3097 -0.5633
18029TIP3    H175502   2.213   4.406  15.822 -1.5191  0.1333 -1.2275
18029TIP3    H275503   2.204   4.299  15.714  0.8869 -0.6424 -0.7318
18030TIP3   OH275504   2.978   1.953   1.123  0.0447  0.0218  0.2446
18030TIP3    H175505   3.053   1.925   1.070  1.7581  0.7081  2.1285
18030TIP3    H275506   2.925   1.874   1.134  0.5468 -0.5178 -1.0436
18031TIP3   OH275507   0.245   6.431  13.684 -0.9418  0.5027 -0.0449
18031TIP3    H175508   0.297   6.486  13.625 -0.3735 -1.0338 -1.0360
18031TIP3    H275509   0.310   6.384  13.736 -1.4191  0.5074  0.5672
18032TIP3   OH275510   0.194   3.865  13.225 -0.1031 -0.4859 -0.8784
18032TIP3    H175511   0.233   3.952  13.215 -1.2978 -0.0913 -2.4023
18032TIP3    H275512   0.258   3.805  13.187  0.6825 -0.3021  0.0891
18033TIP3   OH275513   1.006   6.107  14.522  0.1745 -0.0225 -0.3659
18033TIP3    H175514   0.981   6.029  14.472  0.3652 -0.6840  0.5371
18033TIP3    H275515   1.001   6.079  14.613  1.5566  0.6322 -0.0704
18034TIP3   OH275516   6.245   6.621   5.014  0.1606 -0.0358 -0.1759
18034TIP3    H175517   6.300   6.546   4.991 -1.6715 -0.8844 -2.0453
18034TIP3    H275518   6.273   6.690   4.955 -0.7278 -0.4836 -1.1634
18035TIP3   OH275519   1.904   2.856  12.979 -0.4744  0.0054  0.3417
18035TIP3    H175520   1.955   2.882  12.902 -1.5493 -0.6488 -0.6190
18035TIP3    H275521   1.867   2.937  13.011 -1.5926  0.0677 -1.0116
18036TIP3   OH275522   5.873   4.599  16.013  0.7032  0.3320 -0.0900
18036TIP3    H175523   5.924   4.638  16.084 -0.6127 -0.2649  1.2483
18036TIP3    H275524   5.784   4.592  16.048 -0.5666  2.1132 -2.6231
18037TIP3   OH275525   5.011   5.743  11.060  0.1476  0.0363 -0.2189
18037TIP3    H175526   5.046   5.759  11.147  2.0555  2.2458 -1.2564
18037TIP3    H275527   4.971   5.827  11.035  0.5477 -0.2112 -1.8069
18038TIP3   OH275528   5.296   2.624  16.928 -0.3391 -0.4876 -0.2005
18038TIP3    H175529   5.376   2.574  16.917 -0.4784 -0.8902  0.5175
18038TIP3    H275530   5.267   2.644  16.839 -1.2167 -3.2062 -0.6197
18039TIP3   OH275531   3.083   4.280   3.468  0.1754 -0.4744  0.5739
18039TIP3    H175532   2.998   4.264   3.429  0.0123 -1.9620  1.4678
18039TIP3    H275533   3.139   4.304   3.395 -1.0833  0.9330  0.0292
18040TIP3   OH275534   5.653   1.344  12.797 -0.1740  0.5838 -0.8672
18040TIP3    H175535   5.613   1.286  12.862  0.8562 -0.4323 -1.1141
18040TIP3    H275536   5.586   1.354  12.729 -0.9275  0.9434 -0.1026
18041TIP3   OH275537   2.511   3.405   4.078  0.0355  0.2735 -0.7021
18041TIP3    H175538   2.602   3.433   4.085 -0.1946  0.7657  0.8008
18041TIP3    H275539   2.511   3.341   4.007  1.4311  0.7034 -1.1253
18042TIP3   OH275540   3.402   5.491   1.555  0.0562 -0.2028  0.1083
18042TIP3    H175541   3.378   5.541   1.633 -1.8178 -1.6564  0.5310
18042TIP3    H275542   3.467   5.546   1.511 -0.1820  1.4959  1.7270
18043TIP3   OH275543   5.591   1.247   5.200  0.1166 -0.0733  0.1929
18043TIP3    H175544   5.657   1.182   5.177  0.3253  0.3447 -0.4100
18043TIP3    H275545   5.569   1.290   5.117 -2.3389 -1.4948  0.0415
18044TIP3   OH275546   6.609   2.448   3.576 -0.3208 -0.1436  0.1389
18044TIP3    H175547   6.576   2.372   3.623 -1.6631 -0.3457 -1.0500
18044TIP3    H275548   6.641   2.507   3.644 -1.9627 -0.5190  1.2870
18045TIP3   OH275549   4.821   4.526   0.942  0.3793  0.2264 -0.6924
18045TIP3    H175550   4.810   4.618   0.919 -1.2377 -0.0039 -0.9486
18045TIP3    H275551   4.742   4.504   0.993  1.2698 -0.7237  0.3490
18046TIP3   OH275552   5.725   2.372   3.054  0.0197 -0.0863  0.2460
18046TIP3    H175553   5.762   2.357   2.967  1.8255  0.5954  0.8495
18046TIP3    H275554   5.630   2.375   3.040  0.2896  4.6677 -2.5309
18047TIP3   OH275555   6.738   4.568   2.967 -0.3185  0.1020 -0.3788
18047TIP3    H175556   6.649   4.585   2.937 -0.5666  1.2636  0.9027
18047TIP3    H275557   6.787   4.549   2.888 -1.2635  1.5079 -1.3420
18048TIP3   OH275558   4.845   0.163   1.144  0.3817 -0.3974 -0.0748
18048TIP3    H175559   4.931   0.128   1.121 -0.1030 -0.9495 -1.1362
18048TIP3    H275560   4.784   0.095   1.116 -0.4590  0.3926 -0.1960
18049TIP3   OH275561   4.031   4.432  15.796  0.0457  0.2089  0.2770
18049TIP3    H175562   4.031   4.501  15.863 -0.6261  0.1799  0.3087
18049TIP3    H275563   4.105   4.454  15.739  1.2615 -0.3123  1.5925
18050TIP3   OH275564   5.285   1.184  14.100  0.2726  0.1070 -0.5586
18050TIP3    H175565   5.315   1.231  14.022  0.0030 -0.1007 -0.7885
18050TIP3    H275566   5.264   1.096  14.069 -2.2805  0.7261 -0.7666
18051TIP3   OH275567   6.165   6.573   6.043  0.8104  0.3427  0.3398
18051TIP3    H175568   6.196   6.650   6.090 -0.5806  0.3036  1.3860
18051TIP3    H275569   6.099   6.607   5.982  1.4253  0.1805 -0.4319
18052TIP3   OH275570   1.816   2.418  15.243  0.3826 -0.4922 -0.1377
18052TIP3    H175571   1.744   2.461  15.288  1.4458  1.5208 -0.2597
18052TIP3    H275572   1.778   2.337  15.208 -1.4451 -0.1351  0.9341
18053TIP3   OH275573   2.743   4.575   5.709 -0.1476  0.7705 -0.3082
18053TIP3    H175574   2.699   4.552   5.790  0.8245  0.0015  0.0285
18053TIP3    H275575   2.684   4.636   5.665 -1.4870 -0.1584  0.1478
18054TIP3   OH275576   6.742   2.095   5.958  0.4907  0.3743 -0.1620
18054TIP3    H175577   6.781   2.071   6.043  2.8923  1.8248 -0.7560
18054TIP3    H275578   6.658   2.049   5.957  2.1227 -3.0057  1.2552
18055TIP3   OH275579   3.663   6.319   3.230 -0.4650  0.0874 -0.0189
18055TIP3    H175580   3.580   6.289   3.267 -0.7394  0.3673 -0.4035
18055TIP3    H275581   3.661   6.414   3.238 -0.2184  0.1015 -0.1087
18056TIP3   OH275582   2.743   5.019  17.046 -0.1212 -0.3234  0.0640
18056TIP3    H175583   2.774   4.982  16.963 -0.9360  0.3637 -0.5783
18056TIP3    H275584   2.676   4.958  17.075  0.6710 -0.9518  0.6114
18057TIP3   OH275585   4.236   4.580  12.046 -0.2711  0.1808 -0.1220
18057TIP3    H175586   4.256   4.605  12.136 -0.1469 -0.0608 -0.0849
18057TIP3    H275587   4.258   4.487  12.040 -0.1504  0.2278 -0.4404
18058TIP3   OH275588   1.604   3.318   3.768 -0.0988 -0.5603 -0.2535
18058TIP3    H175589   1.654   3.239   3.784  0.4556 -0.0899  0.3843
18058TIP3    H275590   1.622   3.340   3.677  1.8590  0.2743  0.2828
18059TIP3   OH275591   2.750   2.442   5.855  0.2637  0.1812 -1.0300
18059TIP3    H175592   2.835   2.482   5.837  0.2683  0.3947 -0.5460
18059TIP3    H275593   2.760   2.350   5.829  0.4025  0.3801 -1.6903
18060TIP3   OH275594   3.028   5.260  12.564  0.2718  0.1349  0.2125
18060TIP3    H175595   2.997   5.346  12.591  1.2176  0.8657 -0.9482
18060TIP3    H275596   3.029   5.263  12.468  0.4903 -1.0972  0.1568
18061TIP3   OH275597   6.402   5.884  11.205  1.0413  0.2087 -0.0841
18061TIP3    H175598   6.389   5.860  11.297  1.1884  0.3024 -0.0396
18061TIP3    H275599   6.314   5.903  11.173  1.0236  0.4651  0.1164
18062TIP3   OH275600   3.113   1.087   1.091  0.9489  0.0933  0.0374
18062TIP3    H175601   3.084   1.003   1.127  1.0906  0.8066  1.9155
18062TIP3    H275602   3.190   1.065   1.039  1.9309 -0.8103  1.7667
18063TIP3   OH275603   0.338   5.790   1.036 -0.1461 -0.0040 -0.2390
18063TIP3    H175604   0.383   5.711   1.067 -1.9596 -1.2410 -0.5810
18063TIP3    H275605   0.263   5.799   1.095  0.4413  1.9461  0.2683
18064TIP3   OH275606   3.116   0.253  14.972  0.0841  0.2911 -0.6252
18064TIP3    H175607   3.083   0.201  15.045  0.5885  0.4208 -0.2980
18064TIP3    H275608   3.188   0.304  15.010 -0.8672  1.7882 -0.7409
18065TIP3   OH275609   5.115   4.039  17.097  0.7033 -0.3378 -0.0401
18065TIP3    H175610   5.045   4.066  17.157  0.5894  1.7364 -0.9943
18065TIP3    H275611   5.119   4.110  17.033  0.5843 -2.6224 -2.7165
18066TIP3   OH275612   2.679   3.798   4.608  0.3477  0.2677  0.1087
18066TIP3    H175613   2.608   3.853   4.641  0.1534  0.8138 -1.1813
18066TIP3    H275614   2.693   3.827   4.518  1.2299 -0.8175 -0.1317
18067TIP3   OH275615   2.419   2.159   0.588  0.1853  0.0174  0.3734
18067TIP3    H175616   2.383   2.246   0.568 -0.8556 -0.7409 -1.2990
18067TIP3    H275617   2.446   2.164   0.679  1.1778  2.4425  0.0221
18068TIP3   OH275618   4.493   5.264  12.404  0.4503  0.0390  0.8035
18068TIP3    H175619   4.434   5.320  12.455  1.0960  2.2002 -0.6535
18068TIP3    H275620   4.484   5.296  12.314  1.3900 -1.7897  0.0097
18069TIP3   OH275621   6.374   2.833  15.993 -0.7635  0.1084 -0.2848
18069TIP3    H175622   6.422   2.811  15.913 -1.8417  2.7746 -1.7534
18069TIP3    H275623   6.434   2.889  16.042 -0.1177 -1.4903  0.8674
18070TIP3   OH275624   1.489   4.267   5.953 -0.0146 -0.2516  0.0681
18070TIP3    H175625   1.480   4.172   5.963 -1.2964 -0.3388 -1.5362
18070TIP3    H275626   1.549   4.292   6.023  0.9313 -2.3350  0.1068
18071TIP3   OH275627   4.430   4.344  16.094 -0.3741 -0.0835 -0.3353
18071TIP3    H175628   4.400   4.253  16.096 -2.8195  0.6412 -0.4950
18071TIP3    H275629   4.449   4.365  16.185 -0.5792 -0.5267 -0.1882
18072TIP3   OH275630   0.015   6.232   1.647 -0.2793 -0.0558  0.1886
18072TIP3    H175631   0.022   6.176   1.725 -2.1603  0.0618  0.4729
18072TIP3    H275632   0.093   6.287   1.651  0.5651 -1.2516  1.0130
18073TIP3   OH275633   2.109   4.112   2.199 -0.6005 -0.6803 -0.1763
18073TIP3    H175634   2.163   4.167   2.255  1.4240 -0.7983 -1.8759
18073TIP3    H275635   2.136   4.133   2.110 -1.5983 -2.5637 -1.0049
18074TIP3   OH275636   0.194   0.428  16.304  0.3541  0.7226  0.0006
18074TIP3    H175637   0.241   0.349  16.280 -1.2285  0.0013 -0.8646
18074TIP3    H275638   0.158   0.461  16.221 -1.8444  0.4188  0.7647
18075TIP3   OH275639   1.215   0.912   2.229  0.4594 -0.2790 -0.0162
18075TIP3    H175640   1.245   0.959   2.152  1.0570  0.1965  0.4918
18075TIP3    H275641   1.156   0.973   2.273 -0.9521 -1.0359 -0.7680
18076TIP3   OH275642   5.675   0.196  11.867  1.0951  0.0172 -0.0919
18076TIP3    H175643   5.692   0.290  11.877 -1.0456  0.3429  1.0104
18076TIP3    H275644   5.619   0.189  11.790 -1.8555  0.1523  1.8993
18077TIP3   OH275645   6.705   4.343   3.211  0.0947  0.2847  0.4741
18077TIP3    H175646   6.726   4.252   3.189 -0.4157  0.3853 -0.4979
18077TIP3    H275647   6.714   4.390   3.128 -0.4576  0.9710  0.7956
18078TIP3   OH275648   4.138   0.793  15.417  0.1452 -0.4358  0.0472
18078TIP3    H175649   4.197   0.767  15.346  0.2108  0.0535 -0.0791
18078TIP3    H275650   4.050   0.782  15.381  0.1255  2.7565 -1.2700
18079TIP3   OH275651   3.375   4.162   5.430 -0.0775  0.5343  0.1021
18079TIP3    H175652   3.343   4.088   5.379 -0.5372  0.4964  0.4451
18079TIP3    H275653   3.353   4.239   5.378  0.7704  0.4172 -0.4539
18080TIP3   OH275654   0.934   5.505  14.583 -0.1185  0.2445  0.7197
18080TIP3    H175655   0.848   5.541  14.604  0.3025  0.7343  1.6405
18080TIP3    H275656   0.965   5.467  14.665  1.0562  1.1259  0.7056
18081TIP3   OH275657   3.706   0.902   2.925  0.1018  0.3808 -0.6838
18081TIP3    H175658   3.729   0.915   3.017 -0.4650 -1.2098 -0.2846
18081TIP3    H275659   3.777   0.945   2.877 -0.3622  2.5835  0.4409
18082TIP3   OH275660   6.666   0.020   2.379 -0.1152  0.2157  0.3773
18082TIP3    H175661   6.757   0.034   2.354 -0.5849  0.5232 -1.2561
18082TIP3    H275662   6.626  -0.023   2.304 -1.5183  0.8811  0.6994
18083TIP3   OH275663   4.472   6.115  11.566  0.0680  1.0280 -0.0485
18083TIP3    H175664   4.502   6.094  11.477 -0.2596  0.9025 -0.1319
18083TIP3    H275665   4.552   6.119  11.618  0.1899  0.1695 -0.1609
18084TIP3   OH275666   1.451   5.191   3.043  0.0522  0.2226 -0.0172
18084TIP3    H175667   1.414   5.273   3.010 -0.1430  0.1667  0.0603
18084TIP3    H275668   1.481   5.145   2.965  2.7648  1.5851  0.0769
18085TIP3   OH275669   6.735   2.111   4.217 -0.1954  0.3333 -0.3442
18085TIP3    H175670   6.664   2.081   4.160 -1.7753 -0.2640  1.8214
18085TIP3    H275671   6.735   2.049   4.290  1.0154  1.6964  0.8823
18086TIP3   OH275672   3.139   0.648  13.201  0.3095  0.0564 -0.5233
18086TIP3    H175673   3.120   0.617  13.289 -0.6955  0.6161 -0.5242
18086TIP3    H275674   3.127   0.571  13.145 -0.2491 -0.0220 -0.3043
18087TIP3   OH275675   3.105   1.682   5.595  0.1310  0.2232 -0.1569
18087TIP3    H175676   3.083   1.760   5.543  1.5258  0.5768 -0.2604
18087TIP3    H275677   3.179   1.642   5.549 -0.4755 -1.0900 -0.0188
18088TIP3   OH275678   3.632   1.625  13.591 -0.1009 -0.0988 -0.2641
18088TIP3    H175679   3.642   1.674  13.509 -0.3341  0.1920 -0.1237
18088TIP3    H275680   3.547   1.654  13.625  0.6029  0.8382  0.7718
18089TIP3   OH275681   2.601   5.445   3.637  0.3916 -0.2165  0.4612
18089TIP3    H175682   2.584   5.539   3.629 -0.8869 -0.4883 -0.2559
18089TIP3    H275683   2.525   5.403   3.596 -0.3319 -1.5967  2.9447
18090TIP3   OH275684   4.689   6.234  11.733 -0.4145  0.0780  0.2963
18090TIP3    H175685   4.686   6.273  11.646 -0.2321  0.1648  0.3279
18090TIP3    H275686   4.779   6.203  11.742 -0.4328  0.0710  0.4545
18091TIP3   OH275687   2.386   6.227  11.569 -0.4339  0.8008 -0.0063
18091TIP3    H175688   2.466   6.205  11.616 -0.5355  1.8002  0.6461
18091TIP3    H275689   2.353   6.142  11.538  1.1264  0.4173 -0.7299
18092TIP3   OH275690   6.699   3.304   5.226 -0.5136 -0.3244 -0.4324
18092TIP3    H175691   6.642   3.301   5.303 -0.9841  3.2450 -0.4723
18092TIP3    H275692   6.657   3.246   5.163 -1.6374 -1.2019  1.0699
18093TIP3   OH275693   0.556   0.186   5.430  0.6399  0.2901 -0.1940
18093TIP3    H175694   0.586   0.273   5.403  0.9491 -0.2501 -1.7028
18093TIP3    H275695   0.575   0.130   5.354  0.0308 -1.0002  0.5795
18094TIP3   OH275696   3.607   3.124  12.847 -0.0497 -0.1148 -1.0112
18094TIP3    H175697   3.516   3.147  12.867  0.5247  2.0327 -0.5659
18094TIP3    H275698   3.603   3.033  12.819 -2.0480 -0.7195  0.9545
18095TIP3   OH275699   1.609   5.231  12.860 -0.1773  0.1637  0.1047
18095TIP3    H175700   1.522   5.195  12.876 -0.5539  1.6712  1.7998
18095TIP3    H275701   1.616   5.235  12.764 -1.2951 -1.4639 -0.0841
18096TIP3   OH275702   5.757   4.311  16.239 -0.1502  0.4049 -0.3063
18096TIP3    H175703   5.743   4.216  16.248 -0.1717  0.4768  0.4800
18096TIP3    H275704   5.850   4.321  16.223 -0.0386  0.2830  0.2410
18097TIP3   OH275705   3.769   2.138  14.808  0.2914 -0.1192 -0.1493
18097TIP3    H175706   3.795   2.224  14.841  1.3232 -0.1162 -0.9372
18097TIP3    H275707   3.769   2.082  14.886 -1.7787  0.8500  0.6425
18098TIP3   OH275708   0.530   2.819   3.531  0.0400 -0.0527 -0.2893
18098TIP3    H175709   0.566   2.731   3.522  2.7887  0.9633 -0.1818
18098TIP3    H275710   0.468   2.812   3.604  1.9504 -1.4321  1.3003
18099TIP3   OH275711   0.054   4.914   1.558  0.5753 -0.1079  0.3231
18099TIP3    H175712  -0.032   4.936   1.593  0.9610 -1.5470  2.4381
18099TIP3    H275713   0.096   4.864   1.629  2.1236 -1.7653 -1.6377
18100TIP3   OH275714   0.147   5.944  13.296  0.6611 -0.2635  0.4015
18100TIP3    H175715   0.226   5.982  13.258 -0.4169  2.2314  0.4742
18100TIP3    H275716   0.144   5.980  13.385 -1.9988  2.1228 -0.5264
18101TIP3   OH275717   3.923   1.799   1.335  0.0185  0.1794 -0.5393
18101TIP3    H175718   3.883   1.818   1.250  3.9441 -0.8604 -2.9321
18101TIP3    H275719   3.933   1.884   1.377 -2.4577  0.6621 -0.8213
18102TIP3   OH275720   6.034   5.420   2.846  0.3112 -0.2957 -0.7701
18102TIP3    H175721   6.005   5.370   2.922 -0.7657  0.1951 -0.8341
18102TIP3    H275722   5.985   5.383   2.773 -0.2092  0.5611 -0.8784
18103TIP3   OH275723   3.252   4.807  12.987 -0.0041  0.0998 -0.0460
18103TIP3    H175724   3.307   4.878  12.955  0.4667  0.5777  1.7070
18103TIP3    H275725   3.177   4.806  12.927 -0.6417  2.9017  0.5604
18104TIP3   OH275726   5.901   5.940   2.501  0.2602 -0.5557  0.4849
18104TIP3    H175727   5.854   5.863   2.469 -0.3127  0.4375 -1.1856
18104TIP3    H275728   5.909   5.925   2.595 -2.0467 -1.4838  0.6004
18105TIP3   OH275729   6.285   3.576   0.759 -0.3581 -1.2796 -0.1639
18105TIP3    H175730   6.298   3.670   0.751 -1.1498 -1.1107  0.4080
18105TIP3    H275731   6.332   3.552   0.839  0.5230 -1.5143 -0.7465
18106TIP3   OH275732   2.463   2.699   1.696 -0.0273 -0.4246  0.0769
18106TIP3    H175733   2.427   2.761   1.760  1.6129  1.2808 -0.5339
18106TIP3    H275734   2.416   2.720   1.615  0.0838 -0.4142  0.0155
18107TIP3   OH275735   6.641   6.771  17.045  0.2869  0.9033  0.0394
18107TIP3    H175736   6.602   6.686  17.024 -0.0762  1.4408 -1.5510
18107TIP3    H275737   6.568   6.827  17.069  0.4731  0.9277  0.5679
18108TIP3   OH275738   3.304   6.624  14.299 -0.5251 -0.2398 -0.2905
18108TIP3    H175739   3.226   6.587  14.257 -0.3250 -2.5705  1.1980
18108TIP3    H275740   3.274   6.654  14.385  0.1152 -0.7627  0.1273
18109TIP3   OH275741   6.483   4.398   1.760  0.0847 -0.3165  0.3364
18109TIP3    H175742   6.445   4.480   1.791  2.0004  0.2163  1.4120
18109TIP3    H275743   6.456   4.333   1.825  0.4055 -0.0795  0.7109
18110TIP3   OH275744   6.606   5.689  15.705 -0.2223  0.8383 -0.3939
18110TIP3    H175745   6.595   5.784  15.701  1.9100  1.1205 -1.0713
18110TIP3    H275746   6.640   5.665  15.619 -3.5302 -1.0525 -1.3353
18111TIP3   OH275747   2.039   4.858   2.965 -0.1533 -0.2682  0.5552
18111TIP3    H175748   1.966   4.799   2.947  0.0319 -0.7478  1.3174
18111TIP3    H275749   2.014   4.902   3.047 -0.3477  0.8140 -0.0653
18112TIP3   OH275750   5.128   1.296  14.403 -0.8094 -0.5432  0.2015
18112TIP3    H175751   5.125   1.273  14.310 -1.0565  1.0851 -0.2112
18112TIP3    H275752   5.037   1.291  14.433 -0.8088 -0.4938  0.2116
18113TIP3   OH275753   4.334   0.087   1.615  0.1684  0.5148 -0.0532
18113TIP3    H175754   4.330   0.127   1.528 -0.5847  0.2391 -0.1502
18113TIP3    H275755   4.283   0.007   1.608  1.1481 -0.1611  0.3165
18114TIP3   OH275756   5.480   2.735   1.390 -0.0624  0.3988  0.0539
18114TIP3    H175757   5.569   2.713   1.364  1.3352  1.5142  3.3533
18114TIP3    H275758   5.442   2.653   1.420  0.6502  0.2589  0.6042
18115TIP3   OH275759   0.890   6.361  12.983 -0.4068 -0.4202 -0.5958
18115TIP3    H175760   0.866   6.305  13.057 -1.8348 -1.3270 -1.6715
18115TIP3    H275761   0.963   6.316  12.941 -2.4560 -2.4064 -2.3062
18116TIP3   OH275762   1.991   2.421  16.664  0.0606 -0.0347  0.6700
18116TIP3    H175763   1.914   2.476  16.649 -0.0057  0.1955  1.7350
18116TIP3    H275764   1.977   2.344  16.609 -1.0449 -0.0991  1.0106
18117TIP3   OH275765   4.766   0.624  17.291 -0.4285  0.0547  0.5465
18117TIP3    H175766   4.759   0.718  17.306 -0.3984 -0.0239  1.0664
18117TIP3    H275767   4.676   0.592  17.301 -0.3302 -0.0676  1.0491
18118TIP3   OH275768   3.317   3.650  13.435 -0.3551 -0.2585 -0.2356
18118TIP3    H175769   3.349   3.739  13.422 -2.6674  0.6453 -0.2021
18118TIP3    H275770   3.280   3.650  13.523  0.4231 -1.5448  0.1138
18119TIP3   OH275771   6.182   6.073  15.400  0.8269 -0.4575  0.1517
18119TIP3    H175772   6.228   6.000  15.440  2.0572  0.8802  1.3098
18119TIP3    H275773   6.229   6.151  15.430  0.0830  0.7840 -1.7038
18120TIP3   OH275774   3.384   3.459  10.973  0.1857 -0.1393  0.5230
18120TIP3    H175775   3.303   3.438  11.021 -0.5055 -0.7984 -0.8921
18120TIP3    H275776   3.418   3.374  10.944  2.3401 -0.0602  2.4958
18121TIP3   OH275777   6.331   5.045  13.104  0.2122 -0.1621  0.6381
18121TIP3    H175778   6.359   5.049  13.012 -1.2368 -0.1462  0.1783
18121TIP3    H275779   6.384   4.975  13.142  1.6147  0.5472  0.0908
18122TIP3   OH275780   2.526   5.051   1.019  0.3448 -0.2110  0.3321
18122TIP3    H175781   2.443   5.081   1.055  0.0543 -1.7956  1.0770
18122TIP3    H275782   2.525   5.079   0.928 -0.9223 -0.0758  0.3784
18123TIP3   OH275783   0.051   6.143   3.065 -0.1104 -0.5842  0.5979
18123TIP3    H175784   0.016   6.055   3.071 -0.6910 -0.3534  0.7173
18123TIP3    H275785   0.004   6.192   3.133  0.7361 -0.3574  1.0299
18124TIP3   OH275786   1.400   1.378  13.007  0.1077 -0.1786 -0.0193
18124TIP3    H175787   1.474   1.323  13.032  0.6788  1.3162  1.8803
18124TIP3    H275788   1.363   1.335  12.930  0.2138 -3.4276  1.5847
18125TIP3   OH275789   0.976   5.668   2.982  1.1358 -0.0356  0.1851
18125TIP3    H175790   1.001   5.595   3.039  1.8980  0.3467  0.3623
18125TIP3    H275791   0.956   5.627   2.898  2.3385 -0.3868  0.0514
18126TIP3   OH275792   3.575   5.112  16.682  0.6233 -0.3607  0.3347
18126TIP3    H175793   3.610   5.165  16.753 -0.2555  2.2287 -1.0501
18126TIP3    H275794   3.597   5.160  16.602 -0.9394 -1.6508 -0.9416
18127TIP3   OH275795   4.387   5.322   1.738  0.0685 -0.1470 -0.0220
18127TIP3    H175796   4.428   5.245   1.777 -1.2557 -0.3669  0.9937
18127TIP3    H275797   4.412   5.394   1.796  0.1815 -0.0268 -0.2156
18128TIP3   OH275798   4.175   0.753  12.077  0.6885 -0.1851 -0.1033
18128TIP3    H175799   4.218   0.695  12.141  0.9455 -0.5122 -0.5674
18128TIP3    H275800   4.097   0.784  12.123  0.9979 -0.2175  0.4627
18129TIP3   OH275801   1.903   5.421  14.196  0.3250  0.5624  0.0429
18129TIP3    H175802   1.879   5.329  14.184  2.1513 -0.0047  0.3134
18129TIP3    H275803   1.824   5.470  14.173 -0.7630 -1.0702  0.0983
18130TIP3   OH275804   5.552   5.400  16.254  0.4779  0.4011  0.0893
18130TIP3    H175805   5.567   5.310  16.223  0.8944  0.5316 -0.0863
18130TIP3    H275806   5.516   5.445  16.178 -2.5829 -0.3403  0.9459
18131TIP3   OH275807   0.858   3.761  11.524 -0.1228  0.2083 -0.0934
18131TIP3    H175808   0.850   3.833  11.587 -0.8247  0.0009  0.0709
18131TIP3    H275809   0.939   3.779  11.478 -0.2238  1.0500  0.0260
18132TIP3   OH275810   1.094   5.802  16.826 -0.2378 -0.4470  0.2676
18132TIP3    H175811   1.110   5.711  16.800 -0.6094 -0.2104 -0.8176
18132TIP3    H275812   1.066   5.846  16.746  0.3792  0.7410  0.6848
18133TIP3   OH275813   2.909   2.340  13.867  0.2062 -0.3535  0.8011
18133TIP3    H175814   2.871   2.416  13.910  0.4166  0.9035 -1.0984
18133TIP3    H275815   2.852   2.268  13.891 -1.2479  0.8065  0.9867
18134TIP3   OH275816   4.045   6.327   4.167 -0.1755 -0.1404  0.7989
18134TIP3    H175817   3.991   6.404   4.154 -3.1370 -2.1368  0.3678
18134TIP3    H275818   4.001   6.279   4.238  1.0050 -1.9040  0.3943
18135TIP3   OH275819   5.853   6.449   5.352  0.7585 -0.3032  0.2420
18135TIP3    H175820   5.819   6.535   5.330  0.6063 -0.0109  1.5030
18135TIP3    H275821   5.822   6.392   5.282  2.2627  0.9300 -1.5329
18136TIP3   OH275822   3.493   3.562  13.892 -0.3038 -1.0413  0.4444
18136TIP3    H175823   3.520   3.559  13.984  0.0479  0.7145  0.4357
18136TIP3    H275824   3.557   3.508  13.846 -0.6873 -2.2259  1.2523
18137TIP3   OH275825   3.672   6.112   1.522  0.2398 -0.0011  0.2878
18137TIP3    H175826   3.628   6.097   1.438 -1.4147  0.7457  0.9961
18137TIP3    H275827   3.602   6.137   1.582  1.5429  0.4971  1.6475
18138TIP3   OH275828   4.470   0.285   0.239  0.2453 -0.2451  0.0005
18138TIP3    H175829   4.495   0.237   0.318 -1.1294 -1.5988 -0.3272
18138TIP3    H275830   4.443   0.217   0.177 -0.3937  0.8751 -1.0019
18139TIP3   OH275831   4.361   6.224   3.710  0.0251  0.6011 -1.0514
18139TIP3    H175832   4.438   6.173   3.682  0.2535  0.1393  0.3216
18139TIP3    H275833   4.320   6.170   3.778 -0.3128  1.7870 -0.2800
18140TIP3   OH275834   3.807   3.188   2.529 -0.3619 -0.4774  0.1125
18140TIP3    H175835   3.896   3.154   2.524 -0.3947 -0.8032  1.4811
18140TIP3    H275836   3.751   3.111   2.522 -0.5166 -0.3768  0.2324
18141TIP3   OH275837   4.574   5.836  12.084  0.4990 -0.1557  0.0719
18141TIP3    H175838   4.634   5.784  12.138 -0.0299 -0.3768  0.4529
18141TIP3    H275839   4.611   5.831  11.996  0.3681 -1.3105  0.0751
18142TIP3   OH275840   5.440   5.637   1.450  0.0479  0.6478  0.2108
18142TIP3    H175841   5.387   5.658   1.373 -0.2143 -1.1250 -0.1333
18142TIP3    H275842   5.383   5.584   1.505  0.9452  0.0454  0.5862
18143TIP3   OH275843   2.112   2.817   4.325  0.2440 -0.2647  0.0687
18143TIP3    H175844   2.041   2.876   4.299  0.5552  0.5287  0.9585
18143TIP3    H275845   2.068   2.735   4.348 -0.4487  0.3293  0.9642
18144TIP3   OH275846   4.948   4.740  13.147  0.3627  0.1748  0.1418
18144TIP3    H175847   4.933   4.647  13.159 -2.4699  0.5815  0.4090
18144TIP3    H275848   4.996   4.746  13.064  1.7399 -1.5173  0.7461
18145TIP3   OH275849   2.242   4.204  13.748  0.2887 -0.0848 -0.3226
18145TIP3    H175850   2.254   4.233  13.657 -1.0020  0.9994 -0.1677
18145TIP3    H275851   2.156   4.237  13.773  0.0897 -1.4342  0.9138
18146TIP3   OH275852   6.472   6.476   3.636 -0.0719  0.4590  0.4635
18146TIP3    H175853   6.408   6.535   3.676 -1.8107 -0.1601 -1.2506
18146TIP3    H275854   6.429   6.443   3.557  1.3338 -2.0886  0.6437
18147TIP3   OH275855   5.143   1.908  14.691  0.1403 -0.0874 -0.3017
18147TIP3    H175856   5.203   1.923  14.617  0.4352 -0.2007 -0.0873
18147TIP3    H275857   5.132   1.813  14.695  1.1002 -0.1783  0.5582
18148TIP3   OH275858   0.062   0.820  16.084  0.2898 -0.2682  0.0023
18148TIP3    H175859   0.102   0.739  16.053 -1.4674 -0.5468 -1.7408
18148TIP3    H275860  -0.032   0.805  16.075 -0.0804  1.9835 -0.4475
18149TIP3   OH275861   4.949   4.196  10.697  0.2145 -0.5097 -0.4063
18149TIP3    H175862   4.911   4.205  10.784  0.6163  1.3612 -0.3741
18149TIP3    H275863   5.021   4.134  10.708 -0.4439 -1.1681  0.3267
18150TIP3   OH275864   2.791   2.106   1.289  0.2128 -0.1440 -0.1353
18150TIP3    H175865   2.855   2.039   1.265 -0.4731 -0.5873 -0.7584
18150TIP3    H275866   2.723   2.059   1.336  0.1037  0.2448  0.0983
18151TIP3   OH275867   4.379   0.959  14.631 -0.0995  0.2108  0.0876
18151TIP3    H175868   4.318   0.997  14.568 -1.0311 -0.6531  0.4386
18151TIP3    H275869   4.464   0.996  14.607 -0.8487  2.0071  0.0332
18152TIP3   OH275870   4.426   4.006   5.680  0.0359  0.1619 -0.2749
18152TIP3    H175871   4.333   3.990   5.691  0.1595 -0.3777 -0.0042
18152TIP3    H275872   4.469   3.941   5.736  0.5686  0.5405 -0.2359
18153TIP3   OH275873   1.386   1.726   2.908  0.4315 -0.5777  0.2241
18153TIP3    H175874   1.455   1.677   2.863  0.4912 -0.0020 -0.3318
18153TIP3    H275875   1.432   1.782   2.969  0.4906  0.0121 -0.3460
18154TIP3   OH275876   4.896   4.941  16.168  0.5714  0.0664 -0.2283
18154TIP3    H175877   4.843   5.015  16.199  2.5780  1.4089  0.2169
18154TIP3    H275878   4.924   4.966  16.081 -0.9416 -1.4710 -1.2264
18155TIP3   OH275879   1.229   2.878  12.214 -0.2981 -0.3810 -0.4381
18155TIP3    H175880   1.194   2.908  12.130 -2.3917 -0.0859  0.4615
18155TIP3    H275881   1.259   2.958  12.257  2.6102 -0.7402 -1.6040
18156TIP3   OH275882   4.715   0.128  16.214 -0.5793  0.1185  0.0639
18156TIP3    H175883   4.670   0.182  16.148 -1.0938  0.0132  0.3206
18156TIP3    H275884   4.648   0.110  16.280 -0.3005 -0.4842  0.1927
18157TIP3   OH275885   3.217   5.597   4.098 -0.0435 -0.0262  0.0863
18157TIP3    H175886   3.216   5.537   4.172 -0.5972  0.1443  0.2230
18157TIP3    H275887   3.262   5.549   4.029 -0.2339 -0.4952  0.2812
18158TIP3   OH275888   3.203   2.550  14.576 -0.3027  0.1477  0.3467
18158TIP3    H175889   3.296   2.553  14.599 -0.5588  0.2241  1.4590
18158TIP3    H275890   3.159   2.589  14.652 -1.2583 -0.1336 -0.0536
18159TIP3   OH275891   5.871   4.817   3.535  0.4643 -0.2578 -0.5310
18159TIP3    H175892   5.805   4.770   3.484 -1.2796  1.1804  0.2603
18159TIP3    H275893   5.930   4.854   3.470 -0.0190 -0.8540 -1.3277
18160TIP3   OH275894   0.577   4.718   5.038 -0.2297 -0.5680  0.6242
18160TIP3    H175895   0.494   4.704   4.992 -0.2680 -0.8754  0.7807
18160TIP3    H275896   0.588   4.639   5.091  1.7733 -2.1353 -1.8542
18161TIP3   OH275897   1.153   6.320   4.171  0.0070  0.7041 -0.0558
18161TIP3    H175898   1.102   6.367   4.237 -1.1119  0.6571 -0.8536
18161TIP3    H275899   1.088   6.282   4.113  0.9530  0.3170 -0.8991
18162TIP3   OH275900   3.716   1.637  11.568  0.4401 -0.3536  0.1022
18162TIP3    H175901   3.633   1.623  11.522  0.4156  0.1043 -0.0028
18162TIP3    H275902   3.694   1.625  11.661  0.4730 -1.1977  0.0059
18163TIP3   OH275903   6.743   1.577   2.163 -0.0675  0.4491  0.0886
18163TIP3    H175904   6.815   1.612   2.215  0.3174  0.2951 -0.3316
18163TIP3    H275905   6.773   1.491   2.134  0.0122  0.8170 -0.9598
18164TIP3   OH275906   3.693   5.542  12.205 -0.3241 -0.2613 -0.3689
18164TIP3    H175907   3.719   5.634  12.209 -0.7727 -0.0752 -1.3137
18164TIP3    H275908   3.734   5.508  12.125 -3.6194  0.3358 -2.5536
18165TIP3   OH275909   1.204   4.522   5.107 -0.3102  0.3927 -0.1605
18165TIP3    H175910   1.167   4.570   5.033 -0.1203 -1.6463 -1.6656
18165TIP3    H275911   1.147   4.546   5.181 -1.5590  1.1957 -1.3237
18166TIP3   OH275912   2.405   3.262  13.083  0.9109 -0.3482 -0.6472
18166TIP3    H175913   2.385   3.237  12.993 -0.5592  0.4155 -0.5584
18166TIP3    H275914   2.376   3.187  13.135  3.4873 -1.6122 -0.8848
18167TIP3   OH275915   5.207   3.046  12.384 -0.3967  0.0621 -0.1385
18167TIP3    H175916   5.302   3.045  12.371 -0.1252  2.8404  0.9426
18167TIP3    H275917   5.172   3.071  12.298 -0.0262  0.4750 -0.1738
18168TIP3   OH275918   0.814   6.556  14.631  0.4507 -0.5256  0.2928
18168TIP3    H175919   0.860   6.610  14.696  2.0459 -0.8244 -0.5547
18168TIP3    H275920   0.832   6.466  14.658  0.9534 -0.6502 -0.4367
18169TIP3   OH275921   5.388   2.665   5.528 -0.1475  0.7102 -0.6265
18169TIP3    H175922   5.445   2.678   5.604 -0.1662 -0.7376 -0.3202
18169TIP3    H275923   5.309   2.625   5.564  0.4098 -1.3486 -1.5377
18170TIP3   OH275924   6.029   5.885  17.188 -0.0969  0.5394  0.5008
18170TIP3    H175925   6.108   5.835  17.210  0.1348  0.9812  0.6814
18170TIP3    H275926   5.957   5.823  17.202  0.3831 -1.3206 -3.6194
18171TIP3   OH275927   0.680   6.662  14.133 -0.7815  0.2979 -0.2126
18171TIP3    H175928   0.597   6.680  14.179 -0.2661  0.5817  0.6347
18171TIP3    H275929   0.738   6.629  14.202 -0.5503 -1.0790 -1.0315
18172TIP3   OH275930   3.903   1.183  15.962  0.2478 -0.4881  0.3135
18172TIP3    H175931   3.949   1.112  15.917  1.3923  0.5053 -0.1130
18172TIP3    H275932   3.849   1.224  15.894  1.0283  0.2283  0.1165
18173TIP3   OH275933   1.306   4.625  16.880 -0.5660  0.1067 -0.4391
18173TIP3    H175934   1.274   4.610  16.969  0.2912 -0.0054 -0.1393
18173TIP3    H275935   1.400   4.642  16.890 -0.5522  0.6153 -1.2749
18174TIP3   OH275936   2.719   4.793  16.463  0.2749  0.1600  0.6084
18174TIP3    H175937   2.675   4.877  16.475 -1.8574 -0.9660  1.1046
18174TIP3    H275938   2.698   4.767  16.373  3.5091  1.4808 -0.7097
18175TIP3   OH275939   3.686   4.037   1.563  0.1180  0.2365 -0.6027
18175TIP3    H175940   3.704   3.996   1.648 -0.8851  1.4889  0.2445
18175TIP3    H275941   3.745   3.992   1.502  1.5691 -0.0094  0.9175
18176TIP3   OH275942   0.037   6.371   6.048  0.5178 -0.2717 -0.0206
18176TIP3    H175943   0.105   6.304   6.062  1.0514  0.3966  0.7148
18176TIP3    H275944   0.060   6.440   6.110  0.3340  0.8721 -1.1926
18177TIP3   OH275945   0.379   3.399  14.875 -0.6651 -0.1069 -0.1889
18177TIP3    H175946   0.409   3.332  14.813  0.5327 -0.0984  0.3478
18177TIP3    H275947   0.424   3.479  14.847  0.9015 -0.3766  1.4132
18178TIP3   OH275948   6.530   5.613   5.229  0.9249 -0.2736  0.2211
18178TIP3    H175949   6.576   5.692   5.255  0.3535 -0.6953  2.6971
18178TIP3    H275950   6.527   5.559   5.308  1.5549 -2.9257 -1.4393
18179TIP3   OH275951   4.130   4.332  11.778 -0.2755  0.0732  0.2201
18179TIP3    H175952   4.222   4.353  11.762 -0.2088 -0.8912 -0.7860
18179TIP3    H275953   4.129   4.297  11.867  0.8630 -2.6301 -0.7211
18180TIP3   OH275954   4.484   6.254   5.786  0.0697 -0.0675 -0.4194
18180TIP3    H175955   4.460   6.296   5.868 -2.0866  1.2602 -1.6473
18180TIP3    H275956   4.417   6.187   5.773 -1.0757  1.3486 -2.2164
18181TIP3   OH275957   6.094   2.811   1.988  0.4622  0.0806  0.3122
18181TIP3    H175958   6.065   2.809   2.079  0.0830 -0.8965  0.1774
18181TIP3    H275959   6.051   2.736   1.947  1.5377 -0.1675 -0.3975
18182TIP3   OH275960   4.720   3.763   2.537  0.1269 -0.1094 -0.9282
18182TIP3    H175961   4.644   3.727   2.492 -0.6636  1.2357 -0.7498
18182TIP3    H275962   4.747   3.695   2.598  1.2986 -2.0507 -3.4269
18183TIP3   OH275963   0.687   6.006   4.024 -0.0043  0.0687 -0.2946
18183TIP3    H175964   0.645   5.969   3.946  0.3741 -3.0804  0.8434
18183TIP3    H275965   0.776   5.971   4.021  0.9473  2.3244  0.0796
18184TIP3   OH275966   4.508   5.659   6.005 -0.3984 -0.2939 -0.3412
18184TIP3    H175967   4.479   5.722   6.071  0.2107  0.0110 -0.3539
18184TIP3    H275968   4.443   5.589   6.008 -0.6923 -0.0056  0.1761
18185TIP3   OH275969   4.703   1.502  15.063 -0.1561  0.4900 -0.1569
18185TIP3    H175970   4.687   1.553  14.984  0.9547  0.5657 -0.3492
18185TIP3    H275971   4.778   1.446  15.041 -2.2293 -2.3620 -0.4796
18186TIP3   OH275972   2.534   2.621  14.742 -0.5171 -0.4997  0.5313
18186TIP3    H175973   2.489   2.648  14.822  0.8197  0.2839  1.0501
18186TIP3    H275974   2.583   2.543  14.768 -0.5092 -0.5584  0.3386
18187TIP3   OH275975   2.098   2.055   4.600 -0.7092  0.4461 -0.2021
18187TIP3    H175976   2.130   2.000   4.672 -0.8064  2.4114  1.4287
18187TIP3    H275977   2.176   2.072   4.546 -0.0586  1.0757  0.9068
18188TIP3   OH275978   4.000   2.157  11.745 -0.1418 -0.0899  0.4430
18188TIP3    H175979   3.928   2.215  11.723  0.3386  0.5492  0.5115
18188TIP3    H275980   4.017   2.174  11.838 -0.2849 -0.6686  0.5821
18189TIP3   OH275981   1.670   2.208   2.683  0.2980  0.1002  0.1557
18189TIP3    H175982   1.667   2.292   2.728 -2.7378  0.2291 -0.0300
18189TIP3    H275983   1.590   2.163   2.711  0.8179 -1.8962 -1.2879
18190TIP3   OH275984   1.170   3.196   5.735 -0.3534  0.0315  0.0371
18190TIP3    H175985   1.177   3.208   5.830  0.2284 -1.3565  0.1818
18190TIP3    H275986   1.260   3.183   5.706 -0.6582 -1.0038 -0.4904
18191TIP3   OH275987   6.109   1.602   2.294 -0.2599 -0.0165  0.3190
18191TIP3    H175988   6.021   1.628   2.267 -0.7686 -2.0512 -0.0990
18191TIP3    H275989   6.117   1.511   2.267  1.4157 -0.3479  1.7615
18192TIP3   OH275990   4.048   2.284  11.968  0.1011 -0.3063 -0.2710
18192TIP3    H175991   4.128   2.270  12.019  1.0152  1.3513 -1.1615
18192TIP3    H275992   4.005   2.358  12.012  0.3585  0.4473 -1.2678
18193TIP3   OH275993   0.369   2.513  14.468 -0.4719 -0.0597 -0.1255
18193TIP3    H175994   0.414   2.586  14.424  0.6624 -0.0757  0.9690
18193TIP3    H275995   0.294   2.495  14.411  0.2912  0.6800 -1.4408
18194TIP3   OH275996   2.046   3.554  16.534  0.9577  0.1863  0.2212
18194TIP3    H175997   2.102   3.549  16.612  0.0902  1.2336  0.9312
18194TIP3    H275998   2.021   3.463  16.517  0.3031  0.0297  1.8166
18195TIP3   OH275999   1.734   5.310   3.066  1.2283  0.0592  0.3780
18195TIP3    H176000   1.677   5.271   3.132  1.6343  1.7717  1.8332
18195TIP3    H276001   1.778   5.382   3.112  1.9268  0.9998 -1.6290
18196TIP3   OH276002   2.750   4.533  16.753 -0.2363 -0.1430 -0.3903
18196TIP3    H176003   2.664   4.512  16.715 -0.8158  0.4510  0.5503
18196TIP3    H276004   2.751   4.485  16.836  1.6385 -2.6664 -1.7498
18197TIP3   OH276005   2.070   2.675  12.685  0.5034 -0.4601 -0.2926
18197TIP3    H176006   1.991   2.622  12.672  1.3193 -1.9509  0.6367
18197TIP3    H276007   2.069   2.736  12.611 -1.8427  0.0092  0.0426
18198TIP3   OH276008   3.403   2.548   3.157 -0.3320  0.8498  0.3060
18198TIP3    H176009   3.405   2.605   3.233  1.9653  2.0239 -0.5463
18198TIP3    H276010   3.470   2.481   3.175 -0.7908  0.2700 -0.0771
18199TIP3   OH276011   1.252   5.113  12.459 -0.1673 -0.0055 -0.3853
18199TIP3    H176012   1.308   5.110  12.537  2.2771  0.8044 -1.9972
18199TIP3    H276013   1.163   5.106  12.493  0.7223  1.5680  2.5882
18200TIP3   OH276014   1.900   2.740   6.414 -0.4998 -0.0334  0.0144
18200TIP3    H176015   1.990   2.767   6.395 -0.4696  1.9330  2.4258
18200TIP3    H276016   1.906   2.647   6.437  0.9959  0.1651  0.4988
18201TIP3   OH276017   4.091   1.955  14.499 -0.7379 -0.5515  0.5176
18201TIP3    H176018   4.073   1.952  14.405 -2.5626  2.5389  0.6559
18201TIP3    H276019   4.182   1.925  14.507 -1.0515 -2.5573 -1.9583
18202TIP3   OH276020   3.931   6.094  11.132 -0.0984 -0.3407  0.3410
18202TIP3    H176021   3.899   6.181  11.155 -0.9505 -1.0087  1.8114
18202TIP3    H276022   3.916   6.087  11.038 -3.7177 -0.3173  0.7748
18203TIP3   OH276023   6.732   2.877   0.268 -0.6808 -0.6197  0.6226
18203TIP3    H176024   6.663   2.851   0.329 -2.4803  0.4885 -0.8588
18203TIP3    H276025   6.753   2.797   0.220  1.0001 -1.5980  2.7793
18204TIP3   OH276026   3.672   4.349  12.647  0.2033 -0.6291 -0.3631
18204TIP3    H176027   3.586   4.385  12.668  0.6514 -0.6806  1.7947
18204TIP3    H276028   3.690   4.381  12.558 -2.1918 -1.0008 -1.0765
18205TIP3   OH276029   4.270   6.065  15.822  0.0668 -0.4109  0.1572
18205TIP3    H176030   4.333   6.029  15.759 -0.7462 -1.9727  0.1902
18205TIP3    H276031   4.185   6.033  15.792 -0.3437 -1.2197  2.0524
18206TIP3   OH276032   4.210   0.082  11.674  0.0930 -0.2333 -0.5545
18206TIP3    H176033   4.306   0.083  11.672  0.1376  0.8864  0.6574
18206TIP3    H276034   4.185   0.174  11.672 -0.7430 -0.1390  3.8379
18207TIP3   OH276035   0.556   1.216  14.304  0.4780  0.3226 -0.5026
18207TIP3    H176036   0.621   1.221  14.373 -0.4980 -0.4733  0.5227
18207TIP3    H276037   0.474   1.243  14.345 -0.3504 -1.2606 -0.9875
18208TIP3   OH276038   4.445   5.587  13.620  0.4530  0.2068 -0.1037
18208TIP3    H176039   4.419   5.500  13.649  0.9913  0.0264 -0.1419
18208TIP3    H276040   4.363   5.635  13.610  0.2023 -0.0210  0.7771
18209TIP3   OH276041   5.496   2.027  14.589 -0.3206  0.0144 -0.3972
18209TIP3    H176042   5.453   1.948  14.558 -1.2235  0.2472  0.2174
18209TIP3    H276043   5.462   2.040  14.677 -0.6764  1.4274 -0.7106
18210TIP3   OH276044   3.383   0.642   0.331  0.0915  0.1241 -0.5074
18210TIP3    H176045   3.295   0.661   0.299 -0.1364  0.5737  0.3840
18210TIP3    H276046   3.395   0.548   0.313 -0.3983  0.1569 -1.0205
18211TIP3   OH276047   2.240   1.873  14.649  0.2055  0.5914  0.2247
18211TIP3    H176048   2.183   1.799  14.670 -0.0854  0.4170 -1.0460
18211TIP3    H276049   2.317   1.833  14.607 -0.0527  1.0014 -0.6744
18212TIP3   OH276050   5.900   1.370   0.317  0.1126 -0.4594 -0.2855
18212TIP3    H176051   5.981   1.420   0.309 -0.2400  0.3911  1.0103
18212TIP3    H276052   5.892   1.352   0.411 -0.4847 -1.7702 -0.5553
18213TIP3   OH276053   1.583   1.147   2.436  0.1696 -0.5142  0.4339
18213TIP3    H176054   1.489   1.134   2.434  0.1528 -0.9482  2.3140
18213TIP3    H276055   1.596   1.227   2.488  0.8491 -1.0467  1.1208
18214TIP3   OH276056   0.004   6.309   5.366 -0.0019 -0.7295  0.0842
18214TIP3    H176057  -0.077   6.295   5.415 -0.5367  0.9286 -0.2807
18214TIP3    H276058   0.038   6.392   5.398  2.0481 -1.7971  0.8401
18215TIP3   OH276059   1.876   3.083  15.534 -0.0447  0.8972 -0.3275
18215TIP3    H176060   1.844   3.168  15.503  0.2750  0.6035 -1.5123
18215TIP3    H276061   1.950   3.104  15.590  1.1349  1.3573 -1.9932
18216TIP3   OH276062   3.216   4.246  12.456  0.2957  0.0681  0.1818
18216TIP3    H176063   3.305   4.225  12.485  0.9416 -0.7522 -2.1620
18216TIP3    H276064   3.186   4.167  12.412 -0.8018  1.0027 -0.8278
18217TIP3   OH276065   6.035   5.438  11.885 -0.5203 -0.8389 -0.1751
18217TIP3    H176066   5.975   5.426  11.959 -0.1395  0.9983  0.5001
18217TIP3    H276067   6.062   5.349  11.861 -0.3028 -1.5010  2.2096
18218TIP3   OH276068   0.062   4.796  13.860 -0.5507  0.0944  0.0479
18218TIP3    H176069   0.070   4.866  13.925  1.4634 -0.5794  0.5948
18218TIP3    H276070   0.142   4.745  13.869 -0.4460 -0.3687 -2.5816
18219TIP3   OH276071   0.292   1.863   6.245  0.3754  0.2625  0.2245
18219TIP3    H176072   0.374   1.813   6.246  0.3079  0.1596  0.6935
18219TIP3    H276073   0.308   1.936   6.305  1.1570  1.9328 -1.8552
18220TIP3   OH276074   1.022   1.071   6.766 -0.4003 -0.2300 -0.4559
18220TIP3    H176075   1.092   1.131   6.790 -0.9740  0.2196  0.1387
18220TIP3    H276076   0.980   1.112   6.691 -0.9866  0.2908  0.1391
18221TIP3   OH276077   0.966   2.808  13.393  0.6654  0.1294  0.1396
18221TIP3    H176078   0.948   2.897  13.363  0.3746  0.3679  0.9983
18221TIP3    H276079   1.061   2.800  13.392  0.7867  1.0559  1.7220
18222TIP3   OH276080   5.826   2.070  15.868  0.0643 -0.8051 -0.6735
18222TIP3    H176081   5.853   2.088  15.958  1.0088 -1.3173 -0.8422
18222TIP3    H276082   5.731   2.079  15.869  0.2440  1.8806 -0.2227
18223TIP3   OH276083   1.385   4.291   2.685 -0.1543 -0.0910 -0.3096
18223TIP3    H176084   1.355   4.350   2.616 -0.4129  0.5683  0.3534
18223TIP3    H276085   1.448   4.343   2.735  0.0918 -0.5889 -0.0960
18224TIP3   OH276086   5.484   2.068   4.576 -0.1469  0.1771 -0.4726
18224TIP3    H176087   5.423   2.108   4.639 -1.6232 -0.8112 -1.2314
18224TIP3    H276088   5.562   2.124   4.580 -0.8011  1.0528  1.0637
18225TIP3   OH276089   0.875   3.922   5.972 -0.1192  0.1503  0.1433
18225TIP3    H176090   0.793   3.875   5.952 -0.1074 -0.4047  1.2520
18225TIP3    H276091   0.880   3.919   6.068  0.3498  1.6649  0.1913
18226TIP3   OH276092   6.461   3.631   4.405 -0.3021 -0.6917 -0.3915
18226TIP3    H176093   6.554   3.637   4.382 -0.0564  1.6830  0.9809
18226TIP3    H276094   6.460   3.592   4.492 -0.5298  0.2402  0.0245
18227TIP3   OH276095   1.816   5.408   5.359 -0.2989 -0.2001  0.1603
18227TIP3    H176096   1.842   5.322   5.326  1.3754  0.3990 -0.2005
18227TIP3    H276097   1.865   5.417   5.442  0.3730  0.8080 -0.3301
18228TIP3   OH276098   2.750   3.787  13.783  0.1274 -0.2627 -0.3528
18228TIP3    H176099   2.708   3.852  13.725  0.2080 -1.0133 -1.2792
18228TIP3    H276100   2.722   3.703  13.747  1.6171 -0.7651 -0.3678
18229TIP3   OH276101   0.540   5.260   3.988 -0.2926 -0.1626 -0.3306
18229TIP3    H176102   0.606   5.327   4.006 -0.3385 -0.6811  2.0582
18229TIP3    H276103   0.457   5.300   4.013 -0.1853 -1.4698  2.4092
18230TIP3   OH276104   0.723   0.583  16.489 -0.0137  0.1497 -0.1278
18230TIP3    H176105   0.734   0.627  16.405  0.7916  0.8509  0.3365
18230TIP3    H276106   0.720   0.653  16.554 -1.6644 -0.3166  0.3602
18231TIP3   OH276107   4.103   0.812  11.214  0.0321  0.4603 -0.0701
18231TIP3    H176108   4.176   0.849  11.164  1.5326 -2.1507 -0.0190
18231TIP3    H276109   4.026   0.825  11.158  0.8256  1.7979 -0.8806
18232TIP3   OH276110   1.971   1.587   0.241 -0.2181 -0.3318 -0.7591
18232TIP3    H176111   2.006   1.504   0.272  0.9431  0.3064 -0.2600
18232TIP3    H276112   1.963   1.640   0.321  1.1105  0.7305 -1.2762
18233TIP3   OH276113   3.322   0.844   4.172 -0.2022 -0.1308  0.3046
18233TIP3    H176114   3.278   0.774   4.124 -0.0745 -1.4883  2.0477
18233TIP3    H276115   3.413   0.815   4.178  0.4669  1.4873 -1.1843
18234TIP3   OH276116   5.544   4.148  13.119  0.1873 -0.4185  0.0270
18234TIP3    H176117   5.473   4.203  13.151 -0.4344 -1.2238  0.0770
18234TIP3    H276118   5.606   4.209  13.079  0.6339  0.5624  2.0635
18235TIP3   OH276119   5.184   6.635  11.428 -0.1734  0.5441 -0.5427
18235TIP3    H176120   5.252   6.632  11.361 -0.1073 -0.4723 -0.4341
18235TIP3    H276121   5.232   6.640  11.511 -0.1093 -2.4949 -0.2913
18236TIP3   OH276122   6.347   0.032  15.655  0.3408  0.3543  0.5514
18236TIP3    H176123   6.297   0.049  15.575  1.7765  0.2750 -0.4034
18236TIP3    H276124   6.302  -0.041  15.697 -0.1911  0.1136 -0.4173
18237TIP3   OH276125   2.388   0.129   2.798 -0.1298 -0.1092 -0.1242
18237TIP3    H176126   2.409   0.183   2.722 -2.2759 -0.2094 -0.8775
18237TIP3    H276127   2.396   0.189   2.873 -1.1485  0.9407 -0.8017
18238TIP3   OH276128   1.056   0.897   5.475  0.1295  0.3235  0.2697
18238TIP3    H176129   1.056   0.988   5.444  1.0087  0.2916  0.1487
18238TIP3    H276130   1.026   0.846   5.400 -0.1910  0.4914  0.2812
18239TIP3   OH276131   6.282   1.511   2.580 -0.3732  0.0595 -0.0558
18239TIP3    H176132   6.261   1.418   2.589 -0.1091  0.0747  0.7968
18239TIP3    H276133   6.312   1.537   2.667  0.7046  0.6485 -0.5834
18240TIP3   OH276134   3.404   2.596   5.934 -0.4922 -0.0472  0.7830
18240TIP3    H176135   3.341   2.638   5.992 -0.3826  0.2926  0.6574
18240TIP3    H276136   3.352   2.537   5.880 -0.6979  0.1940  0.7148
18241TIP3   OH276137   5.171   0.917   2.967 -0.1163 -0.2495  0.2396
18241TIP3    H176138   5.250   0.934   2.916  0.2843 -3.2464 -0.3285
18241TIP3    H276139   5.160   0.996   3.021  3.6513  0.0381  0.8794
18242TIP3   OH276140   0.327   2.052  16.794  0.4638 -0.0565  0.0590
18242TIP3    H176141   0.335   2.129  16.738  0.3309  1.2890  1.8062
18242TIP3    H276142   0.317   1.979  16.732  0.7311  1.2778 -1.6553
18243TIP3   OH276143   4.295   0.583  12.287  0.6403  0.0029  0.6522
18243TIP3    H176144   4.317   0.492  12.267  0.5984  0.3717 -1.3176
18243TIP3    H276145   4.276   0.584  12.381  1.6155 -1.8094  0.9059
18244TIP3   OH276146   3.812   3.408   1.698  0.6813  0.0559 -0.8653
18244TIP3    H176147   3.851   3.321   1.683 -0.0429 -0.2720 -0.8847
18244TIP3    H276148   3.883   3.459   1.736  0.9823 -0.7011 -0.3713
18245TIP3   OH276149   2.713   1.426   3.555  0.3407 -0.1545 -0.1708
18245TIP3    H176150   2.795   1.476   3.548 -1.1298  2.7493  1.3488
18245TIP3    H276151   2.681   1.420   3.465  1.5435 -0.1315 -0.6236
18246TIP3   OH276152   3.816   4.334   6.628  0.1498  0.4846  0.1764
18246TIP3    H176153   3.774   4.397   6.686  0.1327 -0.0201  0.7107
18246TIP3    H276154   3.798   4.368   6.540 -0.4355  0.8611  0.4353
18247TIP3   OH276155   6.157   1.711  13.441 -0.2815 -0.6874 -0.0320
18247TIP3    H176156   6.165   1.806  13.441  2.8163 -0.8374 -1.5268
18247TIP3    H276157   6.183   1.684  13.529 -0.7210 -0.2124  0.2515
18248TIP3   OH276158   5.287   0.934  14.017 -0.4793 -0.3105 -0.4257
18248TIP3    H176159   5.314   0.864  14.076 -2.7273  0.3827  1.5929
18248TIP3    H276160   5.228   0.893  13.955  0.7775 -0.7681 -1.3620
18249TIP3   OH276161   5.564   2.448   5.496 -0.0185 -0.3553 -0.5686
18249TIP3    H176162   5.513   2.525   5.517  1.9101  0.4927  1.3823
18249TIP3    H276163   5.619   2.475   5.422 -0.2405 -0.2833 -0.7075
18250TIP3   OH276164   3.673   4.617  10.992 -0.1666  0.7480  0.0133
18250TIP3    H176165   3.611   4.620  10.919 -1.0431  3.2872  0.7663
18250TIP3    H276166   3.642   4.684  11.053  2.7488  1.4092  0.9155
18251TIP3   OH276167   5.879   5.806   6.044 -0.2979  0.0095  0.2400
18251TIP3    H176168   5.815   5.765   6.103  0.6437 -1.4762  0.2995
18251TIP3    H276169   5.938   5.853   6.103  0.1297 -0.7476  0.4384
18252TIP3   OH276170   2.296   3.592   0.943  0.1709 -0.3032 -0.3818
18252TIP3    H176171   2.371   3.647   0.921 -0.2310  1.3807  2.0925
18252TIP3    H276172   2.220   3.639   0.908  0.1056 -1.6434 -2.2346
18253TIP3   OH276173   5.136   0.726  16.429  0.6566  0.5287  0.6352
18253TIP3    H176174   5.201   0.656  16.425  0.0767  0.0382 -0.6923
18253TIP3    H276175   5.057   0.688  16.392  0.3754  1.9192 -0.2937
18254TIP3   OH276176   6.209   2.824   3.441  0.3724 -0.0229  0.2141
18254TIP3    H176177   6.257   2.774   3.507  0.0316  2.8651  2.8778
18254TIP3    H276178   6.117   2.812   3.464 -0.0363 -1.8481 -2.0577
18255TIP3   OH276179   5.875   2.007   4.961 -0.3467  0.0828  0.2809
18255TIP3    H176180   5.830   1.940   4.909  0.5102 -0.7348  0.5551
18255TIP3    H276181   5.893   1.963   5.045  1.8883 -0.0029 -0.1840
18256TIP3   OH276182   3.201   1.388   3.737  0.4965  0.0971  0.2862
18256TIP3    H176183   3.210   1.308   3.788 -1.9727  0.1895  0.9837
18256TIP3    H276184   3.182   1.456   3.801 -3.1454  0.1327 -0.6436
18257TIP3   OH276185   3.819   0.461  11.303 -0.1064  0.0648  0.1322
18257TIP3    H176186   3.761   0.469  11.227  0.2741  0.9859 -0.0726
18257TIP3    H276187   3.854   0.372  11.296  0.4680  0.3714 -1.1839
18258TIP3   OH276188   3.812   2.209   1.048  0.4051 -0.0431 -0.1575
18258TIP3    H176189   3.743   2.201   1.115  3.0157  0.3993  2.8311
18258TIP3    H276190   3.805   2.299   1.017 -1.9988 -0.7589 -2.0228
18259TIP3   OH276191   6.528   1.705   0.805 -0.2356  0.4610 -0.5774
18259TIP3    H176192   6.598   1.716   0.869 -0.6950 -1.1406  0.2518
18259TIP3    H276193   6.472   1.636   0.842 -1.0569  0.1853 -2.2396
18260TIP3   OH276194   2.907   3.693  11.879 -0.2208 -0.0980  0.3374
18260TIP3    H176195   2.970   3.621  11.883 -2.0513 -1.7251  2.5254
18260TIP3    H276196   2.935   3.754  11.947  1.1845  1.2464 -1.3495
18261TIP3   OH276197   1.629   6.459  13.120  0.0909  0.2843 -0.4554
18261TIP3    H176198   1.584   6.466  13.204  1.1965 -0.3533  0.2196
18261TIP3    H276199   1.674   6.544  13.110  1.5873 -0.3285  0.6079
18262TIP3   OH276200   4.038   0.654   4.881 -0.4683  0.3005  0.6739
18262TIP3    H176201   4.093   0.592   4.928 -0.0347  1.0146  1.1340
18262TIP3    H276202   3.990   0.601   4.817 -0.8778 -0.6535  1.7472
18263TIP3   OH276203   4.937   0.608  14.523 -0.6660 -0.2958 -0.3484
18263TIP3    H176204   4.951   0.580  14.433 -0.5807 -1.5929  0.0427
18263TIP3    H276205   5.010   0.666  14.542 -0.1460 -0.7825 -0.8221
18264TIP3   OH276206   2.475   0.571  14.970  0.1558  0.2362 -0.5612
18264TIP3    H176207   2.444   0.634  14.906  0.7776  0.9565 -0.1637
18264TIP3    H276208   2.532   0.621  15.028 -0.0106 -0.5012  0.2701
18265TIP3   OH276209   0.004   0.928  11.822 -0.0152 -0.2825 -0.5549
18265TIP3    H176210   0.095   0.945  11.843 -0.4416  0.6777  0.6509
18265TIP3    H276211  -0.046   0.976  11.889 -1.3963 -1.0493 -0.9852
18266TIP3   OH276212   6.523   0.127  12.769 -0.7768 -0.0922 -0.1466
18266TIP3    H176213   6.608   0.088  12.748 -1.0872  0.1729 -2.0564
18266TIP3    H276214   6.492   0.077  12.844  0.5753 -0.9227 -0.1041
18267TIP3   OH276215   3.383   1.166  10.503  0.1318 -0.5335 -0.1050
18267TIP3    H176216   3.459   1.184  10.448  1.5618 -0.2675  1.8300
18267TIP3    H276217   3.312   1.217  10.464  0.6630 -1.4658 -2.4645
18268TIP3   OH276218   5.939   3.345   3.823 -0.1519 -0.3182 -0.4434
18268TIP3    H176219   5.948   3.435   3.855 -2.3605  0.9111 -2.8776
18268TIP3    H276220   5.928   3.293   3.903  3.8185  1.0154  1.2335
18269TIP3   OH276221   1.790   1.874  15.867 -0.3791 -0.1571  0.3280
18269TIP3    H176222   1.714   1.861  15.924  0.9143 -1.5900  1.8637
18269TIP3    H276223   1.778   1.812  15.796 -0.5309 -0.5454  0.6892
18270TIP3   OH276224   4.548   4.665  14.179 -0.1541  0.3005 -0.3916
18270TIP3    H176225   4.598   4.732  14.226 -1.2650 -0.4622  1.9888
18270TIP3    H276226   4.457   4.679  14.206 -0.6696 -0.9914 -1.3513
18271TIP3   OH276227   4.019   1.397  15.424 -0.3881 -0.2223 -0.3848
18271TIP3    H176228   4.003   1.334  15.354 -1.5918  1.4596 -1.7291
18271TIP3    H276229   4.112   1.417  15.418 -0.0580 -1.6141 -0.1315
18272TIP3   OH276230   1.090   5.457  11.173 -0.0632 -0.0569  0.2343
18272TIP3    H176231   1.173   5.439  11.216  0.5555 -2.0201 -1.5955
18272TIP3    H276232   1.065   5.374  11.133 -3.0497  0.3981  0.8694
18273TIP3   OH276233   2.344   5.369   6.044 -0.6571 -0.1425 -0.0486
18273TIP3    H176234   2.375   5.410   6.125 -1.0856  1.9161 -0.8523
18273TIP3    H276235   2.398   5.291   6.034 -0.0455 -0.0097  1.7927
18274TIP3   OH276236   4.257   5.577  12.924 -0.1503 -0.2857 -0.3005
18274TIP3    H176237   4.197   5.651  12.932 -0.8938 -0.8553 -0.4715
18274TIP3    H276238   4.345   5.617  12.923 -0.5939  0.7507 -2.2177
18275TIP3   OH276239   3.651   3.442  15.447 -0.2936  0.7739 -0.2784
18275TIP3    H176240   3.681   3.476  15.531  2.6887  3.5323 -2.2187
18275TIP3    H276241   3.578   3.383  15.469  0.9501  0.5830  4.2166
18276TIP3   OH276242   5.193   3.154   3.958 -0.1304 -0.1735 -0.2758
18276TIP3    H176243   5.271   3.166   4.012  0.4272  0.2049 -1.1391
18276TIP3    H276244   5.120   3.157   4.020  0.3673  1.9700  0.2910
18277TIP3   OH276245   0.378   2.151   4.265  0.3720 -0.1493 -0.3002
18277TIP3    H176246   0.405   2.158   4.357  0.8880 -0.6473 -0.4071
18277TIP3    H276247   0.458   2.126   4.219  0.3065  0.8544 -1.0048
18278TIP3   OH276248   6.479   6.498  16.208 -0.5609 -0.2930  0.0741
18278TIP3    H176249   6.441   6.537  16.286 -0.7180 -0.4885  0.0949
18278TIP3    H276250   6.504   6.410  16.235  3.5516  0.9794  1.2580
18279TIP3   OH276251   4.661   4.887  11.637 -0.0261  0.1645  1.0109
18279TIP3    H176252   4.612   4.948  11.581  0.8108  0.9576  1.1298
18279TIP3    H276253   4.643   4.916  11.726  1.5487  1.1918  1.0281
18280TIP3   OH276254   1.076   3.124  16.226 -0.1555 -0.0152  0.2281
18280TIP3    H176255   1.053   3.215  16.209 -0.9877 -0.2566  0.0383
18280TIP3    H276256   1.111   3.092  16.143 -0.2297  0.0123  0.1870
18281TIP3   OH276257   5.653   6.398  16.486  0.0865  0.3926  0.2152
18281TIP3    H176258   5.667   6.433  16.399 -1.0306  1.7915  0.5654
18281TIP3    H276259   5.720   6.440  16.540  0.3344  0.0520  0.1834
18282TIP3   OH276260   5.280   5.731  14.442 -0.1024  0.1412 -0.5765
18282TIP3    H176261   5.368   5.720  14.478 -0.2628  0.6258 -0.0252
18282TIP3    H276262   5.258   5.644  14.407  1.2236  0.4142 -2.2034
18283TIP3   OH276263   3.485   1.575  11.425  0.0956 -0.3352 -0.0040
18283TIP3    H176264   3.508   1.609  11.339  0.1504  1.0308  0.5280
18283TIP3    H276265   3.416   1.512  11.408  1.3343 -1.4278 -1.2150
18284TIP3   OH276266   4.962   2.526   5.170 -0.8008 -0.0251 -0.0538
18284TIP3    H176267   4.971   2.576   5.089  0.2171 -1.3671 -0.8105
18284TIP3    H276268   4.892   2.463   5.151 -2.0592  1.0310  0.8842
18285TIP3   OH276269   2.147   0.644   0.637 -0.5135  0.1469 -0.1811
18285TIP3    H176270   2.057   0.676   0.629 -0.5547 -0.1192 -0.7747
18285TIP3    H276271   2.138   0.550   0.654 -0.3269 -0.3277 -2.4241
18286TIP3   OH276272   4.751   1.320  11.968 -0.3898  0.1120  0.0502
18286TIP3    H176273   4.730   1.407  12.004  0.6103  0.0128  0.9015
18286TIP3    H276274   4.845   1.323  11.952 -0.0722 -1.2645  1.4094
18287TIP3   OH276275   4.150   2.636   0.824 -0.2338  0.3325 -0.5389
18287TIP3    H176276   4.094   2.691   0.879 -0.0902  0.7444 -0.7960
18287TIP3    H276277   4.092   2.566   0.793 -0.6747  0.8973 -1.0098
18288TIP3   OH276278   0.627   2.735  14.911 -0.5205  0.0030  0.3928
18288TIP3    H176279   0.563   2.711  14.978 -2.7294 -0.7989 -1.8294
18288TIP3    H276280   0.581   2.799  14.856  1.5005  1.2798  0.0593
18289TIP3   OH276281   4.526   3.871   1.598  0.3677 -0.0438 -0.5022
18289TIP3    H176282   4.586   3.926   1.547  0.4688 -0.0202 -0.3590
18289TIP3    H276283   4.581   3.800   1.631 -0.0458 -1.0715 -1.9075
18290TIP3   OH276284   5.552   4.966   2.827  0.2396 -0.4789 -0.4396
18290TIP3    H176285   5.644   4.993   2.828 -0.0737  0.6989 -1.0947
18290TIP3    H276286   5.554   4.873   2.849  1.6398 -0.5942 -0.9311
18291TIP3   OH276287   3.346   5.768  11.933 -0.1383  0.0393 -0.8578
18291TIP3    H176288   3.282   5.773  11.862 -1.0511 -0.7939 -0.1265
18291TIP3    H276289   3.429   5.748  11.890 -1.0512 -2.5779 -1.5544
18292TIP3   OH276290   2.127   1.172  13.484  0.5657 -0.0514  0.1509
18292TIP3    H176291   2.184   1.228  13.431 -1.8485  1.2688 -1.2833
18292TIP3    H276292   2.110   1.096  13.428  0.1844  0.0267  0.1572
18293TIP3   OH276293   2.246   0.382   1.319 -0.7900  0.2531  0.6717
18293TIP3    H176294   2.153   0.383   1.296 -0.4866 -2.3866 -1.1169
18293TIP3    H276295   2.291   0.395   1.236  0.3921 -0.9436  1.0868
18294TIP3   OH276296   3.348   0.520  15.808  0.0918 -0.4448  0.5831
18294TIP3    H176297   3.256   0.521  15.834 -0.1373  0.1526 -0.2012
18294TIP3    H276298   3.372   0.428  15.806 -1.8040 -1.0942 -3.5189
18295TIP3   OH276299   6.763   4.678   5.228  0.0581  0.3242 -0.6402
18295TIP3    H176300   6.729   4.656   5.142 -0.1863 -2.1950  0.0342
18295TIP3    H276301   6.764   4.595   5.276  2.7294  1.1244  0.9024
18296TIP3   OH276302   4.309   5.453   0.445  0.0835 -0.2795  0.0470
18296TIP3    H176303   4.263   5.370   0.460  0.1141 -0.1311  1.0228
18296TIP3    H276304   4.308   5.464   0.350  1.5997 -2.2659 -0.2543
18297TIP3   OH276305   5.411   5.201   3.197  0.2122  0.5080 -0.1293
18297TIP3    H176306   5.414   5.296   3.212 -2.0915  0.5287  0.6632
18297TIP3    H276307   5.480   5.166   3.252  2.3272  1.8029 -1.7929
18298TIP3   OH276308   1.633   1.032   1.546  0.1029 -0.4974 -0.3083
18298TIP3    H176309   1.663   0.945   1.572  0.0262 -1.4873 -3.2014
18298TIP3    H276310   1.566   1.055   1.611 -0.5562 -3.0153  0.0054
18299TIP3   OH276311   5.578   4.638   2.622  0.0915 -0.0048  0.6600
18299TIP3    H176312   5.487   4.625   2.650 -0.9510  2.1885 -1.3569
18299TIP3    H276313   5.591   4.573   2.553  0.4990 -1.1154  1.7511
18300TIP3   OH276314   1.641   5.258   4.832 -0.2664  0.3408  0.3805
18300TIP3    H176315   1.598   5.274   4.748 -0.8218 -0.7799  0.4366
18300TIP3    H276316   1.734   5.259   4.812 -0.3825  0.5001 -0.1705
18301TIP3   OH276317   1.107   1.155   2.692 -0.5604  0.0097  0.3168
18301TIP3    H176318   1.105   1.180   2.785  0.1522  1.7715 -0.1014
18301TIP3    H276319   1.062   1.226   2.647  2.6307  1.3723 -1.0771
18302TIP3   OH276320   2.572   5.137   3.920  0.2639 -0.9555 -0.2404
18302TIP3    H176321   2.528   5.061   3.958 -1.2959 -0.5017 -1.0436
18302TIP3    H276322   2.503   5.182   3.870  1.1649  0.9378  0.1415
18303TIP3   OH276323   0.581   2.211   2.311  0.2031  0.0350  0.3479
18303TIP3    H176324   0.635   2.264   2.370  0.3184 -0.0813  0.3467
18303TIP3    H276325   0.506   2.267   2.290 -0.4125 -0.3199  1.4772
18304TIP3   OH276326   5.990   4.996   5.314 -0.5301  0.2846 -0.0386
18304TIP3    H176327   5.992   4.917   5.260 -0.5663  0.4869 -0.3384
18304TIP3    H276328   5.924   4.978   5.381 -2.5595  1.1062 -1.7411
18305TIP3   OH276329   1.217   1.746  11.658 -0.1515  0.1634  0.7985
18305TIP3    H176330   1.139   1.759  11.603  1.6703 -1.6359 -2.5600
18305TIP3    H276331   1.218   1.652  11.676  1.0405  0.2312  1.1407
18306TIP3   OH276332   3.840   0.270  14.375  0.7867 -0.0953  0.2591
18306TIP3    H176333   3.854   0.326  14.299 -0.2857  1.1545  0.9424
18306TIP3    H276334   3.918   0.284  14.429  0.5366  0.7641  0.4209
18307TIP3   OH276335   4.621   0.869   5.593 -0.5352 -0.3143 -0.0550
18307TIP3    H176336   4.652   0.784   5.561  0.1825  0.3444 -1.2218
18307TIP3    H276337   4.684   0.932   5.556 -1.1245  0.7348  0.6774
18308TIP3   OH276338   1.918   5.807  14.804  0.1830  0.1105 -0.4071
18308TIP3    H176339   2.011   5.807  14.783  0.1530  0.7748 -0.5796
18308TIP3    H276340   1.914   5.815  14.899  0.3033 -0.9286 -0.3012
18309TIP3   OH276341   1.801   2.255  15.596  0.6286 -0.1071 -0.8259
18309TIP3    H176342   1.725   2.198  15.589  1.5467 -1.4351 -0.2907
18309TIP3    H276343   1.864   2.206  15.648  1.7905  1.0416 -1.0832
18310TIP3   OH276344   0.843   2.162  16.119  0.3468  0.1650  0.0695
18310TIP3    H176345   0.770   2.220  16.101  0.4386  0.4391  0.5656
18310TIP3    H276346   0.817   2.078  16.081 -0.6438 -0.0015  1.0603
18311TIP3   OH276347   3.197   2.253  15.030 -0.3168 -0.5217  0.0874
18311TIP3    H176348   3.183   2.346  15.010  4.5123  0.1688 -1.4210
18311TIP3    H276349   3.243   2.253  15.114  2.7082 -1.0543 -1.4292
18312TIP3   OH276350   1.836   1.204  12.933  0.2323 -0.4156 -0.0451
18312TIP3    H176351   1.784   1.217  13.012  1.2603 -1.9720  0.9349
18312TIP3    H276352   1.859   1.292  12.904 -0.9498  0.2035  0.8447
18313TIP3   OH276353   6.431   4.595  14.083  0.4771 -0.0033 -0.0639
18313TIP3    H176354   6.381   4.542  14.021  0.2517 -1.2509  1.1402
18313TIP3    H276355   6.514   4.612  14.039 -0.2711  0.4770 -1.3267
18314TIP3   OH276356   2.596   4.660  13.965  0.1424  0.2452 -0.1893
18314TIP3    H176357   2.504   4.685  13.975 -0.5422 -1.0537 -2.5988
18314TIP3    H276358   2.612   4.597  14.035 -0.5546  1.0135  0.6869
18315TIP3   OH276359   0.689   1.281   5.884  0.2024  0.0304  0.1780
18315TIP3    H176360   0.773   1.255   5.848 -0.9428 -2.5207 -0.8625
18315TIP3    H276361   0.641   1.199   5.895 -2.1595  1.3953  0.7128
18316TIP3   OH276362   3.596   6.725  16.134 -0.0196 -0.2221  0.4285
18316TIP3    H176363   3.609   6.799  16.074 -0.6522 -0.6364 -0.2399
18316TIP3    H276364   3.531   6.755  16.196 -1.1606 -0.6037 -0.5515
18317TIP3   OH276365   6.192   4.018  11.559  0.0739  0.4882 -0.9598
18317TIP3    H176366   6.175   3.926  11.577 -2.9509  0.7844 -1.6827
18317TIP3    H276367   6.144   4.035  11.478 -1.8049  3.2647  0.5560
18318TIP3   OH276368   4.173   4.493  11.316  0.2174 -0.6066 -0.2898
18318TIP3    H176369   4.238   4.430  11.346 -1.0712 -1.6127  0.5030
18318TIP3    H276370   4.148   4.542  11.394 -1.1268 -1.3374 -0.2354
18319TIP3   OH276371   6.665   0.061  10.852 -0.2275 -0.1417  0.4285
18319TIP3    H176372   6.654   0.008  10.772 -0.3273 -1.7578  1.4700
18319TIP3    H276373   6.744   0.026  10.893 -1.6037 -1.1343  2.3523
18320TIP3   OH276374   0.664   3.163  13.689 -0.1192  0.1509  0.7716
18320TIP3    H176375   0.753   3.186  13.659 -0.7133  0.8621 -0.5540
18320TIP3    H276376   0.611   3.239  13.665 -1.6110 -1.3731 -1.0586
18321TIP3   OH276377   1.523   2.898  15.989 -0.0566 -0.1108  0.1362
18321TIP3    H176378   1.543   2.981  15.945  0.6940 -0.2438  0.2248
18321TIP3    H276379   1.440   2.870  15.949  0.8803 -0.5139 -1.6503
18322TIP3   OH276380   1.610   5.024  12.017  0.4064 -0.2862  0.2135
18322TIP3    H176381   1.566   5.075  12.085  0.5577 -0.6793  0.6119
18322TIP3    H276382   1.539   4.995  11.959  0.3990  1.0064 -0.4554
18323TIP3   OH276383   0.068   0.768   5.982  0.2409  0.5613 -0.0664
18323TIP3    H176384   0.141   0.799   5.929 -1.5553  2.4204 -1.6109
18323TIP3    H276385  -0.009   0.809   5.943 -1.7149 -1.6763  1.1887
18324TIP3   OH276386   5.563   0.599  16.427 -0.1352  0.4966  0.0336
18324TIP3    H176387   5.572   0.553  16.511  0.0359  0.6978  0.1238
18324TIP3    H276388   5.481   0.565  16.390  1.0381 -1.4676 -0.8885
18325TIP3   OH276389   1.728   6.502   1.321 -0.1204  0.3193  0.1202
18325TIP3    H176390   1.707   6.588   1.286 -1.4778  0.9812  2.3553
18325TIP3    H276391   1.661   6.444   1.285 -0.3988  0.6137  0.1581
18326TIP3   OH276392   0.813   6.357  15.265  0.3881  0.0424  0.0876
18326TIP3    H176393   0.775   6.285  15.314 -0.7293  0.4168 -0.2119
18326TIP3    H276394   0.884   6.389  15.321 -0.4471  0.0504  1.1744
18327TIP3   OH276395   2.895   6.430   4.118 -0.7568  0.3639 -0.2852
18327TIP3    H176396   2.879   6.421   4.212 -0.5118  0.5875 -0.2192
18327TIP3    H276397   2.816   6.395   4.076 -0.7003 -0.1069 -0.0044
18328TIP3   OH276398   3.528   2.233   3.790  0.1046 -0.3584  0.5759
18328TIP3    H176399   3.560   2.318   3.822 -0.9550  0.1674  0.2918
18328TIP3    H276400   3.558   2.170   3.856  1.8615  0.0536  0.2360
18329TIP3   OH276401   4.480   5.915  14.061 -0.1024  0.3173  0.6790
18329TIP3    H176402   4.426   5.846  14.022  2.0916  0.6220 -3.4578
18329TIP3    H276403   4.535   5.868  14.124 -1.3114 -0.9490  0.8614
18330TIP3   OH276404   3.896   3.653   0.077 -0.6426  0.5278  0.5083
18330TIP3    H176405   3.828   3.720   0.078 -0.0779  1.1852 -1.1355
18330TIP3    H276406   3.925   3.649  -0.015  0.3030 -0.9889  0.8259
18331TIP3   OH276407   4.521   3.406   2.129  0.1739  0.4105  0.4002
18331TIP3    H176408   4.544   3.314   2.113  0.3843  0.6602 -0.8022
18331TIP3    H276409   4.605   3.452   2.127 -0.0977  0.9018 -1.0254
18332TIP3   OH276410   4.624   0.776  15.604  0.3206 -0.5754  0.3255
18332TIP3    H176411   4.612   0.798  15.697  2.3228 -0.7534  0.6833
18332TIP3    H276412   4.687   0.841  15.573 -0.5669 -0.3292 -1.0204
18333TIP3   OH276413   2.236   6.275  13.231 -0.6010  0.0995 -0.2351
18333TIP3    H176414   2.219   6.364  13.200 -1.7006  0.2478  0.7377
18333TIP3    H276415   2.321   6.280  13.274 -0.9569  0.8586  0.4078
18334TIP3   OH276416   3.908   2.502  13.718 -0.3835  0.0554  0.3567
18334TIP3    H176417   3.926   2.434  13.783  2.1166  1.1433  0.9127
18334TIP3    H276418   3.915   2.585  13.767 -0.1494  0.8314 -0.9436
18335TIP3   OH276419   1.499   0.870   4.624 -0.0258  0.3072 -0.1530
18335TIP3    H176420   1.427   0.880   4.562  1.3090 -0.5307 -1.9073
18335TIP3    H276421   1.565   0.933   4.595  0.9141 -0.6084 -0.0733
18336TIP3   OH276422   4.031   3.678  11.045 -0.1275  0.2370 -0.1706
18336TIP3    H176423   4.042   3.734  10.968 -2.2615  0.1313 -0.6296
18336TIP3    H276424   4.037   3.588  11.010 -1.5263  0.1840 -0.3394
18337TIP3   OH276425   4.079   1.401   4.928  0.0953  0.1192 -0.3573
18337TIP3    H176426   4.012   1.358   4.982 -1.1350  0.7312 -1.3454
18337TIP3    H276427   4.160   1.353   4.947 -0.4473 -0.1324  1.4687
18338TIP3   OH276428   6.440   6.037   3.238 -0.2588 -0.6681  0.0273
18338TIP3    H176429   6.471   6.070   3.322 -0.8154 -0.2135  0.0623
18338TIP3    H276430   6.520   6.021   3.187  0.0379  0.8864 -0.0372
18339TIP3   OH276431   2.033   2.055   4.086 -0.3822  0.6976  0.3294
18339TIP3    H176432   1.972   2.040   4.158 -1.3028 -1.7491 -0.8166
18339TIP3    H276433   2.111   2.092   4.127 -1.0856 -0.0536  2.4955
18340TIP3   OH276434   2.631   3.481   1.640  0.4183 -0.3105  0.0229
18340TIP3    H176435   2.545   3.451   1.609  0.5767  1.3672 -2.2817
18340TIP3    H276436   2.612   3.563   1.685  0.6624 -0.8322  1.1215
18341TIP3   OH276437   2.208   5.794  12.866 -0.3001 -0.1578 -0.0978
18341TIP3    H176438   2.113   5.791  12.873 -0.5571  0.8154 -2.3069
18341TIP3    H276439   2.231   5.718  12.813  0.2795 -0.8514  1.0980
18342TIP3   OH276440   4.275   2.180  12.086  0.4689 -0.0962 -0.0417
18342TIP3    H176441   4.295   2.203  12.177 -0.5644  0.3380  0.0812
18342TIP3    H276442   4.228   2.097  12.092 -1.2041  0.8159 -0.0214
18343TIP3   OH276443   0.741   5.646  12.585  0.4853 -0.3987 -0.2446
18343TIP3    H176444   0.794   5.605  12.515 -0.1537 -1.9633  0.1381
18343TIP3    H276445   0.799   5.644  12.661  0.8930  0.5691 -0.5140
18344TIP3   OH276446   4.490   5.901   4.890  0.4984  0.4162  0.0605
18344TIP3    H176447   4.551   5.974   4.887  0.4551  0.4528 -2.3181
18344TIP3    H276448   4.540   5.830   4.931  1.6688  0.8546 -0.5436
18345TIP3   OH276449   6.710   3.141   5.923  0.1396  0.3513 -0.0217
18345TIP3    H176450   6.748   3.122   6.009 -0.3792  0.2684  0.1901
18345TIP3    H276451   6.698   3.236   5.923 -1.4143  0.1736  0.6539
18346TIP3   OH276452   0.951   5.361  14.803 -0.0304  0.0195 -0.0825
18346TIP3    H176453   0.910   5.382  14.887  0.8797  0.8614  0.1652
18346TIP3    H276454   0.910   5.279  14.776  1.2983 -1.5312  2.3205
18347TIP3   OH276455   0.946   2.579  14.395 -0.0415 -0.0474  0.0695
18347TIP3    H176456   0.982   2.501  14.437  1.9335  0.2962 -0.8918
18347TIP3    H276457   0.934   2.642  14.465 -0.6523 -0.8310  0.6918
18348TIP3   OH276458   4.132   0.979   4.753 -0.3811  0.0018  0.0972
18348TIP3    H176459   4.162   0.889   4.740 -1.5961 -0.1668 -1.9560
18348TIP3    H276460   4.129   1.017   4.665 -0.0458  2.0246  0.8895
18349TIP3   OH276461   4.155   3.663  11.608  0.2216 -0.1733  0.5020
18349TIP3    H176462   4.105   3.639  11.530 -0.6076 -1.1704  1.3032
18349TIP3    H276463   4.208   3.737  11.581 -2.2279  1.4371 -0.2235
18350TIP3   OH276464   1.174   4.937   5.672  0.3169  0.1787  0.7695
18350TIP3    H176465   1.213   4.856   5.639 -0.5798  0.6968 -1.7554
18350TIP3    H276466   1.102   4.956   5.612 -1.5558  1.1806  3.1799
18351TIP3   OH276467   5.480   5.249   1.821 -0.2384 -0.0397  0.4693
18351TIP3    H176468   5.452   5.165   1.784 -1.0751  1.2363 -2.0171
18351TIP3    H276469   5.423   5.262   1.897 -2.4991 -0.1986 -1.1050
18352TIP3   OH276470   5.931   4.592  16.948 -0.4128 -0.7581  0.1852
18352TIP3    H176471   5.857   4.597  17.009 -1.2627  1.2692 -0.8934
18352TIP3    H276472   5.890   4.579  16.862  0.6347 -1.5623 -0.2212
18353TIP3   OH276473   5.055   3.306  13.089 -0.3239  0.0609  0.0081
18353TIP3    H176474   5.148   3.287  13.076 -0.1528 -0.1618  1.3866
18353TIP3    H276475   5.036   3.378  13.028  0.6165 -0.2300 -0.6485
18354TIP3   OH276476   1.520   3.215  16.999 -0.0021  0.2224 -0.2552
18354TIP3    H176477   1.547   3.222  17.091  1.2941 -0.7109 -0.5397
18354TIP3    H276478   1.535   3.123  16.977 -0.3325  0.4332 -1.4037
18355TIP3   OH276479   1.137   5.721  13.897  0.1757  0.0181 -0.3409
18355TIP3    H176480   1.102   5.719  13.808 -1.2602  0.9094  0.1632
18355TIP3    H276481   1.067   5.681  13.950  1.7043 -2.1050  0.2010
18356TIP3   OH276482   4.314   5.347  13.690 -0.8981 -0.1516  0.2243
18356TIP3    H176483   4.385   5.285  13.703  0.0922  0.5487 -1.5108
18356TIP3    H276484   4.277   5.361  13.777  0.1265 -1.6590  0.9243
18357TIP3   OH276485   4.300   5.348  11.787  0.3159  0.0296 -0.2604
18357TIP3    H176486   4.241   5.424  11.791 -0.3186 -0.4796  0.5098
18357TIP3    H276487   4.388   5.386  11.789  0.0312  0.7245  1.8119
18358TIP3   OH276488   5.435   5.197  15.989 -0.1235  0.1972 -0.1596
18358TIP3    H176489   5.364   5.152  15.943 -0.0821 -0.4943  0.4344
18358TIP3    H276490   5.390   5.254  16.051 -0.1703 -0.3955  0.3623
18359TIP3   OH276491   4.577   5.081  15.308 -0.6004  0.1014  0.0518
18359TIP3    H176492   4.571   5.060  15.401 -0.6482 -0.6033 -0.1087
18359TIP3    H276493   4.518   5.155  15.296 -1.1731 -0.2888  0.4327
18360TIP3   OH276494   6.326   1.911   4.584  0.5375  0.0386  0.0165
18360TIP3    H176495   6.244   1.909   4.633 -0.2473  1.4612 -1.1443
18360TIP3    H276496   6.369   1.992   4.611  0.2647  0.6584 -1.3520
18361TIP3   OH276497   1.638   0.365  13.164 -0.4173 -0.0810  0.7282
18361TIP3    H176498   1.569   0.302  13.183 -2.0738  1.2807 -0.4644
18361TIP3    H276499   1.620   0.439  13.222 -0.7000  0.7541 -0.3769
18362TIP3   OH276500   6.179   2.918  15.100 -0.3671  0.4203  0.1611
18362TIP3    H176501   6.130   2.920  15.018  0.3796  0.5663 -0.3009
18362TIP3    H276502   6.114   2.929  15.168 -0.9288  0.9675 -0.4518
18363TIP3   OH276503   3.160   1.004   4.744  0.2636 -0.5111  0.0655
18363TIP3    H176504   3.201   0.917   4.747  1.9082  0.1584 -1.1190
18363TIP3    H276505   3.227   1.063   4.778 -0.2513  0.4641 -0.5720
18364TIP3   OH276506   4.122   4.709  16.565 -0.1706 -0.3340  0.5107
18364TIP3    H176507   4.043   4.726  16.514 -1.3526 -2.5207  1.4490
18364TIP3    H276508   4.102   4.741  16.653  0.7011  0.7119  0.3437
18365TIP3   OH276509   2.398   3.228   3.162  0.3975  0.0836 -0.5665
18365TIP3    H176510   2.308   3.203   3.141  0.9792 -2.1272 -0.6970
18365TIP3    H276511   2.450   3.190   3.091  1.4719  1.1918 -0.4054
18366TIP3   OH276512   1.426   2.542  15.967  0.0760  0.1992 -0.1725
18366TIP3    H176513   1.506   2.585  15.938 -0.7322 -0.1592 -3.2592
18366TIP3    H276514   1.368   2.614  15.993  0.1113  0.7571 -1.5561
18367TIP3   OH276515   1.920   6.685  13.942  0.1185 -0.9547  0.9168
18367TIP3    H176516   1.929   6.592  13.960 -2.5763 -1.4567  0.1400
18367TIP3    H276517   1.863   6.718  14.011 -1.1054 -0.5053 -0.2505
18368TIP3   OH276518   6.496   2.749   4.992  0.1180  0.4893 -0.1205
18368TIP3    H176519   6.442   2.753   5.070  0.5942  0.9920  0.1888
18368TIP3    H276520   6.506   2.840   4.965  0.0528  0.3278 -0.7000
18369TIP3   OH276521   0.822   3.185   1.423 -0.2107  0.0187 -0.2821
18369TIP3    H176522   0.806   3.236   1.344  0.8590  2.6827  1.0954
18369TIP3    H276523   0.742   3.194   1.474 -0.2783 -0.2827 -0.3340
18370TIP3   OH276524   6.347   2.556   1.653  0.4713 -0.0068  0.0086
18370TIP3    H176525   6.398   2.590   1.727  1.2305 -1.1178  0.0195
18370TIP3    H276526   6.269   2.519   1.694  0.3021  0.4687  0.1258
18371TIP3   OH276527   4.757   4.132   5.442 -0.6375  0.2212  0.3492
18371TIP3    H176528   4.852   4.128   5.455 -0.6805  1.7529  1.4185
18371TIP3    H276529   4.730   4.041   5.428  0.8858 -0.3120  0.7725
18372TIP3   OH276530   3.841   5.703  13.230 -0.1739 -0.9786 -0.6664
18372TIP3    H176531   3.792   5.673  13.307 -0.7041 -0.2561 -0.7131
18372TIP3    H276532   3.774   5.715  13.163 -0.3293  2.1345 -0.1221
18373TIP3   OH276533   0.654   0.809   4.432 -0.3238  0.2229  0.5337
18373TIP3    H176534   0.617   0.767   4.355 -0.6018  0.2144  0.6724
18373TIP3    H276535   0.729   0.754   4.456 -1.6768 -1.1988  1.7379
18374TIP3   OH276536   3.013   3.467  15.221 -0.2139  0.2440  0.2976
18374TIP3    H176537   2.973   3.437  15.140  0.9391 -0.7007  0.0490
18374TIP3    H276538   2.940   3.475  15.283 -0.6805 -2.8829  0.3188
18375TIP3   OH276539   5.243   3.545   4.360 -0.1888 -0.4564 -0.1217
18375TIP3    H176540   5.281   3.555   4.447 -0.6804  2.5753 -0.1387
18375TIP3    H276541   5.193   3.463   4.365  2.7292 -2.3302  1.2024
18376TIP3   OH276542   2.052   4.040   1.228 -0.5968  0.2230 -0.1647
18376TIP3    H176543   1.992   4.105   1.266  0.1224  0.3494  0.7936
18376TIP3    H276544   2.067   3.977   1.299  0.7438  0.4410 -0.2338
18377TIP3   OH276545   6.485   5.765  15.985 -0.3068  0.2723 -0.0661
18377TIP3    H176546   6.574   5.734  16.000 -0.7830 -1.0485  0.1225
18377TIP3    H276547   6.491   5.814  15.902  0.3288 -1.0058 -0.8165
18378TIP3   OH276548   0.921   3.239   1.107  0.0300  0.3664  0.1235
18378TIP3    H176549   0.847   3.294   1.133  1.0689  1.8327  0.1409
18378TIP3    H276550   0.957   3.283   1.030  0.2750 -0.8870 -0.4895
18379TIP3   OH276551   3.711   3.334  12.070  0.8350 -0.0769  0.1830
18379TIP3    H176552   3.657   3.307  12.144  0.6982 -1.9993 -0.5392
18379TIP3    H276553   3.717   3.255  12.016  0.6394  1.3271 -2.0214
18380TIP3   OH276554   4.489   0.087  14.862  0.0944 -0.0849  0.1759
18380TIP3    H176555   4.483   0.179  14.886 -0.9724  0.8218 -3.0437
18380TIP3    H276556   4.456   0.039  14.938 -0.6801  2.2467  1.3845
18381TIP3   OH276557   0.482   2.215  11.945  0.5988  0.3657  0.0504
18381TIP3    H176558   0.522   2.168  11.872 -0.6121 -1.0346  0.2386
18381TIP3    H276559   0.435   2.147  11.994 -1.2853  1.7901  0.3109
18382TIP3   OH276560   2.351   2.904   3.364 -0.2967  0.0283  0.1009
18382TIP3    H176561   2.363   2.996   3.342 -0.9963  0.0634 -0.1818
18382TIP3    H276562   2.262   2.884   3.335  0.0072 -0.8600 -0.2557
18383TIP3   OH276563   1.628   2.309  12.519  0.0680 -0.3065  0.1835
18383TIP3    H176564   1.563   2.359  12.469 -1.2804 -1.0531  1.1241
18383TIP3    H276565   1.617   2.219  12.491  0.3278 -0.5235  0.7589
18384TIP3   OH276566   0.137   4.127  16.408 -0.0306  0.7248 -0.0687
18384TIP3    H176567   0.134   4.154  16.316  0.4127  0.4656 -0.1644
18384TIP3    H276568   0.111   4.204  16.457  0.1105  0.9807 -0.3948
18385TIP3   OH276569   4.582   4.346  12.675  0.2744 -0.1713 -0.0579
18385TIP3    H176570   4.601   4.318  12.765  1.4729 -1.3549 -0.6449
18385TIP3    H276571   4.521   4.420  12.685 -1.1303 -1.4750  1.6539
18386TIP3   OH276572   5.535   3.928   1.677 -0.2143  0.5720  0.3290
18386TIP3    H176573   5.600   3.914   1.607  1.3001  2.5824  1.2470
18386TIP3    H276574   5.571   3.999   1.729 -1.3859 -0.7194  3.0925
18387TIP3   OH276575   0.407   4.415   0.444 -0.1398  0.2363 -0.7850
18387TIP3    H176576   0.482   4.373   0.402  0.5608  0.0181  0.6302
18387TIP3    H276577   0.443   4.495   0.484 -1.0012  0.9992 -1.4772
18388TIP3   OH276578   2.881   6.058   5.846 -0.0724 -0.1734 -0.3735
18388TIP3    H176579   2.929   6.011   5.778  1.1213  1.9001 -1.0728
18388TIP3    H276580   2.811   6.103   5.799 -0.1898  0.0430  0.0046
18389TIP3   OH276581   6.640   1.289   3.777 -0.0628  0.5943 -0.0938
18389TIP3    H176582   6.553   1.282   3.739 -0.1117  4.5961 -1.1721
18389TIP3    H276583   6.699   1.282   3.702  0.7658 -3.1410  0.7471
18390TIP3   OH276584   1.014   1.136   3.503 -0.0778 -0.7781  0.0905
18390TIP3    H176585   0.957   1.168   3.573 -0.2756 -3.9347  1.5195
18390TIP3    H276586   0.953   1.093   3.442  0.4724 -1.6489  0.1429
18391TIP3   OH276587   2.374   3.485   2.687  0.0960 -0.3203 -0.3346
18391TIP3    H176588   2.360   3.494   2.593  0.3246 -1.5008 -0.4907
18391TIP3    H276589   2.456   3.437   2.694 -0.9260 -2.0165  0.4317
18392TIP3   OH276590   1.386   0.645   3.814  0.5297 -0.4413  0.2259
18392TIP3    H176591   1.446   0.708   3.775 -1.8008  0.5109 -2.0999
18392TIP3    H276592   1.370   0.581   3.745 -0.1410 -1.4263  1.2518
18393TIP3   OH276593   3.320   4.410   2.160  0.1973  0.1620 -0.3969
18393TIP3    H176594   3.357   4.358   2.231  1.9971  0.6829 -0.8966
18393TIP3    H276595   3.237   4.443   2.195 -1.3061 -3.3566 -0.2293
18394TIP3   OH276596   5.672   6.716  16.931  0.0044 -0.0941  0.4803
18394TIP3    H176597   5.629   6.801  16.918  1.9499  1.1661  1.7808
18394TIP3    H276598   5.737   6.732  16.999  1.1057 -2.4297  0.0813
18395TIP3   OH276599   0.880   0.503   3.864  0.2275 -0.0282  0.6468
18395TIP3    H176600   0.807   0.459   3.908  0.2292 -0.1033  0.5749
18395TIP3    H276601   0.842   0.537   3.783  0.0443  0.7759  1.0708
18396TIP3   OH276602   3.413   3.628  15.548  0.1305  0.1115  0.1711
18396TIP3    H176603   3.477   3.698  15.559 -1.9411  1.9531  1.1728
18396TIP3    H276604   3.381   3.638  15.458 -1.6235  1.8542  0.9270
18397TIP3   OH276605   4.158   6.696  15.315 -0.2898 -0.0339 -0.0908
18397TIP3    H176606   4.191   6.773  15.362 -0.1078  0.1767 -0.5546
18397TIP3    H276607   4.209   6.694  15.234 -1.8972  0.7365 -1.1732
18398TIP3   OH276608   3.397   2.394   4.108  0.4449  0.0268  0.1392
18398TIP3    H176609   3.455   2.399   4.032  1.0462  1.0014  0.6275
18398TIP3    H276610   3.348   2.313   4.096 -0.9633  1.1378 -2.3321
18399TIP3   OH276611   5.948   5.151  14.185  0.2223 -0.6648  0.4215
18399TIP3    H176612   5.885   5.206  14.232 -0.2374 -1.3081  0.5738
18399TIP3    H276613   6.033   5.178  14.218  0.0083  0.0109  0.4333
18400TIP3   OH276614   3.160   1.245  13.830 -0.7908  0.4695  0.2055
18400TIP3    H176615   3.111   1.242  13.748  0.7030 -0.2634 -0.7037
18400TIP3    H276616   3.236   1.188  13.815 -0.3748  0.4811  2.0282
18401TIP3   OH276617   1.181   3.009  14.084  0.5200  0.0473  0.2118
18401TIP3    H176618   1.259   3.032  14.033  0.4228 -1.5679 -0.7473
18401TIP3    H276619   1.108   3.020  14.024  0.2417 -0.5080  0.4409
18402TIP3   OH276620   5.955   2.536  17.007  0.2110 -0.5478 -0.0393
18402TIP3    H176621   6.042   2.499  16.996  0.2718  0.0327 -2.1135
18402TIP3    H276622   5.971   2.627  17.033  0.1234 -1.1452  2.2615
18403TIP3   OH276623   1.676   6.685  15.426  0.2451  0.1968 -0.1354
18403TIP3    H176624   1.618   6.737  15.481 -0.1929 -1.7422  1.3305
18403TIP3    H276625   1.650   6.706  15.337 -2.6757 -0.4814  0.4519
18404TIP3   OH276626   3.515   3.918  12.578  0.2328 -0.2370 -0.4442
18404TIP3    H176627   3.488   3.928  12.669  2.2167 -2.7862  0.5482
18404TIP3    H276628   3.514   4.007  12.543  0.0722  0.9236  2.2649
18405TIP3   OH276629   0.857   5.021   1.633 -0.0466 -0.0706 -0.3086
18405TIP3    H176630   0.840   4.933   1.598 -0.2140 -0.2640  0.2573
18405TIP3    H276631   0.876   5.007   1.726 -0.0537  0.4938 -0.2190
18406TIP3   OH276632   0.695   1.351  14.071  0.4342  0.5432 -0.1754
18406TIP3    H176633   0.657   1.419  14.016  0.8412 -1.0417 -2.5827
18406TIP3    H276634   0.619   1.300  14.102  0.0386  2.4613  2.4110
18407TIP3   OH276635   4.088   4.960  14.729  0.4441 -0.0645  0.8581
18407TIP3    H176636   4.014   4.998  14.682  0.4846  0.6896  1.3892
18407TIP3    H276637   4.146   4.928  14.660 -0.6128 -1.1457  0.4440
18408TIP3   OH276638   6.426   5.350  11.393 -0.3098  0.3486 -0.5972
18408TIP3    H176639   6.389   5.357  11.305 -2.9821  3.3447  0.5512
18408TIP3    H276640   6.394   5.266  11.426 -0.8999  0.0786 -1.7999
18409TIP3   OH276641   6.586   3.256   3.390  0.0419  0.0277 -0.0404
18409TIP3    H176642   6.663   3.206   3.417  1.0866  1.2292 -0.7047
18409TIP3    H276643   6.622   3.333   3.345 -1.4570  1.9061  1.8044
18410TIP3   OH276644   1.835   6.270   3.532 -0.2988 -0.7817 -0.8284
18410TIP3    H176645   1.798   6.229   3.454  0.3064 -1.1827 -0.9169
18410TIP3    H276646   1.930   6.262   3.520 -0.1374  1.1956 -1.1374
18411TIP3   OH276647   3.368   3.896   3.293 -0.0052  0.0235 -0.2399
18411TIP3    H176648   3.275   3.902   3.319  0.1834 -0.4782  0.6026
18411TIP3    H276649   3.383   3.973   3.239 -1.3914 -0.8282 -1.9431
18412TIP3   OH276650   2.254   3.928  13.597  0.1275  0.2481  0.2034
18412TIP3    H176651   2.201   3.921  13.518  0.1806  1.1162  0.0742
18412TIP3    H276652   2.259   4.022  13.613  1.4432  0.1702  0.3361
18413TIP3   OH276653   4.732   6.577   3.254 -0.1823 -0.0386 -0.3320
18413TIP3    H176654   4.670   6.623   3.310 -0.2200  1.1603 -1.3225
18413TIP3    H276655   4.815   6.582   3.302 -0.6833 -1.1051  0.7033
18414TIP3   OH276656   4.370   4.416  14.204  0.4976  0.2952 -0.1420
18414TIP3    H176657   4.440   4.463  14.158  0.3408  0.2628 -0.4152
18414TIP3    H276658   4.359   4.335  14.155 -1.5651  1.4423 -1.7654
18415TIP3   OH276659   0.036   0.819  14.061 -0.6733 -0.4946  0.4511
18415TIP3    H176660   0.056   0.775  14.143 -1.7014 -2.9262 -0.5264
18415TIP3    H276661   0.115   0.808  14.008 -0.6571 -0.4842  0.4728
18416TIP3   OH276662   0.649   0.118  15.171  0.5904 -0.3581 -0.2651
18416TIP3    H176663   0.560   0.099  15.200  0.7696  0.6949  1.1593
18416TIP3    H276664   0.695   0.035  15.177  0.3243 -0.4299  1.5981
18417TIP3   OH276665   2.900   0.850  11.895  0.1584  0.3101  0.2721
18417TIP3    H176666   2.829   0.883  11.840  0.2647 -1.4628 -1.0533
18417TIP3    H276667   2.973   0.909  11.878 -0.0619  0.2799 -0.9156
18418TIP3   OH276668   0.985   4.037   4.212  0.6111  0.8656 -0.8224
18418TIP3    H176669   0.942   4.021   4.127 -1.0450  2.9999 -0.4725
18418TIP3    H276670   1.053   3.969   4.217 -2.5391 -2.7086 -1.4968
18419TIP3   OH276671   3.835   3.501   4.127  0.0568  0.4822 -0.1578
18419TIP3    H176672   3.829   3.530   4.036  1.6577 -0.2605 -0.5376
18419TIP3    H276673   3.916   3.542   4.160 -0.1870  0.2664  0.7466
18420TIP3   OH276674   3.185   6.501  12.441  0.1850 -0.3080 -0.3190
18420TIP3    H176675   3.100   6.545  12.441 -0.1875 -1.0113 -0.0809
18420TIP3    H276676   3.165   6.412  12.414  0.7277 -0.6911  0.5333
18421TIP3   OH276677   2.054   2.947   0.798  0.3574  0.2204 -0.0888
18421TIP3    H176678   2.132   2.901   0.764 -0.3647 -1.9302  0.9786
18421TIP3    H276679   1.985   2.880   0.797 -1.5942  2.1265 -1.2442
18422TIP3   OH276680   3.971   5.512   1.973  0.2517  0.1744 -0.6262
18422TIP3    H176681   4.028   5.455   1.921  1.8302  0.6804  0.4907
18422TIP3    H276682   3.976   5.597   1.930  1.6770  0.6303  0.4120
18423TIP3   OH276683   3.813   4.604  14.495  0.4818 -0.1536  0.2794
18423TIP3    H176684   3.812   4.699  14.482  0.5441 -0.4345 -2.4203
18423TIP3    H276685   3.762   4.570  14.422  1.5294 -2.2696  0.4577
18424TIP3   OH276686   5.060   5.701  13.991 -0.0310 -0.2200 -0.3961
18424TIP3    H176687   5.018   5.780  13.958  0.8809 -0.1369 -1.4333
18424TIP3    H276688   4.993   5.633  13.985 -1.1321  0.6285  1.4073
18425TIP3   OH276689   0.271   2.251   4.872  0.0962 -0.1264 -0.2216
18425TIP3    H176690   0.234   2.279   4.956  0.0855 -1.9470  0.4420
18425TIP3    H276691   0.195   2.219   4.822  0.3269 -0.6729 -0.2265
18426TIP3   OH276692   6.416   0.770  17.041  0.2170  0.1329 -0.5811
18426TIP3    H176693   6.484   0.833  17.016  0.5456 -0.3557 -0.9353
18426TIP3    H276694   6.459   0.685  17.036 -0.3974 -0.1758 -0.7113
18427TIP3   OH276695   3.252   0.511   3.598  0.3207  0.0992  0.3366
18427TIP3    H176696   3.334   0.469   3.574  0.9064  0.5095  1.5099
18427TIP3    H276697   3.206   0.446   3.651  1.4788  1.0192  2.6370
18428TIP3   OH276698   0.346   3.873  16.378  0.4701 -0.1147 -0.2812
18428TIP3    H176699   0.302   3.824  16.448  1.1809 -0.7856 -0.2806
18428TIP3    H276700   0.290   3.948  16.362 -0.1212 -0.3846  0.4523
18429TIP3   OH276701   2.354   3.678  13.892  0.2790 -0.2461  0.7141
18429TIP3    H176702   2.430   3.670  13.834 -1.8179 -3.2798 -2.0758
18429TIP3    H276703   2.314   3.761  13.868  1.2666  0.1067  0.2312
18430TIP3   OH276704   0.160   3.968  14.229  0.0877  0.3102  0.1918
18430TIP3    H176705   0.235   4.027  14.239  0.3753 -0.1411  0.7713
18430TIP3    H276706   0.086   4.016  14.266  0.1226  0.6893 -0.2244
18431TIP3   OH276707   5.479   6.284   3.514 -0.2905  0.0433 -0.8066
18431TIP3    H176708   5.574   6.292   3.514 -0.3467  0.8184 -0.1649
18431TIP3    H276709   5.450   6.337   3.440 -0.1632 -1.4005 -1.9575
18432TIP3   OH276710   5.788   6.091  13.085  0.3710 -0.0581  0.6913
18432TIP3    H176711   5.806   6.146  13.161  1.6377 -2.8396  2.5870
18432TIP3    H276712   5.700   6.057  13.100  1.3172 -2.1137  2.0676
18433TIP3   OH276713   5.158   0.546   5.304  0.8053  0.2297  0.1217
18433TIP3    H176714   5.169   0.501   5.388 -3.5352  1.2601  1.5204
18433TIP3    H276715   5.156   0.475   5.239  3.0397 -0.6798  0.9351
18434TIP3   OH276716   2.642   2.440   3.405  0.2701 -0.0570  0.2273
18434TIP3    H176717   2.658   2.533   3.420  1.0508  0.6661 -3.8467
18434TIP3    H276718   2.716   2.395   3.446  2.1876  1.5700 -1.2530
18435TIP3   OH276719   4.985   2.861  10.838  0.8743 -0.1901  0.0987
18435TIP3    H176720   5.020   2.772  10.843  0.2641 -0.3650  2.1331
18435TIP3    H276721   5.060   2.918  10.858  0.9065 -0.3192  0.3374
18436TIP3   OH276722   4.684   5.716   4.975 -0.1361 -0.3153 -0.6327
18436TIP3    H176723   4.740   5.684   4.905  0.9037 -0.5429  0.2754
18436TIP3    H276724   4.744   5.741   5.045 -1.0953  0.7962 -0.1659
18437TIP3   OH276725   4.726   0.436  11.935  0.0229 -0.4077  0.0370
18437TIP3    H176726   4.809   0.434  11.887  0.5147 -0.8616  0.8781
18437TIP3    H276727   4.701   0.344  11.944  0.5761 -0.4277  1.6872
18438TIP3   OH276728   6.153   2.227  11.317  0.2007  0.0128 -0.2719
18438TIP3    H176729   6.106   2.204  11.236  1.4008  0.4185 -1.1063
18438TIP3    H276730   6.133   2.319  11.330  0.2013  0.0072 -0.2329
18439TIP3   OH276731   2.840   4.556  12.420  0.4421 -0.0228  0.2281
18439TIP3    H176732   2.793   4.502  12.357 -2.9093  1.1262  1.5167
18439TIP3    H276733   2.893   4.494  12.471  0.8875 -1.3071 -1.6958
18440TIP3   OH276734   6.345   3.547   5.064  0.6027  0.2547  0.3613
18440TIP3    H176735   6.379   3.578   5.148  1.9796  2.0975 -0.8150
18440TIP3    H276736   6.287   3.617   5.034 -1.1279 -1.0784  0.4386
18441TIP3   OH276737   2.151   5.479   4.556  0.0362  0.9083  0.2015
18441TIP3    H176738   2.078   5.529   4.591  0.2434  2.6317 -1.6410
18441TIP3    H276739   2.228   5.533   4.573  0.1638  1.7709 -2.5830
18442TIP3   OH276740   1.704   6.732   6.285  0.5019 -0.2596  0.4958
18442TIP3    H176741   1.645   6.781   6.227 -0.9256 -2.1412  0.2804
18442TIP3    H276742   1.777   6.792   6.300 -0.3153  1.2536 -1.1699
18443TIP3   OH276743   0.247   3.362  10.317 -0.2997  0.0150 -0.1067
18443TIP3    H176744   0.171   3.399  10.362  0.2761 -0.7485  1.5943
18443TIP3    H276745   0.243   3.268  10.338  1.8002  0.1364  1.1587
18444TIP3   OH276746   5.095   3.749   4.281 -0.2801  0.4974 -0.5400
18444TIP3    H176747   5.019   3.718   4.330 -2.4564 -0.0637 -3.9057
18444TIP3    H276748   5.165   3.688   4.303 -0.7941  0.8512  2.4330
18445TIP3   OH276749   5.516   1.800   0.882 -0.6905 -0.2984 -0.4635
18445TIP3    H176750   5.521   1.850   0.801  1.0270  2.3362  1.1124
18445TIP3    H276751   5.431   1.822   0.919 -0.1171  1.1875  0.0110
18446TIP3   OH276752   3.257   3.005  16.326  0.5793  0.3311  0.2362
18446TIP3    H176753   3.195   2.947  16.370  0.3969  1.2511  1.2208
18446TIP3    H276754   3.273   2.963  16.242 -0.4532 -0.5440  0.4553
18447TIP3   OH276755   2.811   2.050  13.413  0.3241  0.2584 -0.1265
18447TIP3    H176756   2.785   2.043  13.505 -1.2541 -0.0202 -0.5702
18447TIP3    H276757   2.761   2.125  13.380 -0.1972 -0.5001 -1.0966
18448TIP3   OH276758   1.649   2.145   5.377  0.0820  0.6961 -0.0275
18448TIP3    H176759   1.558   2.156   5.349 -0.9230 -2.4296  1.5194
18448TIP3    H276760   1.694   2.114   5.298 -1.6087 -3.2371  0.3337
18449TIP3   OH276761   3.976   0.497   2.403  0.0064  0.4731  0.1542
18449TIP3    H176762   4.023   0.514   2.485  0.4098  1.4469 -0.2585
18449TIP3    H276763   4.024   0.425   2.362 -0.6957 -0.5935  1.1435
18450TIP3   OH276764   4.939   6.050   2.077  0.1031 -0.6019  0.0513
18450TIP3    H176765   4.868   6.017   2.132 -0.8409  1.2373  0.0113
18450TIP3    H276766   5.019   6.031   2.127 -0.6416 -0.0317  1.5196
18451TIP3   OH276767   6.634   0.877   5.832  0.3022 -0.4313 -0.1521
18451TIP3    H176768   6.616   0.946   5.896  0.0011  1.2086 -1.9021
18451TIP3    H276769   6.568   0.811   5.849 -1.9474  1.4952 -0.8193
18452TIP3   OH276770   5.089   5.873  13.192  0.5306  0.5939  0.2599
18452TIP3    H176771   5.010   5.913  13.157 -0.0241  0.2459  1.0746
18452TIP3    H276772   5.058   5.794  13.238  1.3620  0.3578  0.4378
18453TIP3   OH276773   2.149   3.978  11.443 -0.1698 -0.1775  0.0075
18453TIP3    H176774   2.238   4.012  11.450  0.4533 -1.5241 -0.9715
18453TIP3    H276775   2.111   3.994  11.530  1.6950 -1.3352  1.1144
18454TIP3   OH276776   1.958   1.955  12.094  0.4116 -0.4297  0.8425
18454TIP3    H176777   1.873   1.962  12.050  0.1099 -0.1015  1.4664
18454TIP3    H276778   2.018   2.003  12.036  0.3082 -1.2145  0.0708
18455TIP3   OH276779   3.129   1.399   4.901 -0.1739  0.0239  0.3260
18455TIP3    H176780   3.056   1.374   4.958 -0.3736  0.3585  0.2227
18455TIP3    H276781   3.206   1.394   4.956 -0.3762  0.4265  0.6542
18456TIP3   OH276782   6.411   0.231   4.466  0.3276 -0.0146 -0.0675
18456TIP3    H176783   6.406   0.312   4.516  0.7880  1.3083 -2.0493
18456TIP3    H276784   6.469   0.175   4.517  2.1388  1.8941  0.1008
18457TIP3   OH276785   3.971   4.557   2.439 -0.3287  0.2012 -0.0976
18457TIP3    H176786   3.940   4.595   2.521  0.6576  0.2226  0.2800
18457TIP3    H276787   3.973   4.630   2.377 -1.3077  0.1366 -0.2232
18458TIP3   OH276788   1.383   5.261   1.019 -0.6513 -0.0442  0.5481
18458TIP3    H176789   1.330   5.322   0.967 -1.3107 -0.3337  0.8735
18458TIP3    H276790   1.327   5.185   1.031  0.2318 -0.8068 -0.0074
18459TIP3   OH276791   4.477   3.099  15.863  0.1522 -0.2068 -0.3685
18459TIP3    H176792   4.562   3.059  15.844  0.2439 -0.9935  1.4189
18459TIP3    H276793   4.415   3.027  15.855 -0.0101 -0.1844  0.5780
18460TIP3   OH276794   4.571   1.114   2.034  0.4100  0.3410  0.2408
18460TIP3    H176795   4.570   1.021   2.058 -0.3227 -0.5391 -2.7656
18460TIP3    H276796   4.523   1.118   1.951 -0.2678  3.5649  0.6614
18461TIP3   OH276797   3.573   2.062  15.793  0.1815 -0.1601 -0.4301
18461TIP3    H176798   3.634   2.052  15.720 -0.3240 -1.0627 -0.7423
18461TIP3    H276799   3.527   2.144  15.775  0.7378  0.1116 -0.6170
18462TIP3   OH276800   3.009   5.702   0.449 -0.1551  0.0368  0.5509
18462TIP3    H176801   3.076   5.679   0.513  0.0275 -0.6582  0.1137
18462TIP3    H276802   3.050   5.770   0.395 -0.8927  1.9254  2.1981
18463TIP3   OH276803   2.929   1.216  11.657  0.3493 -0.3591  0.1124
18463TIP3    H176804   2.867   1.151  11.627 -0.4547  0.6509 -0.4881
18463TIP3    H276805   2.878   1.297  11.662  0.7098 -0.2124  3.1172
18464TIP3   OH276806   3.478   3.175  15.168  0.0528 -0.4718  0.1525
18464TIP3    H176807   3.534   3.251  15.152  0.6424 -0.9008  0.1651
18464TIP3    H276808   3.393   3.213  15.189  0.1816  0.1734 -0.4551
18465TIP3   OH276809   0.899   5.218   5.868 -0.0096  0.9019 -0.0360
18465TIP3    H176810   0.937   5.131   5.859  3.1561  2.1216  0.2290
18465TIP3    H276811   0.910   5.240   5.960  1.7377  2.5515 -0.5731
18466TIP3   OH276812   0.860   5.020  15.260  0.4555  0.1320  0.6055
18466TIP3    H176813   0.867   5.029  15.355  1.6916 -0.3793  0.5793
18466TIP3    H276814   0.778   4.971  15.248 -0.7060  1.8288  1.2735
18467TIP3   OH276815   6.203   5.686  15.401  0.0384 -0.1335 -0.2614
18467TIP3    H176816   6.257   5.739  15.461 -3.0035  2.1652  0.7403
18467TIP3    H276817   6.130   5.657  15.455 -0.0765 -2.6623 -1.6675
18468TIP3   OH276818   1.774   2.797   5.859 -0.3556  0.0472  0.2649
18468TIP3    H176819   1.790   2.871   5.918  1.7594  0.2113 -0.4564
18468TIP3    H276820   1.860   2.775   5.823 -1.1048 -2.0777 -0.3765
18469TIP3   OH276821   2.859   2.130   2.167  0.5285 -0.1140  0.8663
18469TIP3    H176822   2.902   2.210   2.138  0.5635 -0.4394  0.0055
18469TIP3    H276823   2.792   2.113   2.100  1.4520 -1.5765  0.2586
18470TIP3   OH276824   0.602   2.079  14.629 -0.3362 -0.3797 -0.9062
18470TIP3    H176825   0.679   2.117  14.588  1.4250 -0.1722  2.2460
18470TIP3    H276826   0.607   1.986  14.611  1.2434 -0.5041  0.0697
18471TIP3   OH276827   0.714   2.456  17.053 -0.3859 -0.1302  0.1862
18471TIP3    H176828   0.688   2.530  17.107 -2.9820 -0.6883 -0.1899
18471TIP3    H276829   0.744   2.495  16.971  1.1646  0.5902  1.0473
18472TIP3   OH276830   0.104   5.730  11.433  0.5818 -1.0037 -0.3614
18472TIP3    H176831   0.104   5.634  11.423  0.3441 -1.0655  0.1996
18472TIP3    H276832   0.195   5.752  11.453  0.7876 -1.0260 -1.2115
18473TIP3   OH276833   2.189   0.198   4.711 -0.1847  0.7586  0.7591
18473TIP3    H176834   2.160   0.137   4.778 -0.5599  1.3786  1.1710
18473TIP3    H276835   2.265   0.241   4.750  1.0921 -0.5778 -0.1600
18474TIP3   OH276836   2.562   5.818   4.449  0.2609 -0.3951  0.0878
18474TIP3    H176837   2.573   5.904   4.488 -0.0649 -0.0751 -0.5126
18474TIP3    H276838   2.650   5.780   4.449  0.5839  0.3276 -0.5270
18475TIP3   OH276839   5.062   3.057  15.003 -0.0801  0.2545 -0.4479
18475TIP3    H176840   5.021   3.095  14.926 -0.9580 -0.6349 -0.4314
18475TIP3    H276841   5.092   3.133  15.054 -2.5282  1.0178  0.0004
18476TIP3   OH276842   1.882   3.549   1.154  0.0593  0.4022  0.1101
18476TIP3    H176843   1.903   3.605   1.229 -2.3675  1.1866  0.2998
18476TIP3    H276844   1.843   3.609   1.090  1.3770 -0.3907 -1.5039
18477TIP3   OH276845   1.598   3.146   4.113  0.7615 -0.1690 -0.0239
18477TIP3    H176846   1.607   3.126   4.206 -0.5589 -0.9768 -0.0343
18477TIP3    H276847   1.658   3.219   4.097 -0.8528  1.7325  2.0199
18478TIP3   OH276848   6.563   5.348   2.063  0.3510  0.4280 -0.6573
18478TIP3    H176849   6.513   5.306   2.133  0.5975  0.3468 -0.5290
18478TIP3    H276850   6.645   5.299   2.060 -0.1680 -0.4080 -1.8678
18479TIP3   OH276851   2.992   3.852   5.403 -0.0117  0.4461  0.0519
18479TIP3    H176852   2.923   3.787   5.392  0.7335 -0.6629  1.4671
18479TIP3    H276853   2.972   3.895   5.486  0.5933  0.6157  0.1149
18480TIP3   OH276854   3.246   3.250   3.627 -0.2087 -0.0513  0.6639
18480TIP3    H176855   3.299   3.188   3.676  0.6702  0.0822 -0.0751
18480TIP3    H276856   3.213   3.312   3.693  0.3714 -0.2720  1.1650
18481TIP3   OH276857   4.598   2.863   2.131 -0.2100 -0.4398 -0.2600
18481TIP3    H176858   4.524   2.816   2.093  0.6281 -0.9172 -1.3609
18481TIP3    H276859   4.580   2.955   2.113 -1.1973 -0.4116  0.7219
18482TIP3   OH276860   0.979   0.221   0.210  0.9266  0.7203  0.1264
18482TIP3    H176861   0.901   0.184   0.252  1.2770 -1.2080 -0.8371
18482TIP3    H276862   0.980   0.182   0.122  4.2731 -1.2608  0.8763
18483TIP3   OH276863   2.261   0.215   4.004 -0.0028  0.2578  0.5540
18483TIP3    H176864   2.182   0.172   3.973  0.0267  0.0492  0.7715
18483TIP3    H276865   2.234   0.305   4.022  0.1364  0.5926 -0.7777
18484TIP3   OH276866   0.344   4.857   2.304  0.2491 -0.2564  0.4199
18484TIP3    H176867   0.387   4.934   2.268 -2.1711  1.2898  0.6449
18484TIP3    H276868   0.361   4.862   2.398  2.4046 -1.5753  0.1498
18485TIP3   OH276869   4.314   4.884   4.761  0.2536  0.1554  0.2258
18485TIP3    H176870   4.369   4.881   4.682  0.4230 -0.0894  0.3501
18485TIP3    H276871   4.369   4.845   4.829 -0.2881 -0.6447  0.2228
18486TIP3   OH276872   2.749   5.154   5.228  0.3653  0.0230 -0.4271
18486TIP3    H176873   2.714   5.212   5.294  1.4066 -2.0307  2.0998
18486TIP3    H276874   2.676   5.095   5.206  0.6354 -0.7495  0.6781
18487TIP3   OH276875   3.392   4.255   1.924  0.4592  0.1293  0.8600
18487TIP3    H176876   3.335   4.286   1.853  1.1408  0.8942  0.6424
18487TIP3    H276877   3.352   4.290   2.003 -0.1267 -0.4646  0.8391
18488TIP3   OH276878   2.031   2.053   0.768 -0.4980  0.2412  0.5963
18488TIP3    H176879   1.938   2.058   0.788 -0.6611  0.0086 -0.0882
18488TIP3    H276880   2.070   2.010   0.844 -1.0115 -0.0237  0.7114
18489TIP3   OH276881   2.109   0.664  13.810  0.1109  0.4777  0.2942
18489TIP3    H176882   2.039   0.632  13.867  1.1145  0.3069  1.4866
18489TIP3    H276883   2.064   0.693  13.730 -1.1220 -1.3458  0.2600
18490TIP3   OH276884   2.417   0.504   3.513  0.7110  0.0439 -0.1427
18490TIP3    H176885   2.348   0.450   3.552  2.4898 -0.1634  3.0816
18490TIP3    H276886   2.373   0.587   3.493 -1.1399 -1.1339 -1.3549
18491TIP3   OH276887   0.894   1.292   0.026  0.8688  0.1244  0.2934
18491TIP3    H176888   0.938   1.311   0.109 -0.7770  0.1690  1.2185
18491TIP3    H276889   0.816   1.349   0.027  0.4670 -0.3660 -0.9667
18492TIP3   OH276890   3.416   3.943   1.943 -0.4032  0.8902  0.6589
18492TIP3    H176891   3.511   3.952   1.932 -0.5303  1.1104 -0.3365
18492TIP3    H276892   3.403   3.949   2.038  0.4715  1.9780  0.7413
18493TIP3   OH276893   2.143   2.783  13.487  0.5500  0.0985 -0.3699
18493TIP3    H176894   2.069   2.723  13.493  0.1456  0.7025  1.2043
18493TIP3    H276895   2.106   2.864  13.452  0.5726  0.2256 -0.1024
18494TIP3   OH276896   0.848   5.729   5.578  0.2324  0.2644  0.4260
18494TIP3    H176897   0.756   5.720   5.604 -0.1586  2.5339  0.0180
18494TIP3    H276898   0.889   5.647   5.607 -1.4088  0.1562  2.6826
18495TIP3   OH276899   4.599   1.850  10.836  0.4384 -0.1089  0.1792
18495TIP3    H176900   4.628   1.941  10.833  0.3443 -0.1078 -1.7268
18495TIP3    H276901   4.511   1.851  10.797 -0.1184 -0.8334  1.3747
18496TIP3   OH276902   1.828   3.707  15.516 -0.3453  0.6692  0.1587
18496TIP3    H176903   1.844   3.786  15.567  0.8958  1.4719 -1.3753
18496TIP3    H276904   1.753   3.728  15.460  0.3192  1.0072 -0.6390
18497TIP3   OH276905   0.334   4.597   2.393  0.0750 -0.7133  0.1721
18497TIP3    H176906   0.339   4.652   2.315  1.4012 -1.8226 -0.5726
18497TIP3    H276907   0.240   4.584   2.407 -0.2346  0.8438 -0.2312
18498TIP3   OH276908   3.154   5.487   3.272  0.0812  0.4830 -0.3652
18498TIP3    H176909   3.204   5.491   3.191  0.4460  0.2414 -0.1533
18498TIP3    H276910   3.096   5.412   3.261  0.3250  0.2867 -0.2863
18499TIP3   OH276911   1.995   0.190   0.812 -0.2580 -0.1557  0.3686
18499TIP3    H176912   1.971   0.168   0.902 -1.1659  1.3952  0.5474
18499TIP3    H276913   1.971   0.112   0.762 -2.0714 -0.1468  1.1326
18500TIP3   OH276914   3.875   3.190  12.745  1.3925 -0.2882  0.1081
18500TIP3    H176915   3.782   3.171  12.755  1.0284  1.3247  0.1503
18500TIP3    H276916   3.919   3.106  12.760 -0.0309 -1.0307  0.3076
18501TIP3   OH276917   1.392   3.768  11.535 -0.2915 -0.0076 -0.0533
18501TIP3    H176918   1.458   3.825  11.495 -2.0808  1.8448 -0.5558
18501TIP3    H276919   1.311   3.818  11.529 -1.9416 -2.5118 -0.2028
18502TIP3   OH276920   3.803   1.949   1.125  0.5238  0.2223 -0.4924
18502TIP3    H176921   3.821   2.040   1.148  1.6276  0.0613 -0.6999
18502TIP3    H276922   3.781   1.951   1.032 -1.9857  0.6015  0.0449
18503TIP3   OH276923   4.936   5.961   3.131 -0.3363 -0.0458  0.7928
18503TIP3    H176924   4.995   6.035   3.122 -1.1843  0.8733  2.3013
18503TIP3    H276925   4.908   5.941   3.041  0.1688  1.2383  0.3303
18504TIP3   OH276926   0.329   5.804  12.771  0.2300 -0.2825 -0.2821
18504TIP3    H176927   0.250   5.751  12.778  0.4185 -0.3691  2.2693
18504TIP3    H276928   0.297   5.893  12.757 -0.1825 -0.6309 -1.7408
18505TIP3   OH276929   4.349   4.310  15.062 -0.4604  0.1957 -0.3627
18505TIP3    H176930   4.359   4.385  15.122 -0.5038  0.6212 -0.8768
18505TIP3    H276931   4.415   4.247  15.091 -0.5425  0.3553  0.1913
18506TIP3   OH276932   4.777   4.809   1.845 -0.2700 -0.0010  0.3862
18506TIP3    H176933   4.863   4.804   1.804 -0.7491  1.2868 -0.8501
18506TIP3    H276934   4.777   4.892   1.892 -1.6138  1.2201 -1.6119
18507TIP3   OH276935   6.664   4.993  16.914  0.3104  1.1126 -0.0510
18507TIP3    H176936   6.658   4.898  16.906  2.3717  0.8793  0.5694
18507TIP3    H276937   6.602   5.015  16.984  0.9735 -0.0034  0.9304
18508TIP3   OH276938   0.228   3.129   5.997 -0.9524  0.1148 -0.2892
18508TIP3    H176939   0.150   3.126   6.052 -0.8718 -0.5941 -0.1936
18508TIP3    H276940   0.299   3.099   6.054 -0.3815  1.8566 -0.0403
18509TIP3   OH276941   2.096   6.098  12.695 -0.2318 -0.1529  0.2622
18509TIP3    H176942   2.042   6.046  12.755  2.4706 -3.3597  0.1930
18509TIP3    H276943   2.184   6.094  12.733  0.7693  1.3868 -1.7052
18510TIP3   OH276944   0.925   3.176  15.768 -0.1854 -0.1831  0.3907
18510TIP3    H176945   1.013   3.138  15.765 -0.4080 -0.8099  1.3784
18510TIP3    H276946   0.918   3.225  15.686  1.8401  1.6023  1.1669
18511TIP3   OH276947   5.863   5.100  17.189  0.1917 -0.2824  0.2481
18511TIP3    H176948   5.874   5.069  17.279 -0.6566 -0.5580  0.2628
18511TIP3    H276949   5.908   5.034  17.136  1.3218  0.2622  0.5081
18512TIP3   OH276950   3.104   6.015  12.263  0.6048 -0.3281 -0.0026
18512TIP3    H176951   3.140   6.083  12.207  0.9976  1.5883  2.4135
18512TIP3    H276952   3.111   5.935  12.211 -0.3587  1.4697 -3.1981
18513TIP3   OH276953   0.163   1.725  12.614  0.9263  0.3096 -0.2725
18513TIP3    H176954   0.199   1.787  12.677 -0.4364  2.3006 -1.3309
18513TIP3    H276955   0.078   1.700  12.650  0.6846  0.4921 -0.7007
18514TIP3   OH276956   0.597   0.571   1.742  0.2899 -0.2660 -0.6052
18514TIP3    H176957   0.653   0.510   1.696 -0.5182 -0.5119 -1.2984
18514TIP3    H276958   0.544   0.517   1.800 -0.4055 -0.2341 -1.1967
18515TIP3   OH276959   0.697   6.096   0.251  0.1563  0.1556 -0.1839
18515TIP3    H176960   0.607   6.091   0.284  0.1615 -2.9498 -0.2957
18515TIP3    H276961   0.750   6.055   0.320  1.1483 -0.1209 -1.0803
18516TIP3   OH276962   0.321   0.006   4.443  0.2370 -0.4101  0.2555
18516TIP3    H176963   0.293  -0.064   4.501  1.8537 -0.8707  0.5370
18516TIP3    H276964   0.362   0.070   4.501  0.3025 -0.0399 -0.1927
18517TIP3   OH276965   1.121   2.282   5.839  0.3706 -0.9531  0.5687
18517TIP3    H176966   1.147   2.232   5.916  0.1727 -0.2637  1.0939
18517TIP3    H276967   1.027   2.267   5.831  0.5630 -1.8537 -0.1593
18518TIP3   OH276968   0.177   0.134   5.753 -0.0473  0.8115 -0.4658
18518TIP3    H176969   0.134   0.089   5.681  0.8225 -0.1084 -0.4326
18518TIP3    H276970   0.243   0.190   5.711  1.3858 -0.7257 -0.3743
18519TIP3   OH276971   0.157   4.174   0.136 -0.2932 -0.2864  0.1617
18519TIP3    H176972   0.133   4.109   0.069 -0.1722  0.2050 -0.3704
18519TIP3    H276973   0.111   4.253   0.109 -0.2695 -0.0944  0.6877
18520TIP3   OH276974   0.374   6.705   5.462  0.1219  0.3383  0.0970
18520TIP3    H176975   0.448   6.745   5.507 -0.7277 -0.3813  2.2598
18520TIP3    H276976   0.402   6.698   5.371  1.9566  1.8080  0.4918
18521TIP3   OH276977   3.461   4.825  12.708 -0.0407  0.2985 -0.0719
18521TIP3    H176978   3.516   4.769  12.762  1.5800 -1.5317 -3.3223
18521TIP3    H276979   3.501   4.912  12.714 -0.0198  0.1856  1.7257
18522TIP3   OH276980   1.813   2.664  15.435  0.4403 -0.6821  0.5078
18522TIP3    H176981   1.792   2.756  15.452  1.5731 -0.1952 -0.6127
18522TIP3    H276982   1.813   2.624  15.522 -2.1604 -0.1323  0.8686
18523TIP3   OH276983   6.372   6.463  14.205 -0.3519 -0.0109 -0.3699
18523TIP3    H176984   6.309   6.400  14.241 -0.1361  0.1685  0.3385
18523TIP3    H276985   6.410   6.418  14.130 -0.8764 -0.3653 -0.4249
18524TIP3   OH276986   6.531   1.214   5.109  0.5901 -0.2907 -0.7532
18524TIP3    H176987   6.587   1.211   5.032  1.2792  0.2473 -0.2765
18524TIP3    H276988   6.546   1.300   5.147 -0.3472 -0.2456 -0.4574
18525TIP3   OH276989   5.983   2.796   4.781  0.1863  0.3442  1.1512
18525TIP3    H176990   5.983   2.867   4.716 -0.4004 -0.9226 -0.2997
18525TIP3    H276991   5.902   2.809   4.830 -1.1043 -0.5942 -0.6304
18526TIP3   OH276992   2.424   5.218  11.578  0.3359 -0.1114  0.2115
18526TIP3    H176993   2.470   5.172  11.508  1.7325 -1.0952  1.7046
18526TIP3    H276994   2.488   5.280  11.612 -0.6742  1.1087 -0.0379
18527TIP3   OH276995   0.092   2.811   6.126  0.1636 -0.3842  0.3734
18527TIP3    H176996   0.089   2.747   6.198 -1.4576  0.9624  1.6036
18527TIP3    H276997   0.049   2.889   6.162  0.8474  0.9404 -1.5207
18528TIP3   OH276998   3.441   3.342   4.742  0.4656  0.3446  0.2222
18528TIP3    H176999   3.475   3.262   4.703  0.5734 -0.0159  1.0413
18528TIP3    H277000   3.470   3.339   4.833 -0.0146  1.0375  0.4066
18529TIP3   OH277001   6.660   4.070   0.977  0.7093 -0.5600  0.6624
18529TIP3    H177002   6.722   4.036   1.042  1.4689  1.0903  0.8493
18529TIP3    H277003   6.714   4.122   0.917 -0.0814 -1.4953 -0.9341
18530TIP3   OH277004   5.843   3.850  17.300  0.4061 -0.1041  0.0622
18530TIP3    H177005   5.778   3.794  17.342 -0.7379  0.9247 -0.2980
18530TIP3    H277006   5.907   3.789  17.264 -0.8442 -1.1889 -0.4015
18531TIP3   OH277007   0.294   6.197   3.208 -0.2075 -0.4091  0.0261
18531TIP3    H177008   0.335   6.240   3.133  1.2651 -1.7227  0.0165
18531TIP3    H277009   0.209   6.169   3.176 -0.2225  0.3859 -0.6782
18532TIP3   OH277010   3.649   6.163  16.116 -0.6371 -0.6317 -0.2789
18532TIP3    H177011   3.745   6.163  16.122 -0.5498 -1.3634 -1.4226
18532TIP3    H277012   3.625   6.256  16.111  0.0963 -0.4712 -1.0699
18533TIP3   OH277013   1.562   2.903   4.374 -0.2707 -0.3845  0.4222
18533TIP3    H177014   1.596   2.827   4.422 -0.7683 -0.2405  1.0014
18533TIP3    H277015   1.548   2.970   4.440 -1.0189 -0.2028  0.0908
18534TIP3   OH277016   5.641   5.721   5.783  0.6197 -0.4038 -0.2294
18534TIP3    H177017   5.572   5.662   5.751  0.2041 -1.4166  2.2309
18534TIP3    H277018   5.594   5.783   5.839  1.7174 -1.9592  2.6161
18535TIP3   OH277019   2.795   2.941   4.886 -0.0376  0.0234 -0.4183
18535TIP3    H177020   2.891   2.941   4.891  0.0942  0.6821 -2.2023
18535TIP3    H277021   2.772   3.032   4.868 -1.2197  0.3847  2.4012
18536TIP3   OH277022   6.632   5.093   0.707  0.0179  0.0346 -0.1906
18536TIP3    H177023   6.674   5.140   0.635  0.4509  1.0014  0.6729
18536TIP3    H277024   6.563   5.041   0.665 -0.1173  1.0160 -1.2281
18537TIP3   OH277025   4.001   1.720   3.715 -0.4032  0.0024 -0.1336
18537TIP3    H177026   3.919   1.683   3.746 -0.8899  0.2128 -1.1293
18537TIP3    H277027   4.026   1.783   3.783 -0.5527 -0.7574  0.6392
18538TIP3   OH277028   6.558   5.430  16.914  0.3361  0.0905 -0.3053
18538TIP3    H177029   6.597   5.394  16.994  2.3399  0.1734 -1.1888
18538TIP3    H277030   6.532   5.353  16.864 -0.5289  0.0290  0.2206
18539TIP3   OH277031   0.118   2.355   0.065 -1.0970 -0.1544  0.7858
18539TIP3    H177032   0.202   2.344   0.110 -0.8085  0.2748  0.3631
18539TIP3    H277033   0.129   2.309  -0.017 -1.2254  0.0217  0.6710
18540TIP3   OH277034   0.787   2.770  16.091  0.1715 -0.1508 -0.4560
18540TIP3    H177035   0.820   2.833  16.027  0.3621 -0.9801 -1.1936
18540TIP3    H277036   0.710   2.812  16.128 -1.4084 -0.5828 -2.9668
18541TIP3   OH277037   2.305   1.059   0.247  0.0062 -0.2045  0.4225
18541TIP3    H177038   2.309   1.041   0.153  0.6407 -1.6099  0.6948
18541TIP3    H277039   2.395   1.080   0.272 -0.1123 -0.0950  0.7621
18542TIP3   OH277040   2.391   3.552  11.397  0.0267  0.1113  0.4017
18542TIP3    H177041   2.372   3.616  11.466  0.4984 -0.7174  1.3278
18542TIP3    H277042   2.459   3.593  11.344 -1.8581  1.7119 -0.9621
18543TIP3   OH277043   2.135   1.882   0.950  0.0422  0.2735 -0.3533
18543TIP3    H177044   2.137   1.808   1.011 -1.6562  0.5200  0.0497
18543TIP3    H277045   2.093   1.847   0.872 -1.3540  0.9126  0.0623
18544TIP3   OH277046   1.731   3.513   2.230  0.4808 -0.2332 -0.4590
18544TIP3    H177047   1.812   3.563   2.219  1.2900 -1.1704  1.0299
18544TIP3    H277048   1.758   3.429   2.267 -1.2598 -0.1745  1.0906
18545TIP3   OH277049   2.805   5.358   0.254  0.5499 -0.0158 -0.4105
18545TIP3    H177050   2.729   5.386   0.202 -0.2541 -0.7385  0.3472
18545TIP3    H277051   2.850   5.294   0.199  0.3029  0.0194 -0.6542
18546TIP3   OH277052   5.362   2.131  13.208 -0.0483  0.0029 -0.1408
18546TIP3    H177053   5.313   2.213  13.209 -0.7593 -0.4176  0.9442
18546TIP3    H277054   5.430   2.143  13.275 -0.5225 -0.5079  0.4367
18547TIP3   OH277055   1.851   5.968   3.693  0.0479  0.2324 -0.3668
18547TIP3    H177056   1.857   5.965   3.789  0.4656 -0.2008 -0.4008
18547TIP3    H277057   1.887   6.054   3.670 -1.1558  0.8381 -0.0703
18548TIP3   OH277058   0.520   2.752  16.214  0.3921 -0.4657  0.1800
18548TIP3    H177059   0.595   2.694  16.230 -0.1334 -1.4373 -0.7910
18548TIP3    H277060   0.472   2.711  16.142 -0.3206  0.8778 -0.1463
18549TIP3   OH277061   0.844   2.214  14.829  0.4236 -0.0376  0.5430
18549TIP3    H177062   0.794   2.296  14.834  0.1100 -0.0816 -1.0820
18549TIP3    H277063   0.876   2.212  14.739  0.2211 -1.8138  0.4791
18550TIP3   OH277064   4.322   3.460   2.778 -0.4634 -0.0745  0.3964
18550TIP3    H177065   4.293   3.370   2.764 -1.0500  0.0891  0.4933
18550TIP3    H277066   4.240   3.510   2.786 -0.1471  0.4870  0.1992
18551TIP3   OH277067   3.462   3.162  14.087  0.5649  0.0704  0.5008
18551TIP3    H177068   3.526   3.233  14.088 -0.8554  1.3849  1.6340
18551TIP3    H277069   3.377   3.206  14.093 -0.5058 -1.6031 -1.1750
18552TIP3   OH277070   1.755   1.741   1.567 -0.7935 -0.4449  0.1939
18552TIP3    H177071   1.781   1.743   1.659  0.6211 -0.5500 -0.1820
18552TIP3    H277072   1.768   1.650   1.540  2.7170  0.3094 -1.1269
18553TIP3   OH277073   2.958   5.044   0.923  0.1999 -0.9241  0.3740
18553TIP3    H177074   2.965   4.996   0.841 -0.4927 -0.5227  0.0696
18553TIP3    H277075   3.034   5.103   0.922  1.1485 -2.1105  0.8347
18554TIP3   OH277076   5.183   2.943  14.078 -0.4348 -0.0996  0.2058
18554TIP3    H177077   5.093   2.909  14.071 -1.0608  1.3733  0.7665
18554TIP3    H277078   5.212   2.951  13.987 -1.8060  1.7413 -0.1343
18555TIP3   OH277079   4.854   1.570   5.085  0.4677  0.1160 -0.0065
18555TIP3    H177080   4.930   1.613   5.122  0.2243 -0.0428  0.7011
18555TIP3    H277081   4.843   1.490   5.138 -0.2153  0.1632 -0.0585
18556TIP3   OH277082   1.199   0.473  16.288  0.1143  0.1397 -0.3979
18556TIP3    H177083   1.227   0.384  16.309 -0.6578  0.0772  0.4175
18556TIP3    H277084   1.127   0.461  16.226  1.0347  0.2625 -1.5298
18557TIP3   OH277085   6.570   2.546  16.960 -0.1840  0.5465  0.5652
18557TIP3    H177086   6.487   2.593  16.963 -0.7048 -0.3634  0.7369
18557TIP3    H277087   6.636   2.612  16.982 -0.8034  1.3845 -0.0216
18558TIP3   OH277088   2.903   3.413  14.734 -0.0891  0.2526 -0.0435
18558TIP3    H177089   2.870   3.444  14.650  1.8827  0.6877 -0.7165
18558TIP3    H277090   2.984   3.463  14.748  1.2258 -1.9263  0.6450
18559TIP3   OH277091   2.445   4.563  17.133  0.2134  0.6423 -0.1668
18559TIP3    H177092   2.465   4.548  17.225 -1.0541 -2.2104 -0.2465
18559TIP3    H277093   2.352   4.584  17.132 -0.4513 -1.9896 -0.9033
18560TIP3   OH277094   5.481   5.470   5.948 -0.6554 -0.0129  0.3098
18560TIP3    H177095   5.536   5.395   5.927 -0.5863  0.1859 -0.2222
18560TIP3    H277096   5.424   5.481   5.872 -0.8818  0.2843  0.5147
18561TIP3   OH277097   6.182   4.467   2.802  0.4393  0.0431 -0.4927
18561TIP3    H177098   6.197   4.375   2.823 -0.0457  0.1597  0.4421
18561TIP3    H277099   6.180   4.510   2.887  1.0578  0.9895 -0.9399
18562TIP3   OH277100   3.261   3.410   5.153  0.1062 -0.0197  0.1503
18562TIP3    H177101   3.340   3.441   5.109 -0.0547 -0.4789 -0.4772
18562TIP3    H277102   3.210   3.368   5.084  0.0810 -1.1959  0.8612
18563TIP3   OH277103   6.030   3.307  14.106 -0.1350  0.2969  0.2363
18563TIP3    H177104   6.047   3.217  14.079  0.7911  0.2733  0.8437
18563TIP3    H277105   5.986   3.347  14.030 -3.3723 -1.4360  0.9919
18564TIP3   OH277106   0.684   2.721   2.900 -0.0639 -0.0037 -0.1585
18564TIP3    H177107   0.739   2.797   2.882  1.2418 -0.8013  0.2755
18564TIP3    H277108   0.595   2.750   2.880  0.2548  1.9796  1.0236
18565TIP3   OH277109   5.182   5.952  16.090  0.3267 -0.1261 -0.0411
18565TIP3    H177110   5.096   5.933  16.127  0.3126  0.7437  0.3968
18565TIP3    H277111   5.212   6.030  16.137  2.4913 -1.8381  1.7040
18566TIP3   OH277112   5.413   1.756   4.133  0.1598  0.4263 -0.2537
18566TIP3    H177113   5.355   1.779   4.205 -2.6605  0.5798 -2.3817
18566TIP3    H277114   5.477   1.696   4.171 -0.2055  1.7382  2.6473
18567TIP3   OH277115   3.302   1.441   1.458 -0.3972  0.3598  0.5665
18567TIP3    H177116   3.290   1.358   1.412 -0.8817  0.9148 -0.3347
18567TIP3    H277117   3.281   1.421   1.549 -1.9409 -0.2044  0.1305
18568TIP3   OH277118   2.414   1.972   0.903  0.2403  0.3113 -0.2459
18568TIP3    H177119   2.475   2.034   0.941  1.5908 -0.1117 -1.6104
18568TIP3    H277120   2.347   1.959   0.970  0.6876  2.1259  0.6117
18569TIP3   OH277121   4.120   1.367  12.991 -0.4871 -0.6581 -0.0987
18569TIP3    H177122   4.194   1.336  13.043 -1.0615 -1.5330  0.2246
18569TIP3    H277123   4.089   1.446  13.036  1.7002  1.1498 -1.5500
18570TIP3   OH277124   2.624   2.972  11.099  0.1707 -0.1838 -0.0605
18570TIP3    H177125   2.541   3.017  11.088  0.6540  0.9863  0.8468
18570TIP3    H277126   2.600   2.885  11.132 -0.6546  0.8370  2.2526
18571TIP3   OH277127   2.461   4.700  14.542 -0.4182 -0.6271 -0.9322
18571TIP3    H177128   2.508   4.687  14.460  0.3716 -2.9779 -0.1738
18571TIP3    H277129   2.464   4.615  14.586  0.1300  0.7945  2.0521
18572TIP3   OH277130   1.114   2.092  15.429  0.3684 -0.4432  0.0554
18572TIP3    H177131   1.157   2.055  15.506  1.6540  0.6515 -0.1115
18572TIP3    H277132   1.130   2.186  15.435  0.0653 -0.2836 -1.2939
18573TIP3   OH277133   1.973   1.983   3.721 -0.1899 -0.3221  0.2225
18573TIP3    H177134   1.914   1.972   3.795 -1.9856 -0.5564 -1.1672
18573TIP3    H277135   2.040   1.915   3.734 -2.1672 -2.4328  0.1078
18574TIP3   OH277136   2.886   6.370  13.529 -0.5292 -0.5204  0.5419
18574TIP3    H177137   2.838   6.411  13.457  1.5016 -1.4159 -1.4198
18574TIP3    H277138   2.830   6.385  13.606 -2.9440  0.2078 -1.2208
18575TIP3   OH277139   3.532   0.335  14.914  0.4660 -0.2954  1.0704
18575TIP3    H177140   3.590   0.354  14.988  1.2040  0.3904  0.3179
18575TIP3    H277141   3.493   0.250  14.937 -0.1908  0.4169  2.7823
18576TIP3   OH277142   0.790   3.596  16.523  0.1480 -0.1076 -0.0615
18576TIP3    H177143   0.721   3.661  16.538 -1.1086 -1.3498 -0.2477
18576TIP3    H277144   0.835   3.626  16.444 -1.4141 -0.2379 -1.0502
18577TIP3   OH277145   2.822   3.661   2.852  0.1685  0.2490  0.5473
18577TIP3    H177146   2.732   3.637   2.875 -0.7474  1.0654 -1.7957
18577TIP3    H277147   2.860   3.580   2.819  0.0138  0.0800  0.7790
18578TIP3   OH277148   5.826   6.444   2.425  0.3305  0.2585  0.2337
18578TIP3    H177149   5.898   6.388   2.456 -0.7957 -2.2472 -1.3405
18578TIP3    H277150   5.764   6.444   2.497  0.2671 -0.7194  0.1960
18579TIP3   OH277151   5.457   6.239  16.974 -0.5262  0.0921 -0.1166
18579TIP3    H177152   5.423   6.234  16.884  1.7135 -0.4422 -1.0110
18579TIP3    H277153   5.502   6.323  16.978 -1.3636  0.5177  0.8394
18580TIP3   OH277154   1.702   0.377   5.914 -0.1295  0.0463 -0.0944
18580TIP3    H177155   1.796   0.364   5.896 -0.4684 -0.0956 -1.9615
18580TIP3    H277156   1.667   0.414   5.833 -1.6712  0.2476  0.6319
18581TIP3   OH277157   6.628   6.069   5.140  0.3643  0.0265  0.1815
18581TIP3    H177158   6.576   6.054   5.220 -0.2824  0.8229 -0.0729
18581TIP3    H277159   6.714   6.034   5.161  0.9999  2.4995  2.2032
18582TIP3   OH277160   2.988   5.464   6.580 -0.3500  0.6868 -0.0132
18582TIP3    H177161   3.039   5.480   6.501 -0.0553 -0.8906 -0.1733
18582TIP3    H277162   2.933   5.542   6.589  2.0590  2.4778  0.1997
18583TIP3   OH277163   2.590   6.557  12.566  0.5845  0.1702 -0.3385
18583TIP3    H177164   2.567   6.578  12.475  3.2828 -2.5915 -1.8694
18583TIP3    H277165   2.525   6.492  12.592  0.0702  0.6287 -0.4594
18584TIP3   OH277166   1.649   1.948   2.536 -0.0107  0.3131  0.4619
18584TIP3    H177167   1.694   2.018   2.584 -0.6443  0.5774  0.6852
18584TIP3    H277168   1.589   1.994   2.477 -0.5794 -0.0460  0.7538
18585TIP3   OH277169   3.726   0.486  17.101 -0.6499 -0.2712 -0.1327
18585TIP3    H177170   3.819   0.471  17.080 -0.5862  1.2463 -1.1017
18585TIP3    H277171   3.702   0.411  17.156  1.0094 -0.9619 -0.2644
18586TIP3   OH277172   5.879   3.967   1.733  0.1605 -0.2778 -0.4474
18586TIP3    H177173   5.900   3.884   1.690 -1.6595  0.0009 -1.9966
18586TIP3    H277174   5.847   3.942   1.819  1.6253 -1.0103 -0.0812
18587TIP3   OH277175   0.607   6.363  13.572  0.5175 -0.0385 -0.4398
18587TIP3    H177176   0.612   6.354  13.477  1.5683 -0.6009 -0.3481
18587TIP3    H277177   0.694   6.339  13.603  0.2436  0.3206  0.6568
18588TIP3   OH277178   4.226   6.230  11.693  0.3039  0.4462  0.2773
18588TIP3    H177179   4.223   6.155  11.753  0.3379 -1.4012 -1.9000
18588TIP3    H277180   4.313   6.224  11.652 -0.4102  0.4903 -1.3046
18589TIP3   OH277181   2.889   2.512   5.613 -0.5453 -0.0449  0.2777
18589TIP3    H177182   2.856   2.422   5.604 -1.5804  0.4330 -1.2606
18589TIP3    H277183   2.922   2.533   5.526  0.2726  0.8515  0.7980
18590TIP3   OH277184   6.411   4.483   5.883  0.1870  0.0248 -0.0326
18590TIP3    H177185   6.480   4.496   5.819 -1.2692  0.6742 -1.5286
18590TIP3    H277186   6.341   4.440   5.835 -0.9758  0.5959  1.0965
18591TIP3   OH277187   6.479   0.025  13.337 -0.1004  0.1231  0.0538
18591TIP3    H177188   6.436   0.048  13.419 -0.5299  2.4486 -0.7451
18591TIP3    H277189   6.435   0.078  13.271  0.7890 -1.0595 -1.5735
18592TIP3   OH277190   1.346   1.492  12.709  0.0074  0.2170  0.2466
18592TIP3    H177191   1.441   1.492  12.719  0.2387 -2.2191 -1.2045
18592TIP3    H277192   1.329   1.435  12.634 -2.6184  0.6134  0.4157
18593TIP3   OH277193   2.904   1.373  12.851  0.8177  0.3721 -0.3774
18593TIP3    H177194   2.838   1.321  12.805  1.4696 -1.2488  0.4541
18593TIP3    H277195   2.912   1.453  12.798 -0.4173 -0.2284 -1.5368
18594TIP3   OH277196   0.052   1.933   2.213  0.2255 -0.6228 -0.7103
18594TIP3    H177197   0.094   2.015   2.237  1.4214 -0.9066 -1.7270
18594TIP3    H277198   0.125   1.873   2.194 -0.5950 -2.1488  0.7204
18595TIP3   OH277199   5.087   0.058  15.706  0.3344  0.0756 -0.3492
18595TIP3    H177200   5.150   0.102  15.763  0.4912  0.9227 -1.1426
18595TIP3    H277201   5.122   0.071  15.618 -0.9995  0.6837 -0.8216
18596TIP3   OH277202   6.417   4.674  13.005  0.5132  0.1357  0.0387
18596TIP3    H177203   6.494   4.715  13.043  0.6158 -0.7716  0.8505
18596TIP3    H277204   6.449   4.591  12.970  0.4284  0.9558 -2.1115
18597TIP3   OH277205   5.983   5.001  13.745  0.3933  0.3788 -0.6491
18597TIP3    H177206   6.004   5.066  13.813  1.4839 -0.5690 -0.0412
18597TIP3    H277207   5.909   5.039  13.698  2.1587  3.0000 -1.5807
18598TIP3   OH277208   0.616   0.554  14.968  0.7227  0.3055 -0.6977
18598TIP3    H177209   0.660   0.528  14.887  0.5469  0.1227 -0.7354
18598TIP3    H277210   0.671   0.517  15.038  0.7804  0.3168 -0.7374
18599TIP3   OH277211   1.674   2.451  10.990  0.6316  0.3146 -0.4462
18599TIP3    H177212   1.660   2.433  10.897 -0.0024  1.1937 -0.5351
18599TIP3    H277213   1.586   2.450  11.028  0.6135  2.3450 -0.3179
18600TIP3   OH277214   5.061   4.137   1.858 -0.2120 -0.3787 -0.0194
18600TIP3    H177215   5.124   4.082   1.904 -0.1954  0.0277  0.4513
18600TIP3    H277216   5.020   4.190   1.926  1.2093  1.6455 -0.6377
18601TIP3   OH277217   4.311   0.033   5.598  0.5563  0.1306  0.0276
18601TIP3    H177218   4.324   0.015   5.505 -0.8535  0.6505 -0.2949
18601TIP3    H277219   4.264   0.116   5.600 -0.3107 -0.3674  1.1688
18602TIP3   OH277220   6.564   2.481  14.791 -0.0092 -0.2885 -0.2878
18602TIP3    H177221   6.578   2.540  14.866  3.0933 -0.0114 -0.9724
18602TIP3    H277222   6.592   2.395  14.823 -1.7077 -0.8569 -0.2204
18603TIP3   OH277223   0.830   3.991  15.827  0.4510  0.3280  0.0802
18603TIP3    H177224   0.916   3.977  15.865  0.4652  0.6067  0.1520
18603TIP3    H277225   0.772   3.936  15.880  0.5307  0.4166  0.2619
18604TIP3   OH277226   2.499   2.907   5.085 -0.2321  0.2289 -0.2670
18604TIP3    H177227   2.564   2.976   5.080 -0.2509  0.2077 -0.9593
18604TIP3    H277228   2.526   2.844   5.018  0.6593 -1.2068  1.3794
18605TIP3   OH277229   6.013   4.005   3.258  0.0825 -0.6701 -0.3868
18605TIP3    H177230   6.042   4.059   3.332 -0.4030 -1.0696  0.1003
18605TIP3    H277231   5.985   3.923   3.298  0.7753 -1.2780 -1.1241
18606TIP3   OH277232   0.590   1.715   3.813 -0.0055  0.4089 -0.5414
18606TIP3    H177233   0.588   1.790   3.754  1.1385  0.5342 -0.4324
18606TIP3    H277234   0.538   1.743   3.888  0.1647  0.9812 -0.6331
18607TIP3   OH277235   4.419   1.247   4.284 -0.2480 -0.1787  0.0853
18607TIP3    H177236   4.421   1.164   4.237 -0.3890 -1.1706  1.7799
18607TIP3    H277237   4.493   1.297   4.248  0.8844 -1.6929  0.2334
18608TIP3   OH277238   6.133   6.573   0.769  0.1205 -0.2327  0.1245
18608TIP3    H177239   6.065   6.506   0.762  0.9336 -1.0332 -0.4392
18608TIP3    H277240   6.114   6.618   0.852 -2.6216  1.3545 -1.2398
18609TIP3   OH277241   1.752   3.437  14.137 -0.0013 -0.5990  0.0847
18609TIP3    H177242   1.691   3.415  14.208 -0.3767  2.9527  1.0318
18609TIP3    H277243   1.838   3.442  14.180 -0.0281  0.3019  0.0475
18610TIP3   OH277244   6.671   1.126   5.914  0.2082  0.0798  0.4173
18610TIP3    H177245   6.720   1.115   5.833 -0.3366  3.7287 -0.6026
18610TIP3    H277246   6.736   1.113   5.983  0.9641 -1.8573 -0.6051
18611TIP3   OH277247   1.557   3.030  14.404  0.1553  0.4219 -0.1223
18611TIP3    H177248   1.502   3.022  14.482 -1.2782  0.3786 -1.0839
18611TIP3    H277249   1.506   3.087  14.345  2.0627  2.0492 -0.3094
18612TIP3   OH277250   2.631   2.794   2.766  0.0212 -0.6327  0.4293
18612TIP3    H177251   2.569   2.722   2.767 -1.9762  0.9858  0.4367
18612TIP3    H277252   2.677   2.788   2.850  0.3017 -2.1710  0.1959
18613TIP3   OH277253   6.699   1.524   6.781 -0.3069 -0.4952  0.9534
18613TIP3    H177254   6.729   1.483   6.862 -1.2448 -3.3131  0.0149
18613TIP3    H277255   6.758   1.490   6.714 -0.5164  0.5378  0.2325
18614TIP3   OH277256   1.175   3.146  12.305 -0.4685 -0.3019  0.0807
18614TIP3    H177257   1.152   3.191  12.387 -0.2427 -0.5961  0.3081
18614TIP3    H277258   1.164   3.212  12.237 -1.3090 -0.2377  0.2668
18615TIP3   OH277259   3.268   6.750   5.901 -0.1043 -0.0056 -0.1933
18615TIP3    H177260   3.339   6.767   5.840  0.7638 -1.3113  0.4035
18615TIP3    H277261   3.271   6.824   5.962 -0.2243  0.6990 -1.0301
18616TIP3   OH277262   2.860   1.575   4.688 -0.3721  0.2858 -0.4265
18616TIP3    H177263   2.953   1.585   4.709 -0.6703  3.5409 -0.1044
18616TIP3    H277264   2.854   1.601   4.596 -0.7613 -1.8277 -1.0442
18617TIP3   OH277265   6.369   3.598  12.738  0.1110 -0.6807 -0.5258
18617TIP3    H177266   6.315   3.602  12.816  0.9951  1.8921  0.0265
18617TIP3    H277267   6.452   3.560  12.768  0.2377 -0.2647 -0.3518
18618TIP3   OH277268   3.577   0.406  14.248  0.2235  0.3880 -0.8085
18618TIP3    H177269   3.667   0.389  14.221  0.6437 -1.4328  1.4831
18618TIP3    H277270   3.559   0.341  14.315 -2.7979  0.7724 -1.1206
18619TIP3   OH277271   5.127   0.650   4.762 -0.3399 -0.0150 -0.5026
18619TIP3    H177272   5.129   0.705   4.840 -3.0383  0.5807 -0.7388
18619TIP3    H277273   5.078   0.572   4.788  1.4240 -1.2860 -0.8153
18620TIP3   OH277274   0.228   2.954   6.371  0.1307 -0.2403 -0.4565
18620TIP3    H177275   0.276   2.992   6.298  0.0453  3.0172  0.9935
18620TIP3    H277276   0.293   2.946   6.441 -0.1116 -1.9098 -0.3758
18621TIP3   OH277277   3.793   6.042   0.902  0.1111 -0.0112 -0.1117
18621TIP3    H177278   3.794   6.118   0.960  0.3156 -0.3604  0.3464
18621TIP3    H277279   3.744   5.975   0.950  1.1678 -0.6468  0.1149
18622TIP3   OH277280   2.392   3.680   5.696 -0.7351 -0.6662  0.2537
18622TIP3    H177281   2.361   3.617   5.762  1.2709 -0.9265  1.0213
18622TIP3    H277282   2.398   3.763   5.743 -2.2295 -0.1332 -0.4463
18623TIP3   OH277283   5.693   5.665   6.611 -0.1111  0.5498  0.6419
18623TIP3    H177284   5.704   5.571   6.597 -0.9400  0.3576  1.1841
18623TIP3    H277285   5.765   5.706   6.563  0.4486 -0.3769  0.6845
18624TIP3   OH277286   2.226   3.159  11.585 -0.3160  0.0754 -0.2592
18624TIP3    H177287   2.153   3.195  11.534 -1.4061 -1.6125 -0.0045
18624TIP3    H277288   2.249   3.228  11.647 -2.4901  0.2912  0.4085
18625TIP3   OH277289   1.137   5.082   1.637  0.5204 -0.5514 -0.0117
18625TIP3    H177290   1.044   5.079   1.617  0.3709  3.2091 -0.6129
18625TIP3    H277291   1.171   4.999   1.604 -2.6967 -2.4811  1.1216
18626TIP3   OH277292   0.845   3.072   5.341 -0.0587  0.1860 -0.1301
18626TIP3    H177293   0.876   3.065   5.431  1.9013 -0.7615 -0.8095
18626TIP3    H277294   0.903   3.138   5.301  0.5843 -0.9830 -1.2189
18627TIP3   OH277295   4.726   6.766  14.740  0.5227  0.7229 -0.0282
18627TIP3    H177296   4.660   6.801  14.799 -0.5253  0.0656 -0.7802
18627TIP3    H277297   4.783   6.713  14.795 -0.8344 -0.4364  0.3299
18628TIP3   OH277298   1.804   2.240  12.130  0.3283 -0.6633 -0.0348
18628TIP3    H177299   1.806   2.336  12.127 -0.9094 -0.6288 -0.5999
18628TIP3    H277300   1.864   2.217  12.200  0.6358  0.5356  0.1180
18629TIP3   OH277301   5.857   6.420   3.012 -0.3675  0.4990  0.6963
18629TIP3    H177302   5.905   6.458   3.085  0.3003  0.3684  0.3298
18629TIP3    H277303   5.851   6.491   2.948 -0.6157  0.4969  0.7168
18630TIP3   OH277304   3.250   4.671   4.047  0.0783 -0.0107 -0.3706
18630TIP3    H177305   3.225   4.626   3.966  1.0020 -0.5670 -0.3689
18630TIP3    H277306   3.333   4.630   4.072  0.0356  0.4713  0.6140
18631TIP3   OH277307   3.179   3.410   0.117  0.4731  0.2936  0.6953
18631TIP3    H177308   3.184   3.321   0.151 -1.7213 -0.3993 -0.6065
18631TIP3    H277309   3.222   3.405   0.032 -0.9787  0.0557 -0.0553
18632TIP3   OH277310   0.643   4.796   1.363 -0.2442  0.0912 -0.4222
18632TIP3    H177311   0.696   4.786   1.442 -1.2360  0.6143  0.3170
18632TIP3    H277312   0.685   4.867   1.315  0.9300 -0.8567 -0.8636
18633TIP3   OH277313   3.554   0.223   0.227 -0.1339 -0.2857 -0.1792
18633TIP3    H177314   3.571   0.158   0.160  1.6499 -0.2978  0.2461
18633TIP3    H277315   3.505   0.176   0.295  1.4109 -1.2875  0.2715
18634TIP3   OH277316   0.270   2.241  17.050 -0.0449  0.7427  0.2232
18634TIP3    H177317   0.216   2.182  17.103 -1.4572  1.8022  0.0302
18634TIP3    H277318   0.259   2.210  16.961 -0.4092  1.0021  0.1754
18635TIP3   OH277319   4.776   0.186  12.050  0.0210  0.1812 -0.0146
18635TIP3    H177320   4.864   0.188  12.086  0.9710 -0.6083 -2.1390
18635TIP3    H277321   4.726   0.133  12.112  0.9041  0.9662  1.4236
18636TIP3   OH277322   5.077   4.184   3.342  0.4774  0.3005  0.1577
18636TIP3    H177323   5.024   4.263   3.331  0.3099 -0.1940 -4.1368
18636TIP3    H277324   5.017   4.119   3.379 -0.6929  0.9564 -0.5240
18637TIP3   OH277325   1.495   4.740  12.431 -0.3995  0.3931  0.0227
18637TIP3    H177326   1.453   4.654  12.423 -0.5891  0.4981 -0.1389
18637TIP3    H277327   1.566   4.738  12.367 -0.4932  0.4067 -0.0826
18638TIP3   OH277328   4.401   2.955  14.639  0.2486 -0.2769 -0.4097
18638TIP3    H177329   4.400   2.889  14.708 -0.9910 -0.0128 -0.1617
18638TIP3    H277330   4.310   2.978  14.626  0.6860  2.1110  0.2111
18639TIP3   OH277331   1.573   2.805   0.323 -0.0953 -0.2277  0.8232
18639TIP3    H177332   1.500   2.775   0.271  0.1413  0.2170  0.2160
18639TIP3    H277333   1.631   2.849   0.260  0.3876 -0.0331  1.3899
18640TIP3   OH277334   4.321   4.419   6.537  0.4072 -0.2286  0.2107
18640TIP3    H177335   4.369   4.372   6.605  0.8738  1.4033  1.0495
18640TIP3    H277336   4.242   4.449   6.580  0.5404  0.5214 -0.0603
18641TIP3   OH277337   2.667   1.150   1.418  0.1580  0.5634 -0.8486
18641TIP3    H177338   2.596   1.191   1.368 -0.0405  1.7633  0.3593
18641TIP3    H277339   2.719   1.224   1.451 -0.1842 -0.1081  1.3878
18642TIP3   OH277340   0.566   0.337  11.149 -0.4830  0.8176  0.2290
18642TIP3    H177341   0.656   0.349  11.119 -0.5117 -0.9911 -0.7187
18642TIP3    H277342   0.524   0.422  11.136  0.0991  0.7226 -2.8399
18643TIP3   OH277343   6.060   1.449  16.917  0.5047  0.3158  0.3586
18643TIP3    H177344   6.119   1.444  16.992  0.1240  1.1053  0.7244
18643TIP3    H277345   5.993   1.383  16.935  1.2604 -0.5912 -0.0610
18644TIP3   OH277346   6.183   3.503  10.665 -0.2554 -0.6355 -0.1216
18644TIP3    H177347   6.136   3.557  10.729 -0.2497 -0.6025 -0.1451
18644TIP3    H277348   6.121   3.489  10.594  0.1992  0.5245 -0.7793
18645TIP3   OH277349   2.692   1.768   5.771  0.7130  0.2827 -0.1072
18645TIP3    H177350   2.611   1.760   5.720  0.2297  0.2967  0.6514
18645TIP3    H277351   2.663   1.779   5.861  1.5675  0.0079  0.2101
18646TIP3   OH277352   0.657   0.314   0.934  0.0503  0.0169 -0.7149
18646TIP3    H177353   0.734   0.263   0.911 -0.6920 -1.0272 -0.9403
18646TIP3    H277354   0.630   0.355   0.852  1.0244  1.3512 -0.4107
18647TIP3   OH277355   3.002   4.423   5.803 -0.3487 -0.3630  0.0401
18647TIP3    H177356   3.050   4.429   5.885 -0.9714 -0.8048  0.4390
18647TIP3    H277357   2.940   4.496   5.805  0.1457  0.0839 -0.3852
18648TIP3   OH277358   3.802   1.620   5.329 -0.1698 -0.4765 -0.2530
18648TIP3    H177359   3.794   1.549   5.392  2.0832 -0.3814  0.2222
18648TIP3    H277360   3.738   1.685   5.359 -0.9023 -1.4768  0.4291
18649TIP3   OH277361   0.729   2.515   5.344 -0.0608  0.5618 -0.0504
18649TIP3    H177362   0.815   2.557   5.345 -0.6705  1.8830  1.9564
18649TIP3    H277363   0.684   2.553   5.268  1.7169 -1.6188 -2.3693
18650TIP3   OH277364   3.262   3.376  12.805  0.0674  0.0620 -0.0782
18650TIP3    H177365   3.277   3.471  12.812  2.2096  0.0814 -2.9603
18650TIP3    H277366   3.266   3.358  12.711 -1.1042 -2.8125  0.3189
18651TIP3   OH277367   1.666   1.455   0.314 -0.7673  0.4333  1.0252
18651TIP3    H177368   1.591   1.510   0.338 -0.6776  1.1507 -0.2070
18651TIP3    H277369   1.636   1.366   0.329 -2.0866  0.6790  0.1016
18652TIP3   OH277370   5.381   5.900   3.244  0.1593  0.2012 -0.6707
18652TIP3    H177371   5.346   5.989   3.246  1.4522  0.7196  0.4108
18652TIP3    H277372   5.339   5.860   3.168 -3.4402  0.4486  0.9693
18653TIP3   OH277373   2.484   2.982   2.602  0.2991  0.2038  0.6650
18653TIP3    H177374   2.516   2.929   2.675  0.1931  1.3304  1.5412
18653TIP3    H277375   2.555   3.044   2.585 -0.4598  1.2104  1.1022
18654TIP3   OH277376   2.854   1.482  11.360 -0.2694 -0.1176  0.4925
18654TIP3    H177377   2.891   1.429  11.290  0.3175  0.2539  0.5095
18654TIP3    H277378   2.845   1.570  11.321 -0.6284 -0.0770  0.6584
18655TIP3   OH277379   0.439   4.568  14.686  0.1634  0.0756 -0.2537
18655TIP3    H177380   0.366   4.598  14.740 -0.9009 -1.5251 -0.7417
18655TIP3    H277381   0.420   4.476  14.669  1.5958 -0.0137 -1.5487
18656TIP3   OH277382   1.049   6.467   5.813  0.1948 -0.4444  0.3926
18656TIP3    H177383   0.964   6.424   5.814 -0.2187  0.3318  1.6996
18656TIP3    H277384   1.056   6.505   5.726 -0.7315 -0.6607  0.2126
18657TIP3   OH277385   3.932   4.042  16.826  0.2169  0.5366 -0.3546
18657TIP3    H177386   3.906   3.967  16.771 -0.8751 -0.3754  1.3139
18657TIP3    H277387   4.016   4.017  16.863 -0.0637  0.1780  0.0604
18658TIP3   OH277388   4.466   0.251   2.900  0.4115 -0.1959 -0.5841
18658TIP3    H177389   4.554   0.215   2.906 -0.0768 -1.9685 -2.6796
18658TIP3    H277390   4.473   0.322   2.837  0.3128 -0.5585 -1.0129
18659TIP3   OH277391   6.410   3.949  11.237  0.6598 -0.1544  0.2489
18659TIP3    H177392   6.492   3.900  11.230  0.2311 -1.0109  0.9848
18659TIP3    H277393   6.345   3.894  11.193  0.5354  0.7085 -0.6896
18660TIP3   OH277394   2.819   0.212  17.271  0.3893  0.3149 -0.3280
18660TIP3    H177395   2.781   0.243  17.189  0.7732 -0.2142 -0.7093
18660TIP3    H277396   2.880   0.281  17.297  1.5384 -0.2794 -1.3815
18661TIP3   OH277397   1.712   6.762  11.399 -0.0628 -0.1317 -0.8839
18661TIP3    H177398   1.682   6.756  11.490  0.6328 -0.3919 -0.6708
18661TIP3    H277399   1.631   6.778  11.349 -0.5320 -0.5803 -0.2902
18662TIP3   OH277400   6.473   6.419  11.975 -0.1533 -0.2541  0.1111
18662TIP3    H177401   6.495   6.507  11.944 -1.2157  0.3041  0.8506
18662TIP3    H277402   6.460   6.368  11.896 -1.6996  0.8404 -0.3846
18663TIP3   OH277403   5.163   0.694   3.326 -0.7136  0.2798 -0.8661
18663TIP3    H177404   5.141   0.787   3.333  1.8602  1.1084 -2.2250
18663TIP3    H277405   5.222   0.678   3.401 -1.4035 -0.3593 -0.4512
18664TIP3   OH277406   3.858   6.655   5.340 -0.7930  0.3122 -0.1332
18664TIP3    H177407   3.822   6.724   5.395 -1.5394 -0.3822  0.2774
18664TIP3    H277408   3.942   6.632   5.380 -0.6622  0.8031 -0.1275
18665TIP3   OH277409   3.201   0.649  16.937  0.2079  0.0549 -0.3516
18665TIP3    H177410   3.238   0.589  16.873  1.5343  0.3529  0.0935
18665TIP3    H277411   3.271   0.662  17.001 -0.7337  0.5461  0.6162
18666TIP3   OH277412   4.138   4.524  14.352  0.0251  0.5864  0.2681
18666TIP3    H177413   4.223   4.503  14.315 -0.0821  1.0300 -0.2387
18666TIP3    H277414   4.100   4.439  14.375 -0.2121  0.2313 -1.3396
18667TIP3   OH277415   6.714   0.273   0.876 -0.3837 -0.2592  0.0488
18667TIP3    H177416   6.794   0.283   0.826 -1.2654  0.3443 -1.2883
18667TIP3    H277417   6.712   0.180   0.902  2.3290  0.3191  2.9595
18668TIP3   OH277418   4.541   5.486   3.077  0.3673  0.2644 -0.3732
18668TIP3    H177419   4.599   5.532   3.016  1.6802  1.8643  1.9125
18668TIP3    H277420   4.535   5.544   3.153 -1.0765 -1.6682  1.0970
18669TIP3   OH277421   4.159   3.601   0.151 -0.5085 -0.4871 -0.1732
18669TIP3    H177422   4.077   3.647   0.132 -0.0809  0.6707  0.6488
18669TIP3    H277423   4.216   3.669   0.188  1.2195 -0.9986 -1.7614
18670TIP3   OH277424   2.965   4.782  17.094 -0.5771  0.0611 -0.3167
18670TIP3    H177425   2.971   4.726  17.017  0.4620  0.7388 -0.7645
18670TIP3    H277426   2.872   4.800  17.105 -0.7724 -0.4314 -1.1328
18671TIP3   OH277427   6.188   3.311   5.245 -0.0954 -0.4517  0.5400
18671TIP3    H177428   6.244   3.233   5.253  0.2186 -0.2043  0.7870
18671TIP3    H277429   6.118   3.284   5.185 -0.6001 -1.2709  1.4695
18672TIP3   OH277430   5.625   4.252  12.373  0.4451  0.1780  0.4757
18672TIP3    H177431   5.534   4.275  12.354  0.2465 -0.9954 -0.0703
18672TIP3    H277432   5.671   4.268  12.290  0.5407 -0.1847  0.4583
18673TIP3   OH277433   0.192   6.721   1.674 -0.2492  0.6055  0.9179
18673TIP3    H177434   0.210   6.812   1.651  0.4004  0.0365 -1.0495
18673TIP3    H277435   0.110   6.701   1.629  1.0692 -0.5571 -1.1426
18674TIP3   OH277436   4.505   4.050  15.147  0.6708  0.6185  0.4767
18674TIP3    H177437   4.566   4.035  15.218  0.3323  0.7173  0.7907
18674TIP3    H277438   4.458   3.966  15.137  0.0096  0.9103  1.0536
18675TIP3   OH277439   3.248   3.155   2.883  0.2495 -0.1348 -0.2958
18675TIP3    H177440   3.322   3.200   2.841  0.0592 -1.9217 -2.7836
18675TIP3    H277441   3.210   3.221   2.941  1.8869  1.8368 -1.3179
18676TIP3   OH277442   0.160   4.350   1.249 -0.3285  0.5953  0.3307
18676TIP3    H177443   0.100   4.421   1.228 -1.5999 -0.0497  1.5748
18676TIP3    H277444   0.164   4.350   1.345 -0.3010 -0.9629  0.3485
18677TIP3   OH277445   6.497   2.689   6.366 -0.2509 -0.1190  0.2180
18677TIP3    H177446   6.496   2.674   6.461  0.7209 -3.0736 -0.1247
18677TIP3    H277447   6.404   2.685   6.341 -0.3597 -4.1091  0.5795
18678TIP3   OH277448   0.370   4.418   4.361  0.7374 -0.1160  0.2680
18678TIP3    H177449   0.341   4.363   4.435 -0.1277 -0.4726 -0.3211
18678TIP3    H277450   0.422   4.359   4.306  1.3988  0.1552  0.5826
18679TIP3   OH277451   5.861   4.599  13.918  0.0619 -0.5073 -0.4129
18679TIP3    H177452   5.827   4.688  13.933 -2.4737 -1.3901 -0.3964
18679TIP3    H277453   5.876   4.564  14.006 -3.0073 -1.4442 -0.1217
18680TIP3   OH277454   3.091   0.397   3.385  0.1063  0.6432 -0.8119
18680TIP3    H177455   3.013   0.442   3.354 -1.5423 -1.5316 -0.0422
18680TIP3    H277456   3.139   0.464   3.435 -1.4663  1.9091 -0.9196
18681TIP3   OH277457   5.381   4.727   1.026 -0.2362  0.1492  0.6152
18681TIP3    H177458   5.333   4.809   1.023  0.1287  0.3991  1.2266
18681TIP3    H277459   5.313   4.659   1.027 -0.6923  0.5349  3.1151
18682TIP3   OH277460   2.579   5.012   4.840 -0.3955 -0.1805  0.9604
18682TIP3    H177461   2.611   4.957   4.911 -0.1917 -2.0604 -0.5129
18682TIP3    H277462   2.555   4.951   4.771 -2.3579  1.4701  0.0828
18683TIP3   OH277463   0.424   2.756   2.609 -0.3421 -0.0856 -0.1360
18683TIP3    H177464   0.444   2.705   2.688  0.2099 -1.8181 -1.3484
18683TIP3    H277465   0.346   2.806   2.633  1.2272  1.3985  2.3247
18684TIP3   OH277466   5.106   2.046   4.031 -0.0989 -0.2002  0.1952
18684TIP3    H177467   5.015   2.028   4.056 -1.0672  1.3442 -1.9222
18684TIP3    H277468   5.128   2.126   4.079  0.1274 -0.5069  0.6130
18685TIP3   OH277469   2.399   6.012  16.690  0.3071 -0.2243 -0.4639
18685TIP3    H177470   2.445   6.084  16.734 -1.1924  0.5126 -0.0346
18685TIP3    H277471   2.412   5.936  16.747 -0.6618  0.4589  0.7202
18686TIP3   OH277472   4.895   2.372  16.693 -0.4767  0.0643 -0.0698
18686TIP3    H177473   4.831   2.443  16.688 -1.3161 -0.6362  0.3540
18686TIP3    H277474   4.910   2.360  16.787  0.0566  0.0271 -0.1560
18687TIP3   OH277475   0.316   4.474   1.835  0.7037 -0.3690 -0.4870
18687TIP3    H177476   0.316   4.387   1.874  0.3497 -0.6398 -1.0772
18687TIP3    H277477   0.241   4.473   1.775 -0.3130  0.8848  0.6916
18688TIP3   OH277478   0.090   0.655  15.453 -0.9384  0.3251  0.2770
18688TIP3    H177479   0.026   0.588  15.433 -0.4497 -0.6509  1.7790
18688TIP3    H277480   0.141   0.619  15.526  0.5651  1.5395 -0.1019
18689TIP3   OH277481   6.456   5.380   3.302 -0.8899  0.4682 -0.1626
18689TIP3    H177482   6.397   5.393   3.376 -0.2205 -1.1270  0.7063
18689TIP3    H277483   6.470   5.468   3.267  0.1501  1.5848  2.7065
18690TIP3   OH277484   0.878   1.851  12.984 -0.3626  0.0059  0.1554
18690TIP3    H177485   0.829   1.857  13.066 -1.8775 -0.2752 -0.6903
18690TIP3    H277486   0.955   1.799  13.006 -1.2021 -0.8365  1.2130
18691TIP3   OH277487   1.340   1.341  14.676 -0.4902  0.3122  0.3305
18691TIP3    H177488   1.383   1.259  14.651 -1.2970 -0.8203  2.4357
18691TIP3    H277489   1.248   1.318  14.689 -1.2845  2.1294 -1.5003
18692TIP3   OH277490   1.302   6.374   5.897 -0.2441 -0.1812 -0.0087
18692TIP3    H177491   1.227   6.401   5.843  0.2151  0.8162 -0.1702
18692TIP3    H277492   1.277   6.398   5.986  1.1499  3.2841 -0.3969
18693TIP3   OH277493   2.533   4.477   6.854 -0.3716 -0.4513  0.0135
18693TIP3    H177494   2.480   4.485   6.775 -0.5978 -0.0113  0.2116
18693TIP3    H277495   2.476   4.433   6.917 -0.3639 -0.3441  0.0956
18694TIP3   OH277496   3.042   4.090  12.875 -0.1979 -0.3700  0.7949
18694TIP3    H177497   2.992   4.027  12.926 -0.6771 -0.5624  0.0957
18694TIP3    H277498   2.996   4.096  12.791  1.2744 -1.0191 -0.1108
18695TIP3   OH277499   1.026   0.072  17.222 -0.4046  0.2491 -0.1679
18695TIP3    H177500   1.029  -0.001  17.283  0.6743  0.3746 -0.0563
18695TIP3    H277501   0.943   0.060  17.175 -0.0985 -1.2330 -0.3817
18696TIP3   OH277502   3.309   1.622  11.634  0.5598 -0.2078  0.3031
18696TIP3    H177503   3.373   1.635  11.564  0.3521  1.4074  0.3782
18696TIP3    H277504   3.244   1.563  11.596 -0.1072  1.4492 -1.2979
18697TIP3   OH277505   5.724   3.619   6.248  0.1495 -0.3862  0.0309
18697TIP3    H177506   5.656   3.685   6.235 -1.1078 -1.8334 -1.1672
18697TIP3    H277507   5.681   3.550   6.299  0.5809 -1.4637 -1.0159
18698TIP3   OH277508   2.422   1.065   3.099  0.6809  0.4994 -0.7252
18698TIP3    H177509   2.514   1.057   3.074  0.7574  2.2045 -1.1212
18698TIP3    H277510   2.419   1.031   3.188  1.3265 -1.2618 -1.3402
18699TIP3   OH277511   3.283   3.041   1.386 -0.0809  0.1446 -0.2148
18699TIP3    H177512   3.307   2.971   1.447 -0.2246  0.1301 -0.1747
18699TIP3    H277513   3.331   3.117   1.418  2.0081 -0.4789 -1.6544
18700TIP3   OH277514   2.757   2.546  13.996 -0.5327 -0.3479 -0.1647
18700TIP3    H177515   2.765   2.635  13.961  2.0861 -0.5269 -0.1778
18700TIP3    H277516   2.736   2.560  14.089  0.7969  0.3502  0.0603
18701TIP3   OH277517   1.534   2.016  15.108  0.4024 -0.3725 -0.3215
18701TIP3    H177518   1.581   2.025  15.191  1.1935 -1.3336 -0.6564
18701TIP3    H277519   1.520   2.106  15.079  0.8804 -0.0451  0.4244
18702TIP3   OH277520   1.415   4.122   2.209 -0.4748  0.1642 -0.0145
18702TIP3    H177521   1.452   4.181   2.273 -3.8351  1.9248  0.5658
18702TIP3    H277522   1.489   4.092   2.157  1.8971  1.5420  2.3529
18703TIP3   OH277523   2.329   2.127   4.503 -0.3319  0.5417  0.2634
18703TIP3    H177524   2.399   2.164   4.450  0.4732  0.4517  1.2313
18703TIP3    H277525   2.374   2.077   4.571 -1.2290  2.1466  2.1401
18704TIP3   OH277526   0.569   1.843  12.926 -0.0997  0.2245 -0.1897
18704TIP3    H177527   0.610   1.899  12.992  2.1799  0.0166 -1.3548
18704TIP3    H277528   0.600   1.755  12.947  1.1628  0.2302 -1.8315
18705TIP3   OH277529   3.298   3.222   3.344 -0.0273  0.1191  0.1730
18705TIP3    H177530   3.295   3.226   3.440 -1.8196 -0.8972  0.1998
18705TIP3    H277531   3.354   3.147   3.326  1.6925  1.3071  0.3550
18706TIP3   OH277532   1.601   2.528  16.729  0.3968  0.0718  0.1251
18706TIP3    H177533   1.582   2.540  16.822 -0.0489  0.7321 -0.0422
18706TIP3    H277534   1.604   2.433  16.717  1.9821 -0.0460  1.1063
18707TIP3   OH277535   1.423   6.314  14.711 -0.4736  0.0353 -0.4894
18707TIP3    H177536   1.353   6.374  14.735  1.3204  2.3572 -0.6377
18707TIP3    H277537   1.391   6.271  14.632 -1.1199  2.3015 -1.5689
18708TIP3   OH277538   2.592   5.853  14.488  0.1856 -0.6945 -0.3018
18708TIP3    H177539   2.643   5.922  14.530 -0.0765 -0.3542 -0.5365
18708TIP3    H277540   2.648   5.822  14.416  1.5234 -2.6916  1.4825
18709TIP3   OH277541   0.331   3.730  16.129  0.3490 -0.6806 -0.1396
18709TIP3    H177542   0.320   3.812  16.082 -0.8540 -1.2547 -0.9086
18709TIP3    H277543   0.327   3.754  16.221  1.4004  0.2928 -0.3374
18710TIP3   OH277544   5.600   1.455  13.868  1.1028 -0.0299 -0.2664
18710TIP3    H177545   5.594   1.360  13.856  0.0710 -0.0307  0.1311
18710TIP3    H277546   5.668   1.467  13.935  1.3092 -0.4846 -0.3956
18711TIP3   OH277547   0.100   5.879  16.726 -0.2001  0.2507  0.0667
18711TIP3    H177548   0.194   5.897  16.723  0.0214 -0.9253 -0.9373
18711TIP3    H277549   0.089   5.801  16.671 -1.6033 -0.3401  1.1417
18712TIP3   OH277550   1.320   6.396  17.020  0.3402 -0.1457  0.6444
18712TIP3    H177551   1.392   6.365  17.075  1.1752 -0.6881 -0.6791
18712TIP3    H277552   1.324   6.491  17.026  1.1615 -0.1719  0.6164
18713TIP3   OH277553   5.010   6.276   4.621 -0.2668  0.9970 -0.3767
18713TIP3    H177554   5.078   6.318   4.674 -0.7049  1.3262 -0.0690
18713TIP3    H277555   4.952   6.348   4.594 -0.5595  0.7049 -0.5433
18714TIP3   OH277556   1.074   4.856   4.260 -0.3395 -0.6611 -0.6325
18714TIP3    H177557   1.130   4.931   4.281 -2.8789  0.8226  1.5692
18714TIP3    H277558   1.025   4.883   4.183 -0.3857 -0.5570 -0.5669
18715TIP3   OH277559   1.052   5.848   3.724  0.5006 -0.2047 -0.4877
18715TIP3    H177560   0.986   5.877   3.788 -0.2753 -0.6382 -1.0669
18715TIP3    H277561   1.041   5.753   3.719 -1.2519 -0.0020 -3.0813
18716TIP3   OH277562   6.222   5.073   0.008  0.1644 -0.0473  0.2428
18716TIP3    H177563   6.190   5.023  -0.066  1.4201  1.5681 -1.4839
18716TIP3    H277564   6.310   5.039   0.025  0.1480  0.0576  0.5556
18717TIP3   OH277565   2.587   5.055   5.876 -0.0970 -0.1699 -0.1848
18717TIP3    H177566   2.493   5.038   5.879 -0.4751  1.6540 -0.8767
18717TIP3    H277567   2.608   5.089   5.963 -0.2797  0.3698 -0.3488
18718TIP3   OH277568   4.381   0.636  14.179 -0.5026  0.2514 -0.0464
18718TIP3    H177569   4.329   0.568  14.136 -0.2990 -0.4352  0.7487
18718TIP3    H277570   4.318   0.687  14.229 -0.5369  0.0176  0.1516
18719TIP3   OH277571   6.325   0.018  14.536  0.3542  0.4914 -0.3108
18719TIP3    H177572   6.400   0.003  14.594  0.6824 -1.2094 -1.1115
18719TIP3    H277573   6.363   0.017  14.448 -0.5502  0.0444 -0.7016
18720TIP3   OH277574   2.811   4.303  14.654 -0.0644 -0.1660  0.8733
18720TIP3    H177575   2.804   4.306  14.558  1.8606  0.7480  0.7186
18720TIP3    H277576   2.777   4.388  14.683 -0.6507 -0.4444  1.0147
18721TIP3   OH277577   3.596   2.660   5.730 -0.6427 -0.2566 -0.2977
18721TIP3    H177578   3.537   2.672   5.805 -0.4308  1.7792 -0.3907
18721TIP3    H277579   3.542   2.619   5.663 -1.2199 -0.8171  0.4839
18722TIP3   OH277580   1.565   2.468   2.744 -0.0038  0.2111  0.4081
18722TIP3    H177581   1.601   2.522   2.673 -0.4289  1.5121  1.1662
18722TIP3    H277582   1.597   2.508   2.824  0.0628 -0.9592  0.9865
18723TIP3   OH277583   4.855   5.666  16.289  0.2096  0.3578  0.3251
18723TIP3    H177584   4.764   5.673  16.260  0.5068 -2.1914 -1.5847
18723TIP3    H277585   4.857   5.588  16.344  0.9298  1.4877  1.9661
18724TIP3   OH277586   0.872   4.420  12.945  0.5761  0.4633 -0.2006
18724TIP3    H177587   0.948   4.431  13.002  1.2079 -0.5339 -0.8127
18724TIP3    H277588   0.895   4.467  12.865  1.0309 -0.7215 -0.7930
18725TIP3   OH277589   1.917   5.873  13.858 -0.7149  0.4471 -0.1130
18725TIP3    H177590   1.875   5.837  13.936 -0.3701 -1.5888 -0.7876
18725TIP3    H277591   1.847   5.874  13.792 -0.2631 -1.0574 -0.6741
18726TIP3   OH277592   0.719   0.490  16.967 -0.4228 -0.5140 -0.3472
18726TIP3    H177593   0.808   0.468  16.993 -0.1306  0.7147 -0.2152
18726TIP3    H277594   0.665   0.417  16.997  0.2309 -0.2328  1.6316
18727TIP3   OH277595   5.174   2.269  12.271  0.6633  0.2741  1.0333
18727TIP3    H177596   5.186   2.276  12.365 -0.5706 -1.0850  1.3367
18727TIP3    H277597   5.259   2.292  12.233  0.8617  1.9350  2.4019
18728TIP3   OH277598   5.946   0.933  12.323 -0.7047  0.2922 -0.0657
18728TIP3    H177599   5.973   0.984  12.400  1.3422 -1.3016  0.3684
18728TIP3    H277600   6.014   0.951  12.258 -1.3235  0.0682 -0.7812
18729TIP3   OH277601   4.753   5.743   3.155 -0.0485  0.1337  0.4503
18729TIP3    H177602   4.810   5.820   3.161 -0.5136  0.4633  0.6183
18729TIP3    H277603   4.725   5.741   3.063  1.0552 -0.6238  0.1093
18730TIP3   OH277604   5.814   0.534  16.078 -0.2058 -0.0857  0.5733
18730TIP3    H177605   5.870   0.591  16.025 -1.4274 -0.8600 -1.6776
18730TIP3    H277606   5.794   0.586  16.156 -0.0439  1.9792 -0.6866
18731TIP3   OH277607   3.083   3.541  13.056  0.0620 -0.0597 -0.0796
18731TIP3    H177608   3.170   3.528  13.094 -0.1261  0.1725  0.4550
18731TIP3    H277609   3.027   3.560  13.132  0.2119  3.2866 -0.6538
18732TIP3   OH277610   3.842   0.323   1.583  0.1559  0.1257 -0.4340
18732TIP3    H177611   3.770   0.265   1.609  0.3084 -0.7289 -1.8588
18732TIP3    H277612   3.866   0.369   1.664 -0.0190 -1.7240  0.7121
18733TIP3   OH277613   3.024   3.017   0.503  0.7285 -0.1966 -0.1914
18733TIP3    H177614   3.039   2.975   0.418  0.2706  0.1290 -0.4393
18733TIP3    H277615   2.985   3.102   0.481  2.5595  0.8021  0.2612
18734TIP3   OH277616   3.637   3.196  15.671  0.0173  0.0950 -0.0332
18734TIP3    H177617   3.600   3.122  15.623 -0.6949  1.6458 -2.0170
18734TIP3    H277618   3.566   3.259  15.676  0.8807  1.0318  0.7490
18735TIP3   OH277619   3.602   3.139  16.852  0.0471 -0.0801 -0.1090
18735TIP3    H177620   3.634   3.065  16.800 -0.9210 -1.4783  1.1801
18735TIP3    H277621   3.566   3.099  16.931  0.7541  1.9070  1.2962
18736TIP3   OH277622   3.116   2.730  12.841  0.3242 -0.2393  0.0324
18736TIP3    H177623   3.033   2.751  12.797 -0.4395 -0.3777  1.3354
18736TIP3    H277624   3.161   2.814  12.849  1.5438 -0.4918 -2.9579
18737TIP3   OH277625   2.992   2.873  12.644  0.2131  0.4461  0.1996
18737TIP3    H177626   3.041   2.950  12.615  3.0615 -0.6759  1.6015
18737TIP3    H277627   3.037   2.799  12.602 -1.7571 -0.5506 -0.2496
18738TIP3   OH277628   2.506   3.128  15.165 -0.5804 -0.4997 -0.4942
18738TIP3    H177629   2.594   3.140  15.203 -0.6044 -1.3792 -0.1200
18738TIP3    H277630   2.498   3.033  15.154 -1.5562 -0.4423 -0.3532
18739TIP3   OH277631   3.222   3.259  12.552  0.1938  0.2750  0.5001
18739TIP3    H177632   3.130   3.266  12.529  1.0388 -0.5291 -4.2073
18739TIP3    H277633   3.244   3.167  12.538  1.8691  0.6076  0.6572
18740TIP3   OH277634   1.584   5.962  12.776 -0.6118  0.1761 -0.4865
18740TIP3    H177635   1.622   5.883  12.738  0.8982  0.3659  0.5055
18740TIP3    H277636   1.493   5.939  12.794  0.2355 -2.0532  1.5389
18741TIP3   OH277637   6.181   3.616   6.341 -0.7088 -0.2325 -0.3729
18741TIP3    H177638   6.207   3.609   6.433 -1.1940  1.1075 -0.1077
18741TIP3    H277639   6.237   3.554   6.295  2.4175  1.8738  0.2776
18742TIP3   OH277640   3.927   6.112  12.191  0.1632 -0.3115  0.2547
18742TIP3    H177641   3.966   6.079  12.272 -0.9491 -1.9042  0.1776
18742TIP3    H277642   3.866   6.180  12.220 -0.9623 -1.5543  0.8772
18743TIP3   OH277643   1.384   0.679   3.100  0.2636 -0.2703 -0.1511
18743TIP3    H177644   1.325   0.620   3.148 -0.1251 -1.8939 -2.4626
18743TIP3    H277645   1.325   0.737   3.052  0.6421  1.0404  0.9191
18744TIP3   OH277646   0.085   6.695   4.138 -0.1133  0.7902 -0.1419
18744TIP3    H177647   0.178   6.715   4.130  0.0743 -0.1040 -0.2705
18744TIP3    H277648   0.072   6.674   4.231 -0.2767  1.3415 -0.0380
18745TIP3   OH277649   3.624   3.962  12.885  0.7316 -0.0011  0.3897
18745TIP3    H177650   3.684   3.888  12.875  1.1287  0.3837 -0.1996
18745TIP3    H277651   3.670   4.022  12.943  1.8332  1.1707 -1.5708
18746TIP3   OH277652   2.044   2.774   1.801  0.0525 -0.5594 -0.2489
18746TIP3    H177653   1.996   2.855   1.783 -2.8980 -2.3855 -1.3654
18746TIP3    H277654   2.025   2.755   1.893  0.7765 -0.0066  0.0239
18747TIP3   OH277655   2.104   1.431  12.660 -0.5618  0.5889 -0.4534
18747TIP3    H177656   2.184   1.461  12.703 -0.1327  1.7458 -1.9827
18747TIP3    H277657   2.130   1.415  12.570 -1.2447 -2.5630 -0.2029
18748TIP3   OH277658   6.222   2.729  12.336  0.3998 -0.2099  0.2518
18748TIP3    H177659   6.126   2.723  12.340  0.3967  0.5304  1.6682
18748TIP3    H277660   6.244   2.690  12.251 -1.1949  0.1736 -0.3835
18749TIP3   OH277661   2.435   5.003   5.387  0.2839 -0.5439 -0.0185
18749TIP3    H177662   2.462   5.058   5.461  0.6656 -0.6972 -0.0407
18749TIP3    H277663   2.352   4.964   5.415  1.4092 -2.2148  1.1838
18750TIP3   OH277664   1.243   1.578  12.241  0.1795 -0.0183  0.7037
18750TIP3    H177665   1.185   1.649  12.214  2.2883  1.0871 -1.2551
18750TIP3    H277666   1.326   1.622  12.260  1.6501 -1.9453 -0.8910
18751TIP3   OH277667   3.182   2.690   1.497 -0.1789  0.0029  0.4939
18751TIP3    H177668   3.240   2.663   1.425 -1.7015 -1.9021 -0.1158
18751TIP3    H277669   3.235   2.748   1.551  1.4015  0.5528 -1.5191
18752TIP3   OH277670   2.405   0.991  12.680 -0.0038 -0.1304 -0.1566
18752TIP3    H177671   2.484   0.985  12.734  0.5554 -1.7224 -1.0853
18752TIP3    H277672   2.335   1.007  12.743  0.9801  0.8483  0.7396
18753TIP3   OH277673   3.684   1.459   4.336 -0.4974 -0.3226 -0.1800
18753TIP3    H177674   3.702   1.538   4.387  1.5465 -0.2138 -0.9797
18753TIP3    H277675   3.766   1.410   4.338 -0.4751 -0.5325 -2.9463
18754TIP3   OH277676   4.606   0.089  15.621  0.4735 -0.0750 -0.1987
18754TIP3    H177677   4.692   0.059  15.592  0.8113  0.7357 -0.0621
18754TIP3    H277678   4.550   0.084  15.544  0.8858  0.2944 -0.5191
18755TIP3   OH277679   1.086   6.281   0.454  0.4583 -0.1412  0.4887
18755TIP3    H177680   1.012   6.323   0.409  0.8390  0.2347  0.2083
18755TIP3    H277681   1.079   6.189   0.429 -0.0674 -0.1579  0.6721
18756TIP3   OH277682   3.556   5.956   4.483 -0.8126 -0.1580 -0.0982
18756TIP3    H177683   3.627   5.964   4.546 -1.7174  0.0511  0.9338
18756TIP3    H277684   3.483   6.004   4.523 -1.7600 -0.9825 -0.7763
18757TIP3   OH277685   4.791   5.592   6.190 -0.6696  0.1448  0.3873
18757TIP3    H177686   4.886   5.599   6.178 -0.6584 -2.0211 -1.4950
18757TIP3    H277687   4.757   5.677   6.160  0.6237  0.7544  0.5653
18758TIP3   OH277688   5.963   6.373   1.451 -0.2190 -1.0086 -0.3499
18758TIP3    H177689   6.034   6.335   1.399  0.4508  0.0125 -0.1962
18758TIP3    H277690   5.934   6.449   1.401  0.5601  0.1027  0.8124
18759TIP3   OH277691   0.066   0.035   0.364  0.0815 -0.0359  0.0132
18759TIP3    H177692   0.052   0.123   0.401 -0.9035 -0.5045  0.8080
18759TIP3    H277693   0.091  -0.018   0.439  1.1006 -0.3529 -0.5422
18760TIP3   OH277694   5.186   2.300  16.319  0.2998 -0.0582 -0.2513
18760TIP3    H177695   5.127   2.307  16.394  0.5499  0.0291 -0.0595
18760TIP3    H277696   5.162   2.218  16.277 -0.4598  0.3404 -0.6134
18761TIP3   OH277697   4.205   3.712   3.876  0.7203  0.0230  0.9212
18761TIP3    H177698   4.299   3.704   3.895  0.8941  0.5277  0.2916
18761TIP3    H277699   4.173   3.778   3.937  1.2727  1.6183 -0.4426
18762TIP3   OH277700   6.245   3.246   2.147  0.5335 -0.8933  0.3684
18762TIP3    H177701   6.289   3.304   2.086 -1.1511 -0.5048 -0.5499
18762TIP3    H277702   6.279   3.159   2.127  1.6369 -0.4833  0.4270
18763TIP3   OH277703   4.439   2.551   5.744  0.2779 -0.2698  0.8481
18763TIP3    H177704   4.507   2.485   5.733 -0.1395 -0.3966 -1.2573
18763TIP3    H277705   4.487   2.633   5.757  0.7942 -0.6372  1.2944
18764TIP3   OH277706   5.411   5.186   3.743  0.0480 -0.0503  0.2051
18764TIP3    H177707   5.475   5.219   3.680  0.5293  1.1542  1.2735
18764TIP3    H277708   5.460   5.121   3.794 -0.1938 -0.6503 -0.3180
18765TIP3   OH277709   5.346   4.307  13.222 -0.4556  0.9251  0.0669
18765TIP3    H177710   5.264   4.310  13.174 -2.3567 -1.1848  2.8788
18765TIP3    H277711   5.352   4.392  13.265 -1.5675  0.8695  0.3631
18766TIP3   OH277712   1.486   2.006  14.661 -0.4284 -0.1577  0.2229
18766TIP3    H177713   1.418   2.061  14.700  0.4310  0.8815  0.3241
18766TIP3    H277714   1.498   2.041  14.573  0.9825  0.6839  0.6972
18767TIP3   OH277715   1.899   1.170  14.447 -0.1556  0.1429 -0.3468
18767TIP3    H177716   1.929   1.218  14.369  1.4768  0.5467  0.4898
18767TIP3    H277717   1.824   1.221  14.479 -1.8628 -0.8652 -2.4704
18768TIP3   OH277718   4.230   4.387  10.902 -0.2202 -0.1063  0.4686
18768TIP3    H177719   4.270   4.469  10.931  1.6480 -1.0435  0.7163
18768TIP3    H277720   4.257   4.379  10.810 -2.3622  0.6538 -0.2900
18769TIP3   OH277721   5.674   1.820  13.078 -0.1153 -0.6301 -0.1115
18769TIP3    H177722   5.759   1.794  13.115 -0.0049 -0.1554 -0.0256
18769TIP3    H277723   5.674   1.916  13.084  0.6667 -0.3689 -2.9524
18770TIP3   OH277724   0.701   2.701  17.170 -0.3262  0.5143 -0.3662
18770TIP3    H177725   0.780   2.751  17.153  1.1750 -1.0836  1.4384
18770TIP3    H277726   0.632   2.747  17.122  0.9623  4.0613  0.9199
18771TIP3   OH277727   1.556   6.537   5.024 -0.3326  0.5584 -0.3682
18771TIP3    H177728   1.641   6.535   4.981 -0.8342  0.2558 -1.3827
18771TIP3    H277729   1.570   6.488   5.106  0.8620  1.9368  0.2934
18772TIP3   OH277730   1.263   3.945  14.649  1.0333  0.9493  0.4916
18772TIP3    H177731   1.175   3.935  14.686  0.9986  0.6331  0.3257
18772TIP3    H277732   1.298   4.024  14.692  0.1568  1.8918 -0.4494
18773TIP3   OH277733   2.581   4.427   3.336 -0.5791  0.0682  0.4017
18773TIP3    H177734   2.598   4.425   3.430 -0.0064  0.3826  0.3084
18773TIP3    H277735   2.486   4.425   3.329 -0.7152  2.0791  1.0497
18774TIP3   OH277736   5.242   4.287   1.698  0.0427  0.1709 -0.0777
18774TIP3    H177737   5.292   4.335   1.764 -0.7024  2.0171 -0.7975
18774TIP3    H277738   5.170   4.247   1.747 -1.4701  2.8863  0.0960
18775TIP3   OH277739   0.535   1.427   4.524  0.0691 -0.2515  0.1484
18775TIP3    H177740   0.590   1.504   4.513  0.6582 -0.7655 -0.6808
18775TIP3    H277741   0.584   1.371   4.584  0.1552 -0.4432 -0.1001
18776TIP3   OH277742   1.685   2.936   0.114 -0.2809 -0.0815  0.3524
18776TIP3    H177743   1.766   2.967   0.156  0.6855 -2.0133  0.0498
18776TIP3    H277744   1.702   2.946   0.020 -0.6550  0.1457  0.3109
18777TIP3   OH277745   2.047   3.495  15.145  0.3127  0.1349 -0.7607
18777TIP3    H177746   2.043   3.591  15.150 -0.0116  0.0883  0.1785
18777TIP3    H277747   2.083   3.469  15.230 -0.4565 -0.6272 -0.6589
18778TIP3   OH277748   5.066   2.865   5.070  0.2376 -0.5519 -0.2497
18778TIP3    H177749   5.016   2.804   5.015  1.8274 -2.2215  0.0701
18778TIP3    H277750   5.046   2.951   5.033 -1.8808 -1.2553 -0.8817
18779TIP3   OH277751   2.963   5.668  11.589 -0.1791 -0.2333 -0.1374
18779TIP3    H177752   2.914   5.750  11.589  2.2810  1.4059  2.2518
18779TIP3    H277753   3.015   5.671  11.509 -2.1650 -0.9263 -1.5290
18780TIP3   OH277754   6.114   6.300  11.302  0.2972 -0.1323 -0.2293
18780TIP3    H177755   6.148   6.319  11.390 -0.0957  1.4249 -0.3802
18780TIP3    H277756   6.190   6.267  11.254  1.1437  1.3100  0.0371
18781TIP3   OH277757   6.425   3.697  16.583  0.0682 -0.1018 -0.1781
18781TIP3    H177758   6.377   3.772  16.618  0.3456  0.3738 -0.7792
18781TIP3    H277759   6.421   3.631  16.652  1.8190  1.2994  1.4009
18782TIP3   OH277760   2.810   1.179   1.041  0.3091 -0.1456  0.2855
18782TIP3    H177761   2.814   1.257   1.096 -0.2831 -0.0643  0.2232
18782TIP3    H277762   2.898   1.169   1.005 -0.0209  1.4861 -1.0705
18783TIP3   OH277763   6.410   2.928   0.341 -0.4169 -0.2382  0.1841
18783TIP3    H177764   6.474   2.934   0.412 -0.8843  1.1284  0.5015
18783TIP3    H277765   6.452   2.870   0.277 -0.2170 -1.9614  1.7850
18784TIP3   OH277766   0.041   3.336  12.105 -0.3022  0.7099  0.0360
18784TIP3    H177767  -0.052   3.315  12.098 -0.0614 -0.4700  0.0555
18784TIP3    H277768   0.075   3.328  12.016  0.4362 -2.4599  0.4695
18785TIP3   OH277769   0.273   3.398  16.310 -0.4872  0.0548  0.3812
18785TIP3    H177770   0.280   3.330  16.243 -0.0865 -0.4950  0.9683
18785TIP3    H277771   0.230   3.355  16.384 -0.9426  0.6566  0.4773
18786TIP3   OH277772   1.922   0.146  14.661 -0.7428  0.0430  0.0787
18786TIP3    H177773   1.948   0.214  14.724  1.4462 -0.9132  0.3131
18786TIP3    H277774   1.928   0.189  14.576 -1.2308  0.6529  0.3473
18787TIP3   OH277775   3.473   1.067   3.999  0.1883 -0.0302 -0.0431
18787TIP3    H177776   3.432   1.106   4.076  1.6272  2.7466 -0.5567
18787TIP3    H277777   3.403   1.060   3.935 -0.4836  0.0451  0.6688
18788TIP3   OH277778   3.710   3.840   1.764 -0.1594  0.3589 -0.5475
18788TIP3    H177779   3.701   3.792   1.846  0.5271  1.2898  0.0922
18788TIP3    H277780   3.802   3.830   1.741 -0.0163  1.3546 -0.4119
18789TIP3   OH277781   1.130   0.181  16.831  0.5367  0.0561 -0.2384
18789TIP3    H177782   1.099   0.100  16.871  1.5549 -0.6807 -0.8959
18789TIP3    H277783   1.050   0.227  16.804 -0.2149  0.5468  2.4498
18790TIP3   OH277784   3.924   6.547  12.659  0.1047  0.0189 -1.0933
18790TIP3    H177785   4.001   6.494  12.681 -0.3909 -0.0647  0.6218
18790TIP3    H277786   3.850   6.496  12.692 -0.6250  0.4941 -1.9493
18791TIP3   OH277787   2.955   5.149   3.441 -0.0228 -0.3263  0.1717
18791TIP3    H177788   2.895   5.074   3.441 -0.6569  0.1403 -1.2082
18791TIP3    H277789   2.925   5.204   3.513 -1.3452 -0.0765 -0.5253
18792TIP3   OH277790   4.980   4.149  15.179  0.1657  0.4701 -0.0756
18792TIP3    H177791   4.932   4.225  15.147  2.3247  1.4852 -1.1481
18792TIP3    H277792   5.046   4.132  15.112 -0.2254 -2.4064  0.1107
18793TIP3   OH277793   3.742   3.036   3.588 -0.3943  0.5247  0.7926
18793TIP3    H177794   3.668   2.989   3.627 -0.2045  0.9756  1.7256
18793TIP3    H277795   3.778   3.087   3.660  1.3865 -0.3607  0.5759
18794TIP3   OH277796   1.394   5.196  15.899  0.6603  0.0511 -0.2547
18794TIP3    H177797   1.455   5.151  15.840  0.5077 -1.8548  0.9552
18794TIP3    H277798   1.374   5.132  15.967  0.0679  1.8450  1.3575
18795TIP3   OH277799   3.475   4.697  14.696  0.4620 -0.5028 -0.0464
18795TIP3    H177800   3.536   4.687  14.769  1.8147  1.6213 -0.7898
18795TIP3    H277801   3.475   4.611  14.653  2.7468 -0.6731  0.1577
18796TIP3   OH277802   0.242   3.899  12.026 -0.6734 -0.4446 -0.0879
18796TIP3    H177803   0.221   3.806  12.034 -0.7817 -0.4606 -0.5213
18796TIP3    H277804   0.189   3.929  11.952  1.1453 -0.5841 -1.4977
18797TIP3   OH277805   0.173   5.573  12.426 -0.0951  0.0197  0.1368
18797TIP3    H177806   0.189   5.569  12.521 -1.1492  0.9514  0.3683
18797TIP3    H277807   0.078   5.577  12.418  0.0007  0.2998 -0.9595
18798TIP3   OH277808   3.237   0.244   4.322 -0.5367  0.6660 -0.5430
18798TIP3    H177809   3.295   0.221   4.250 -0.9913 -0.4968 -0.5470
18798TIP3    H277810   3.222   0.338   4.311  0.0760  0.6672 -1.4627
18799TIP3   OH277811   3.809   0.371   0.188 -0.1297  0.4921  0.6489
18799TIP3    H177812   3.785   0.279   0.199  0.8602 -0.2768 -2.4390
18799TIP3    H277813   3.892   0.379   0.234 -0.2957 -0.1248  1.0742
18800TIP3   OH277814   0.239   1.894   5.103  0.4024 -0.1599  0.2675
18800TIP3    H177815   0.226   1.966   5.165  0.4793 -0.1593  0.2831
18800TIP3    H277816   0.243   1.816   5.158 -0.5948 -0.2887  0.1887
18801TIP3   OH277817   2.085   0.658  14.968 -0.2349  0.2847 -0.0276
18801TIP3    H177818   2.137   0.721  14.917  1.3658  0.6310  1.9002
18801TIP3    H277819   2.098   0.575  14.923  0.6027  0.6887 -0.5604
18802TIP3   OH277820   3.181   4.093   2.321 -0.6039 -0.1634 -0.4539
18802TIP3    H177821   3.122   4.120   2.391 -0.8087 -1.5524 -0.0808
18802TIP3    H277822   3.252   4.157   2.325 -1.2409  0.5423  0.1650
18803TIP3   OH277823   4.917   2.202   5.279 -0.0664  0.1958  0.0868
18803TIP3    H177824   4.914   2.111   5.250  0.4093  0.1116  0.2936
18803TIP3    H277825   4.997   2.238   5.238 -0.5366  0.6714 -0.4317
18804TIP3   OH277826   0.240   2.479  11.907 -0.1548  0.0391  0.0320
18804TIP3    H177827   0.235   2.385  11.925  0.4085 -0.1035 -0.5020
18804TIP3    H277828   0.329   2.503  11.931 -0.6148  0.6713  1.1773
18805TIP3   OH277829   6.263   1.975   3.812  0.4607  0.3836  0.1062
18805TIP3    H177830   6.185   1.944   3.766  0.8391  1.0888 -1.0527
18805TIP3    H277831   6.329   1.907   3.798  0.0564 -0.2586  1.1661
18806TIP3   OH277832   3.533   1.130  10.715  0.4742 -0.1871  0.5073
18806TIP3    H177833   3.475   1.129  10.639  0.4337 -0.1897  0.5382
18806TIP3    H277834   3.493   1.068  10.776 -0.6328  1.2815  1.3685
18807TIP3   OH277835   0.591   1.562   0.245 -0.0506  0.2746 -0.2378
18807TIP3    H177836   0.496   1.561   0.254 -0.2006 -2.0869 -1.4397
18807TIP3    H277837   0.624   1.525   0.327 -0.2289  0.1323 -0.2299
18808TIP3   OH277838   5.162   1.426  10.752 -0.2069 -0.7385  0.4909
18808TIP3    H177839   5.181   1.417  10.658  2.0137  1.7646  0.5952
18808TIP3    H277840   5.096   1.495  10.756  2.2194  1.7278  0.8038
18809TIP3   OH277841   5.746   2.727   2.420  0.0204  0.3628  0.5904
18809TIP3    H177842   5.686   2.773   2.360  2.2375 -0.3893 -2.4546
18809TIP3    H277843   5.793   2.797   2.464 -2.8142  0.9741  2.9842
18810TIP3   OH277844   5.084   5.636  14.824 -0.3741 -0.2675  0.3522
18810TIP3    H177845   5.085   5.559  14.767  0.9582 -1.2876  1.6617
18810TIP3    H277846   5.047   5.605  14.906 -0.8483  0.7929  0.5575
18811TIP3   OH277847   0.531   0.858  15.295  0.0440 -0.2491  0.0596
18811TIP3    H177848   0.595   0.854  15.365  0.1270 -0.7510 -0.0419
18811TIP3    H277849   0.544   0.945  15.256 -0.9301  0.5991  1.5181
18812TIP3   OH277850   0.453   2.878  12.041  0.1286 -0.5084  0.6591
18812TIP3    H177851   0.449   2.800  12.095  0.0684  0.1019  1.5445
18812TIP3    H277852   0.405   2.855  11.961  0.1243 -1.3699  0.9086
18813TIP3   OH277853   5.422   5.390  14.715 -0.1563  0.8927 -0.4786
18813TIP3    H177854   5.421   5.306  14.762 -0.1163  0.7059 -0.8082
18813TIP3    H277855   5.403   5.455  14.783 -0.6347  0.5763 -0.3030
18814TIP3   OH277856   6.050   2.556  17.319  0.0318 -0.3257  0.1953
18814TIP3    H177857   6.103   2.559  17.399  0.1959 -0.1579  0.0805
18814TIP3    H277858   6.070   2.638  17.274 -0.4372 -0.1897  0.2229
18815TIP3   OH277859   0.721   4.934   4.226  0.2000  0.4495  0.3486
18815TIP3    H177860   0.650   4.982   4.183  0.5016  1.1261  0.5795
18815TIP3    H277861   0.761   4.882   4.157  0.3368  1.1081 -0.0779
18816TIP3   OH277862   2.794   2.946  16.811 -0.0919  0.5997 -0.5990
18816TIP3    H177863   2.861   2.905  16.757  0.4166  1.1995 -0.4353
18816TIP3    H277864   2.811   3.040  16.802  0.5356  0.7067  1.2637
18817TIP3   OH277865   4.899   1.829  11.997 -0.2136  0.2394 -0.0397
18817TIP3    H177866   4.913   1.924  11.994 -0.0336  0.2714  1.1983
18817TIP3    H277867   4.984   1.791  11.975  0.3615  0.4109  1.6669
18818TIP3   OH277868   3.383   4.536  12.938  0.1235  0.2450  0.2602
18818TIP3    H177869   3.335   4.618  12.925 -0.6721 -0.3547 -0.7331
18818TIP3    H277870   3.347   4.500  13.019 -1.4248 -0.3789 -0.6539
18819TIP3   OH277871   3.468   5.740   5.371 -0.0477  0.2413  0.3351
18819TIP3    H177872   3.443   5.648   5.371  3.2952 -0.7641  0.8259
18819TIP3    H277873   3.473   5.764   5.464  1.5926  0.1100  0.3079
18820TIP3   OH277874   6.285   5.573  15.056 -0.0241  0.1042  0.3382
18820TIP3    H177875   6.234   5.521  15.117 -1.0604  1.6007  0.8070
18820TIP3    H277876   6.302   5.655  15.102  1.3777  0.2948 -0.4454
18821TIP3   OH277877   6.262   1.239   6.324 -0.5073 -0.2072  0.2787
18821TIP3    H177878   6.311   1.227   6.405  1.4301  3.2612 -0.1517
18821TIP3    H277879   6.182   1.286   6.352 -0.4154 -0.0685  0.3099
18822TIP3   OH277880   6.514   4.349   4.994  0.0079  0.4640  0.1568
18822TIP3    H177881   6.457   4.362   5.070  0.9915  0.2413  0.9739
18822TIP3    H277882   6.517   4.254   4.982  1.2338  0.3675  0.9853
18823TIP3   OH277883   4.956   4.883   6.027  0.3459 -0.2851  0.0933
18823TIP3    H177884   4.941   4.800   5.981 -3.0950 -0.3538  1.0284
18823TIP3    H277885   5.038   4.869   6.075 -0.7994 -3.8402  1.4107
18824TIP3   OH277886   4.945   2.829   3.979 -0.5216  0.5263  0.3292
18824TIP3    H177887   4.979   2.783   4.056  0.3839 -0.0171 -0.3804
18824TIP3    H277888   4.883   2.892   4.015  0.5352  0.8940  1.5865
18825TIP3   OH277889   0.304   3.457   4.677 -0.1922  0.5698 -0.0285
18825TIP3    H177890   0.231   3.415   4.724 -0.4297  0.9693 -0.0358
18825TIP3    H277891   0.284   3.551   4.682  0.2224  0.6658 -0.1996
18826TIP3   OH277892   1.623   6.441  16.784  0.2952 -0.1161  0.0753
18826TIP3    H177893   1.673   6.502  16.838 -0.0814  0.8276 -0.6004
18826TIP3    H277894   1.540   6.486  16.768  0.3774 -0.3826 -1.2369
18827TIP3   OH277895   5.148   3.777   4.848  0.4862 -0.1626  0.2971
18827TIP3    H177896   5.116   3.859   4.885  0.4331 -0.3481  0.6791
18827TIP3    H277897   5.157   3.794   4.755  1.2812  0.5319  0.4904
18828TIP3   OH277898   1.957   5.553  15.736  0.4805 -0.3015  0.7628
18828TIP3    H177899   2.011   5.563  15.658  2.5351  0.7873  2.2412
18828TIP3    H277900   1.942   5.642  15.766 -2.6558 -0.5131  0.1755
18829TIP3   OH277901   2.093   1.164  17.159  0.0182 -0.3961 -0.3464
18829TIP3    H177902   2.104   1.237  17.099 -0.2793  1.4032  1.6776
18829TIP3    H277903   2.181   1.130  17.173  0.4438  0.8918  0.2150
18830TIP3   OH277904   3.405   5.980   2.871  0.0779  1.0062  0.2353
18830TIP3    H177905   3.492   6.005   2.903 -0.4422  1.8360  1.0234
18830TIP3    H277906   3.417   5.890   2.838  1.0408  0.8130  1.0614
18831TIP3   OH277907   5.167   0.782   2.265  0.0086  0.5228 -0.0352
18831TIP3    H177908   5.083   0.744   2.293  0.1576  0.8683  0.9398
18831TIP3    H277909   5.231   0.713   2.279 -0.3665 -0.5193 -2.8314
18832TIP3   OH277910   4.606   5.156  11.737  0.2911 -0.4005 -0.0702
18832TIP3    H177911   4.545   5.122  11.672 -2.5803  2.7052  0.7418
18832TIP3    H277912   4.568   5.131  11.822  0.1739  1.4019  0.4487
18833TIP3   OH277913   0.701   4.933   4.683  0.1992  0.1245 -0.3472
18833TIP3    H177914   0.680   4.917   4.591 -0.0662  1.1980 -0.4854
18833TIP3    H277915   0.622   4.971   4.720  0.3288 -0.2329  0.3173
18834TIP3   OH277916   5.840   3.513   1.440  0.1076  0.4302 -0.2148
18834TIP3    H177917   5.874   3.537   1.354 -0.2853  0.1290 -0.4542
18834TIP3    H277918   5.772   3.448   1.423 -0.4912  0.9083  0.2722
18835TIP3   OH277919   1.275   5.721  15.100  0.5195  0.2424  0.6289
18835TIP3    H177920   1.244   5.802  15.059  2.0958 -0.3394 -2.0215
18835TIP3    H277921   1.366   5.740  15.123  0.9975 -0.7887 -0.2940
18836TIP3   OH277922   1.181   5.653  14.535 -0.2213  0.3498  0.1427
18836TIP3    H177923   1.256   5.594  14.546  0.0724  0.6279 -0.3266
18836TIP3    H277924   1.106   5.603  14.566  0.0448 -0.2313 -0.1382
18837TIP3   OH277925   1.138   5.065   0.974  0.0034 -0.6699  0.0845
18837TIP3    H177926   1.050   5.099   0.994 -1.4331 -3.3409 -1.2257
18837TIP3    H277927   1.132   4.971   0.989  2.5594 -1.0023 -0.4845
18838TIP3   OH277928   6.761   6.088   1.046 -0.0505 -0.3508 -0.2042
18838TIP3    H177929   6.803   6.019   1.098  1.2801 -0.1500 -0.9891
18838TIP3    H277930   6.833   6.140   1.011 -0.9972  0.7452 -0.6023
18839TIP3   OH277931   6.388   2.924  12.222  0.1011 -0.0723  0.0462
18839TIP3    H177932   6.305   2.894  12.259 -0.9717  1.2075 -1.1983
18839TIP3    H277933   6.408   2.861  12.152  0.3172 -0.4929  0.4745
18840TIP3   OH277934   2.303   0.739  15.174 -0.1992 -0.8407 -0.0986
18840TIP3    H177935   2.309   0.816  15.117 -1.2685 -0.1914  0.6157
18840TIP3    H277936   2.300   0.665  15.114  0.1499 -0.2732 -0.8356
18841TIP3   OH277937   2.194   2.051  11.444 -0.4356  0.0309  0.0238
18841TIP3    H177938   2.282   2.029  11.476 -0.4916  0.8719  0.7986
18841TIP3    H277939   2.197   2.032  11.350  0.7098  0.4194 -0.0383
18842TIP3   OH277940   3.875   5.055  14.576  0.0682 -0.1216 -0.6917
18842TIP3    H177941   3.817   4.992  14.534  0.1387 -0.9860  0.4504
18842TIP3    H277942   3.829   5.138  14.571 -1.2333 -0.7610  0.0729
18843TIP3   OH277943   0.143   5.406  15.511 -0.1958 -0.3677 -0.2340
18843TIP3    H177944   0.153   5.311  15.502  0.2251 -0.3918  0.4609
18843TIP3    H277945   0.211   5.432  15.574 -1.3713  0.1700  0.8505
18844TIP3   OH277946   1.519   4.424   1.082 -0.2241  0.8524  0.6360
18844TIP3    H177947   1.454   4.374   1.131 -0.7427  0.9283  0.0323
18844TIP3    H277948   1.571   4.357   1.037 -0.6948  0.8312  0.1100
18845TIP3   OH277949   0.800   6.696   2.021  0.2590  0.3994  0.2015
18845TIP3    H177950   0.852   6.741   2.088  0.2810  1.3902 -0.4538
18845TIP3    H277951   0.767   6.767   1.966  0.9629 -0.4533 -1.3676
18846TIP3   OH277952   0.134   5.716   2.837  0.1559 -0.0002 -0.0689
18846TIP3    H177953   0.179   5.746   2.758  0.9096  0.8968  0.6923
18846TIP3    H277954   0.187   5.749   2.909 -1.6711  1.0483  0.8569
18847TIP3   OH277955   1.711   5.041   1.849 -0.4141  0.5677 -0.5382
18847TIP3    H177956   1.740   4.976   1.913 -2.6603  1.1265  1.1621
18847TIP3    H277957   1.709   4.993   1.766  0.6993 -0.7223  0.1298
18848TIP3   OH277958   1.235   5.599  10.814  0.0011  0.4037  0.7800
18848TIP3    H177959   1.195   5.513  10.805  0.9486  0.0952 -0.7778
18848TIP3    H277960   1.282   5.594  10.897 -0.2834 -0.4374  0.9002
18849TIP3   OH277961   3.019   4.382  14.874 -0.0465 -0.1141  0.6768
18849TIP3    H177962   3.032   4.326  14.798  1.3472 -0.0834  0.8767
18849TIP3    H277963   2.991   4.323  14.944  0.5376 -0.4290  0.6465
18850TIP3   OH277964   2.399   5.936   4.856 -0.7530  0.0899  0.0954
18850TIP3    H177965   2.379   5.950   4.763 -1.2473  1.0465  0.3267
18850TIP3    H277966   2.322   5.892   4.891 -0.5910 -0.2172  0.0703
18851TIP3   OH277967   5.047   4.742  16.400  0.7914 -0.1182  0.6696
18851TIP3    H177968   4.968   4.743  16.346  0.6643  1.1481  0.8488
18851TIP3    H277969   5.103   4.677  16.359 -0.0197 -0.4409  0.0543
18852TIP3   OH277970   3.442   5.081  15.966 -0.0157  0.2465  0.0567
18852TIP3    H177971   3.493   5.162  15.963  0.2773  0.0872  0.6675
18852TIP3    H277972   3.419   5.064  15.874 -0.1417  1.0545 -0.0672
18853TIP3   OH277973   2.820   1.324  16.802  0.1996 -0.1916 -0.4714
18853TIP3    H177974   2.730   1.292  16.799 -0.2780  1.1172 -0.6383
18853TIP3    H277975   2.868   1.266  16.742 -0.2175 -1.7660  0.6597
18854TIP3   OH277976   6.110   1.325  11.520  0.1510  0.1539 -0.9053
18854TIP3    H177977   6.162   1.287  11.449  2.8874  1.0137  0.4893
18854TIP3    H277978   6.087   1.412  11.488 -0.1967 -0.1191 -1.4197
18855TIP3   OH277979   6.315   0.220  15.867 -0.2697  0.6753  0.6693
18855TIP3    H177980   6.312   0.153  15.798 -0.3760  0.6133  0.7338
18855TIP3    H277981   6.267   0.182  15.940 -0.7220  1.0040  0.5454
18856TIP3   OH277982   1.501   5.237  16.467  0.0311 -0.5517  0.0454
18856TIP3    H177983   1.539   5.288  16.539 -1.2136  0.9883 -0.3442
18856TIP3    H277984   1.485   5.151  16.506 -0.4717  0.2039  1.5924
18857TIP3   OH277985   4.181   3.593   5.673 -0.3122  0.0957  0.1500
18857TIP3    H177986   4.201   3.562   5.584 -0.4890 -0.1220  0.1844
18857TIP3    H277987   4.244   3.548   5.729  0.6935  1.2522 -0.0039
18858TIP3   OH277988   1.940   2.617   1.429  0.8968  0.0209  0.5223
18858TIP3    H177989   1.913   2.708   1.416 -1.2676 -0.5595  0.5019
18858TIP3    H277990   2.036   2.619   1.426  0.8743  2.1621 -0.3146
18859TIP3   OH277991   4.844   3.175  11.394 -0.2180  0.3900  0.6514
18859TIP3    H177992   4.881   3.154  11.309 -1.1820  0.5821  0.1676
18859TIP3    H277993   4.892   3.119  11.456 -0.2686 -0.5731 -0.1534
18860TIP3   OH277994   6.463   0.186   3.258  0.0261 -0.6536 -0.7202
18860TIP3    H177995   6.512   0.241   3.196 -0.4775 -0.6869 -1.1546
18860TIP3    H277996   6.375   0.224   3.260  0.0708 -0.5730  0.0813
18861TIP3   OH277997   6.672   1.719  13.943 -0.0313 -0.1205  0.0595
18861TIP3    H177998   6.661   1.701  14.036  1.4674 -0.7410  0.1324
18861TIP3    H277999   6.702   1.810  13.939 -2.4011  0.7443 -0.0072
18862TIP3   OH278000   1.755   3.780   0.169  0.0808 -0.5209  0.1457
18862TIP3    H178001   1.812   3.794   0.245 -1.0095  1.6019  0.6623
18862TIP3    H278002   1.799   3.712   0.119  2.7599  0.5578  0.8130
18863TIP3   OH278003   4.309   3.511  12.641 -0.5714  0.5499 -0.0568
18863TIP3    H178004   4.219   3.501  12.673  0.1315 -0.1145  1.8541
18863TIP3    H278005   4.299   3.549  12.554 -2.7082  0.2992  0.0158
18864TIP3   OH278006   5.060   6.643  13.966  0.1469  0.1673  0.5275
18864TIP3    H178007   5.059   6.725  13.917 -1.2166 -0.5316 -0.6821
18864TIP3    H278008   4.971   6.609  13.959  0.8061 -1.6919  0.5274
18865TIP3   OH278009   3.972   3.584  16.187  0.3954  0.2440 -0.4259
18865TIP3    H178010   3.970   3.509  16.128 -2.9763  0.2310 -0.4938
18865TIP3    H278011   3.897   3.637  16.160  0.2634  1.5461  2.2428
18866TIP3   OH278012   2.024   4.215   5.691  0.2640  0.3403  0.2079
18866TIP3    H178013   1.934   4.185   5.708  0.0088  0.0028 -1.5238
18866TIP3    H278014   2.039   4.192   5.599  2.1185  0.4339  0.4642
18867TIP3   OH278015   3.944   2.888  16.566  0.2843  0.5930 -0.4896
18867TIP3    H178016   3.935   2.922  16.476  0.3249  1.0655 -0.3205
18867TIP3    H278017   4.035   2.909  16.589  0.9021 -1.3062 -1.0511
18868TIP3   OH278018   0.686   6.198  17.005 -0.3369 -0.0561  0.1648
18868TIP3    H178019   0.693   6.105  17.025  1.0591  0.1784  0.9422
18868TIP3    H278020   0.711   6.242  17.087 -0.2592  0.9888 -0.3963
18869TIP3   OH278021   1.507   4.594  13.537  0.0028 -0.0371  0.2795
18869TIP3    H178022   1.497   4.521  13.597 -0.7951 -0.4254 -0.3117
18869TIP3    H278023   1.465   4.668  13.582 -1.2141 -0.4902 -0.0713
18870TIP3   OH278024   2.371   5.048   4.096  0.0351 -0.0077 -0.1946
18870TIP3    H178025   2.439   5.044   4.164  0.9031 -0.3610 -1.0704
18870TIP3    H278026   2.308   5.113   4.130  0.7919  0.3184  0.6345
18871TIP3   OH278027   0.525   3.387  13.674 -0.0766 -0.4723 -0.3660
18871TIP3    H178028   0.489   3.380  13.585 -1.4799 -1.7004  0.2590
18871TIP3    H278029   0.450   3.375  13.732  0.9030 -0.2516  1.0109
18872TIP3   OH278030   5.049   0.313   3.460  0.1662 -0.0072  0.2594
18872TIP3    H178031   5.084   0.227   3.485 -0.6989 -0.8402 -1.2658
18872TIP3    H278032   5.096   0.375   3.516  1.9645 -1.3250  0.3110
18873TIP3   OH278033   0.114   0.251  15.637 -0.0057 -0.2385  0.0980
18873TIP3    H178034   0.020   0.268  15.633 -0.3912 -2.0105  0.6591
18873TIP3    H278035   0.127   0.173  15.583  1.4044  0.8082 -1.1690
18874TIP3   OH278036   5.804   5.729   4.578  0.1515  0.6548 -0.1786
18874TIP3    H178037   5.731   5.669   4.591 -0.1278  0.9190 -0.5255
18874TIP3    H278038   5.879   5.671   4.561 -0.3099  0.4146 -1.5292
18875TIP3   OH278039   1.493   4.596  16.455  0.4197 -0.3708  0.5263
18875TIP3    H178040   1.513   4.598  16.361 -0.4159 -0.9637  0.3317
18875TIP3    H278041   1.463   4.507  16.471  0.8176 -0.3466  1.4197
18876TIP3   OH278042   5.986   5.771   4.870 -0.5234 -0.2039 -0.2292
18876TIP3    H178043   6.034   5.809   4.944  0.3355 -0.1592 -0.7919
18876TIP3    H278044   5.987   5.839   4.803  1.7936 -1.4262 -1.5858
18877TIP3   OH278045   1.041   5.203  15.077  0.0686  0.3329 -0.3459
18877TIP3    H178046   0.997   5.166  15.001 -0.0917  1.4201 -0.8052
18877TIP3    H278047   1.046   5.297  15.058 -0.8817  0.7939  1.4162
18878TIP3   OH278048   4.027   0.516   1.336 -0.2917 -0.2570  0.1970
18878TIP3    H178049   3.974   0.449   1.380  0.3269 -0.5046  0.5854
18878TIP3    H278050   4.034   0.586   1.400 -1.2456  0.3468 -0.3474
18879TIP3   OH278051   3.005   3.244  16.607  0.1124  0.1822  0.0419
18879TIP3    H178052   2.940   3.246  16.677 -0.1872  0.2425 -0.2395
18879TIP3    H278053   3.081   3.201  16.646 -0.7129 -1.5219 -0.1751
18880TIP3   OH278054   4.305   2.112  13.112  0.1499  0.4159 -0.5430
18880TIP3    H178055   4.220   2.068  13.112  0.0592  0.5914 -0.3519
18880TIP3    H278056   4.300   2.175  13.041  0.6185 -0.5295 -1.4511
18881TIP3   OH278057   0.539   4.351  16.608  0.1648 -0.0935 -0.5070
18881TIP3    H178058   0.623   4.379  16.572  0.5010 -1.4829 -0.8783
18881TIP3    H278059   0.554   4.345  16.702  0.7607 -1.1293 -0.6481
18882TIP3   OH278060   4.947   5.224  14.989 -0.0779  0.7046 -0.2513
18882TIP3    H178061   4.981   5.141  14.958  1.8599  1.1982  0.4210
18882TIP3    H278062   4.863   5.202  15.029 -0.3289 -0.6643 -1.4555
18883TIP3   OH278063   0.693   1.476   0.002  0.1827 -0.8848 -0.1928
18883TIP3    H178064   0.628   1.414  -0.030  1.5184 -3.6376  2.0017
18883TIP3    H278065   0.651   1.517   0.078  0.3340 -1.3011  0.1192
18884TIP3   OH278066   4.138   6.287   5.959  0.1954  0.0762 -0.4980
18884TIP3    H178067   4.043   6.276   5.945 -0.2646  2.5038  0.2438
18884TIP3    H278068   4.171   6.316   5.874  0.0745  0.2485 -0.4885
18885TIP3   OH278069   1.710   4.684  12.257 -0.3935 -0.3759 -0.4194
18885TIP3    H178070   1.725   4.687  12.162  1.1533 -1.3301 -0.2520
18885TIP3    H278071   1.790   4.719  12.295  0.0234 -2.2527  0.5462
18886TIP3   OH278072   4.537   0.744  13.158 -0.5467 -0.1444  0.0586
18886TIP3    H178073   4.488   0.822  13.181  0.5738  0.7654 -0.5335
18886TIP3    H278074   4.536   0.691  13.237  2.3589  2.4291  2.0478
18887TIP3   OH278075   2.839   3.744  12.274  0.2936  0.0972  0.0183
18887TIP3    H178076   2.854   3.744  12.368 -0.0462 -0.6606  0.0790
18887TIP3    H278077   2.786   3.822  12.258  1.5120  1.0102  0.2443
18888TIP3   OH278078   5.054   6.523  14.682  0.4601 -0.5467 -0.1804
18888TIP3    H178079   5.138   6.488  14.711  0.5455  0.3652  0.7489
18888TIP3    H278080   4.995   6.506  14.755 -0.2704 -1.4974 -0.9711
18889TIP3   OH278081   4.037   0.148   1.763  0.0087  0.0398 -0.4973
18889TIP3    H178082   4.066   0.057   1.758  0.7757  0.2794 -0.4708
18889TIP3    H278083   3.950   0.143   1.804 -0.5421 -0.7861 -1.7154
18890TIP3   OH278084   6.686   4.414  17.050  0.2118 -0.1951  0.0176
18890TIP3    H178085   6.677   4.319  17.047 -0.2662 -0.3936  3.4244
18890TIP3    H278086   6.622   4.446  16.986  0.2192 -2.1180 -1.0406
18891TIP3   OH278087   5.646   5.044  16.497  0.4002  0.2361  0.2706
18891TIP3    H178088   5.591   5.079  16.427  1.3380 -0.2440 -0.7501
18891TIP3    H278089   5.735   5.071  16.473  0.9782 -1.5977  0.1881
18892TIP3   OH278090   5.924   0.738   2.895  0.3547 -0.1595  0.3389
18892TIP3    H178091   5.842   0.755   2.942  0.9846  3.8762  0.3222
18892TIP3    H278092   5.898   0.687   2.819 -1.7740 -0.8361  1.4376
18893TIP3   OH278093   2.734   3.476   2.037  0.0249 -0.8643  0.0594
18893TIP3    H178094   2.816   3.525   2.046 -0.4688 -0.1485  0.8412
18893TIP3    H278095   2.699   3.503   1.952 -0.3195  0.2996  0.5485
18894TIP3   OH278096   3.298   2.808   0.441  0.1952  0.1131 -0.0442
18894TIP3    H178097   3.311   2.779   0.351  0.0451 -0.7828  0.2172
18894TIP3    H278098   3.251   2.736   0.483 -0.1545  0.7227  0.6290
18895TIP3   OH278099   0.326   0.718  15.858  0.0622 -0.1080 -0.2891
18895TIP3    H178100   0.269   0.651  15.820  0.3726  0.0929 -1.1430
18895TIP3    H278101   0.377   0.750  15.783  2.1116 -1.0757  0.6094
18896TIP3   OH278102   0.130   0.164  14.959 -0.2033 -0.2393  0.1239
18896TIP3    H178103   0.088   0.246  14.985 -0.1616  0.6186 -2.2684
18896TIP3    H278104   0.175   0.185  14.878  1.7168 -2.1017  0.6068
18897TIP3   OH278105   1.322   6.675   3.218  0.1048  0.4160 -0.3363
18897TIP3    H178106   1.232   6.676   3.252 -0.0682  1.1571 -0.7987
18897TIP3    H278107   1.316   6.718   3.133  0.7695 -0.2459 -0.7285
18898TIP3   OH278108   5.597   5.719   0.962 -0.1531  0.4579 -0.1265
18898TIP3    H178109   5.553   5.676   1.035 -1.0644  1.3107 -0.1612
18898TIP3    H278110   5.596   5.654   0.891 -1.1987  0.3922 -0.0657
18899TIP3   OH278111   5.374   1.870  13.248 -0.1046 -0.0230 -0.0147
18899TIP3    H178112   5.385   1.816  13.169  0.9163 -0.2404  0.2491
18899TIP3    H278113   5.349   1.956  13.216 -0.3875 -0.2982 -0.5356
18900TIP3   OH278114   0.523   5.501   2.172  0.3481 -0.8617 -0.3999
18900TIP3    H178115   0.602   5.521   2.121 -0.1958  2.1937 -0.2441
18900TIP3    H278116   0.554   5.494   2.262  0.4110  1.5378 -0.1585
18901TIP3   OH278117   6.753   0.821   3.827  0.2790  0.2502  0.2915
18901TIP3    H178118   6.743   0.910   3.860 -0.1843  0.1777  0.3543
18901TIP3    H278119   6.825   0.784   3.879  1.3966  1.0185 -0.6630
18902TIP3   OH278120   1.170   5.383   0.101 -0.4045 -0.1426  0.3116
18902TIP3    H178121   1.240   5.414   0.159  0.3589 -0.1814 -0.5599
18902TIP3    H278122   1.177   5.288   0.104 -0.6017 -0.1529  0.4380
18903TIP3   OH278123   0.824   3.118   5.946 -0.2369 -0.3288 -0.0262
18903TIP3    H178124   0.748   3.132   6.002 -2.4966  0.0758 -2.9689
18903TIP3    H278125   0.837   3.023   5.946  1.3529 -0.2336  2.8833
18904TIP3   OH278126   0.460   0.255  11.646 -0.4909 -0.0789  0.1828
18904TIP3    H178127   0.527   0.315  11.679  1.2670 -2.6112  1.5362
18904TIP3    H278128   0.415   0.224  11.724 -2.2995  0.4358 -0.6013
18905TIP3   OH278129   3.956   4.773   2.274  0.4592  0.4584 -0.1988
18905TIP3    H178130   3.923   4.774   2.184  1.1867 -3.0518 -0.6235
18905TIP3    H278131   4.039   4.821   2.270  0.5017  0.3169 -1.3963
18906TIP3   OH278132   0.069   2.727  16.037 -0.3445  0.0897  0.0080
18906TIP3    H178133   0.046   2.816  16.062 -0.1065  0.3894 -0.8102
18906TIP3    H278134   0.035   2.673  16.109 -0.4563  0.8318  0.5309
18907TIP3   OH278135   1.092   5.228  16.685 -0.1058  0.3527  0.4990
18907TIP3    H178136   1.106   5.158  16.622 -3.4904 -1.1476  1.1904
18907TIP3    H278137   1.122   5.192  16.768  0.1388  0.5856  0.5148
18908TIP3   OH278138   2.135   1.866   1.760 -0.0855 -0.1862 -0.0334
18908TIP3    H178139   2.150   1.944   1.814 -1.7114  0.6387 -0.6738
18908TIP3    H278140   2.209   1.865   1.699 -0.2300  1.1401 -0.2819
18909TIP3   OH278141   2.780   4.210  12.484 -0.0437  0.5171  0.1210
18909TIP3    H178142   2.855   4.241  12.536 -0.0944 -0.2383  0.6739
18909TIP3    H278143   2.733   4.152  12.544 -0.7226  0.4923 -0.4327
18910TIP3   OH278144   5.106   0.077   3.569 -0.3055 -0.1221 -0.0550
18910TIP3    H178145   5.157   0.012   3.617  1.4605  1.3388  0.1828
18910TIP3    H278146   5.065   0.028   3.498  0.2030 -1.6352  0.6449
18911TIP3   OH278147   5.583   6.346  15.155  0.1171  0.1075 -0.1372
18911TIP3    H178148   5.562   6.253  15.150 -0.4609  0.0219  2.5055
18911TIP3    H278149   5.672   6.349  15.189  0.1904  0.5453 -0.3564
18912TIP3   OH278150   2.712   3.145   3.522  0.3094  0.5648 -0.0325
18912TIP3    H178151   2.623   3.111   3.536  0.8460 -0.7890  0.2912
18912TIP3    H278152   2.704   3.202   3.445 -0.9257  0.8739  0.2999
18913TIP3   OH278153   1.793   4.560   3.057 -0.6706 -0.0520 -0.0387
18913TIP3    H178154   1.861   4.583   2.992 -0.8514  0.3485 -0.0911
18913TIP3    H278155   1.836   4.497   3.115 -0.2754  0.1360 -0.1203
18914TIP3   OH278156   5.175   0.726   0.782 -0.0820 -0.3905  0.1417
18914TIP3    H178157   5.134   0.689   0.861 -0.4319  0.6264  0.4406
18914TIP3    H278158   5.253   0.770   0.815 -0.2787  0.1145 -0.0652
18915TIP3   OH278159   4.112   5.616   4.954 -0.3041  0.0803  0.8445
18915TIP3    H178160   4.145   5.553   5.018 -0.5288 -1.7391 -0.7486
18915TIP3    H278161   4.038   5.658   4.998  0.3527 -0.1626  2.2316
18916TIP3   OH278162   5.925   1.732  13.750  0.3471 -0.0364  0.2081
18916TIP3    H178163   5.880   1.802  13.797  1.7217  0.0527  1.4442
18916TIP3    H278164   5.860   1.700  13.687 -0.8963  1.1384  0.8467
18917TIP3   OH278165   0.530   0.905  12.797 -0.5304 -0.0286 -0.6662
18917TIP3    H178166   0.568   0.852  12.728  1.2246 -0.9392  0.9317
18917TIP3    H278167   0.579   0.882  12.876 -1.5923  1.9117  0.6504
18918TIP3   OH278168   2.506   3.683  13.050 -0.4988 -0.3812  0.0299
18918TIP3    H178169   2.493   3.668  12.956  0.9271 -0.0831 -0.2366
18918TIP3    H278170   2.542   3.600  13.082  0.6287  0.0642 -0.0407
18919TIP3   OH278171   0.627   4.213   4.872 -0.5811 -0.1953 -0.8533
18919TIP3    H178172   0.533   4.213   4.885 -0.5287 -1.8283 -0.2900
18919TIP3    H278173   0.643   4.286   4.812 -2.2720 -0.3666 -1.5646
18920TIP3   OH278174   2.526   4.003  10.488  0.0425 -0.3435  0.0707
18920TIP3    H178175   2.451   4.021  10.431  0.9478  1.3935 -0.6523
18920TIP3    H278176   2.585   3.951  10.434  1.0154  1.5186 -0.7534
18921TIP3   OH278177   1.624   6.757   4.656 -0.2085  0.1999  0.3555
18921TIP3    H178178   1.711   6.769   4.695 -0.1238  1.0372 -0.0773
18921TIP3    H278179   1.622   6.818   4.582 -0.4468 -1.1820 -0.8278
18922TIP3   OH278180   4.803   5.669   0.729 -0.0906 -0.4217 -0.4693
18922TIP3    H178181   4.746   5.658   0.805 -0.6847  0.9678 -0.6783
18922TIP3    H278182   4.758   5.623   0.658 -0.1359 -0.7037 -0.2559
18923TIP3   OH278183   4.852   3.429  14.404  0.1311  0.0787  0.4023
18923TIP3    H178184   4.811   3.446  14.489 -1.2273 -0.4920 -0.1042
18923TIP3    H278185   4.844   3.334  14.393 -2.2719  0.4007 -1.5428
18924TIP3   OH278186   2.045   5.091  16.629  0.1777  0.0156 -0.6991
18924TIP3    H178187   2.036   5.034  16.553 -0.1037 -0.5193 -0.2701
18924TIP3    H278188   2.093   5.168  16.596 -2.0980  0.9554 -2.0258
18925TIP3   OH278189   0.641   0.841   1.481  0.4673  0.7002  0.3249
18925TIP3    H178190   0.592   0.774   1.529  0.1870  1.5844  1.3046
18925TIP3    H278191   0.642   0.916   1.539  2.4631  0.9187  0.0707
18926TIP3   OH278192   6.727   4.178   5.052 -0.2075 -0.0732 -0.6529
18926TIP3    H178193   6.745   4.140   4.966  1.1108  0.3391 -0.5706
18926TIP3    H278194   6.813   4.197   5.089 -0.7613 -0.1845  0.7439
18927TIP3   OH278195   2.569   4.337   6.136 -0.1985 -0.0100  0.1052
18927TIP3    H178196   2.527   4.256   6.105  1.4682 -0.6490 -0.6089
18927TIP3    H278197   2.571   4.328   6.231  0.0003 -0.8578  0.0344
18928TIP3   OH278198   2.870   3.832  14.715  0.1857 -0.4075  0.6123
18928TIP3    H178199   2.906   3.915  14.745  1.3428 -0.6097 -0.1544
18928TIP3    H278200   2.945   3.772  14.716 -0.0585 -0.7934 -1.2092
18929TIP3   OH278201   6.218   2.930   3.194 -0.1644  0.0386 -0.0022
18929TIP3    H178202   6.208   2.907   3.286  1.3828 -0.8340 -0.0185
18929TIP3    H278203   6.145   2.886   3.150 -0.0479 -0.7874  0.6132
18930TIP3   OH278204   3.081   1.674   5.086 -0.3423 -0.0989 -0.4718
18930TIP3    H178205   3.130   1.702   5.010  0.1646 -0.3078 -0.2298
18930TIP3    H278206   3.062   1.754   5.135  1.1329 -0.1531  0.2389
18931TIP3   OH278207   2.801   4.005  16.962  0.4727 -0.0027 -0.2442
18931TIP3    H178208   2.791   3.940  16.892  0.0700  0.8166 -0.9553
18931TIP3    H278209   2.881   3.978  17.007  0.7546 -0.5333 -1.0270
18932TIP3   OH278210   1.411   1.489   1.528 -0.2538  0.4075  0.8813
18932TIP3    H178211   1.391   1.582   1.532 -0.8288  0.3955 -0.7583
18932TIP3    H278212   1.336   1.450   1.483 -0.5042 -1.0236  2.4396
18933TIP3   OH278213   2.545   2.778  10.694  0.0025 -0.4505 -0.1528
18933TIP3    H178214   2.622   2.787  10.639 -0.7930  1.0121 -1.1177
18933TIP3    H278215   2.487   2.718  10.646  0.6394 -1.7932  0.7197
18934TIP3   OH278216   4.622   0.074  12.253 -0.3227 -0.4186 -0.5143
18934TIP3    H178217   4.606   0.099  12.343 -1.2484 -0.8568 -0.5516
18934TIP3    H278218   4.612  -0.021  12.251 -0.0023 -0.4529 -1.0211
18935TIP3   OH278219   5.925   2.788   3.454  0.4373 -0.5776 -0.4069
18935TIP3    H178220   5.889   2.797   3.542 -1.7142  2.1049 -1.4004
18935TIP3    H278221   5.876   2.715   3.415 -0.8452  0.2089 -0.3202
18936TIP3   OH278222   2.490   1.180  12.236  0.6888  0.0099  0.2920
18936TIP3    H178223   2.423   1.137  12.289  0.1466 -0.2452 -0.5891
18936TIP3    H278224   2.466   1.273  12.238  0.1956 -0.1071 -0.1833
18937TIP3   OH278225   2.762   5.064   3.198 -0.2319  0.0127 -0.6144
18937TIP3    H178226   2.677   5.108   3.197 -0.6723 -0.8067 -0.9957
18937TIP3    H278227   2.759   5.009   3.277 -0.4525 -0.7456 -1.1427
18938TIP3   OH278228   5.988   1.838  16.119 -0.4328 -0.1811  0.1718
18938TIP3    H178229   6.069   1.813  16.164  1.1557  1.2178 -1.7018
18938TIP3    H278230   5.952   1.756  16.086  1.2247 -0.6821 -0.4716
18939TIP3   OH278231   1.598   6.121   5.368  0.0325 -0.2487 -0.5016
18939TIP3    H178232   1.601   6.118   5.463  1.0244 -0.6781 -0.5339
18939TIP3    H278233   1.678   6.076   5.340 -0.9668 -1.4624 -1.5483
18940TIP3   OH278234   6.372   2.188  13.119 -0.6350  0.4365 -0.5163
18940TIP3    H178235   6.462   2.221  13.123 -0.7220  0.6101  0.0733
18940TIP3    H278236   6.361   2.140  13.201 -0.9547  0.0879 -0.7635
18941TIP3   OH278237   0.225   0.560   2.647 -0.4409  0.8904  0.5237
18941TIP3    H178238   0.287   0.494   2.617  0.5234  1.2650  1.6291
18941TIP3    H278239   0.145   0.510   2.665  1.0553 -0.6063  4.0651
18942TIP3   OH278240   1.134   5.364  13.089 -0.9613  0.4993 -0.2055
18942TIP3    H178241   1.092   5.387  13.006 -1.4828 -0.0158 -0.0933
18942TIP3    H278242   1.061   5.350  13.150 -0.6116  0.1092  0.1343
18943TIP3   OH278243   6.016   3.153   4.268 -0.0120  0.0928 -0.2110
18943TIP3    H178244   5.940   3.200   4.303 -0.4487 -2.1175  2.1206
18943TIP3    H278245   6.087   3.216   4.270 -0.6485  0.8434  2.4472
18944TIP3   OH278246   3.668   5.036  17.075  0.7053 -0.1986 -0.0793
18944TIP3    H178247   3.577   5.025  17.049  1.2587  1.1313 -3.0778
18944TIP3    H278248   3.680   5.131  17.084  1.9914 -0.2633 -0.7939
18945TIP3   OH278249   4.417   1.774   0.633  0.0832 -0.1030 -0.3842
18945TIP3    H178250   4.389   1.741   0.719  0.5248  0.8278  0.1262
18945TIP3    H278251   4.335   1.794   0.588 -0.2070  3.2059  1.3340
18946TIP3   OH278252   1.908   2.380   3.517  0.4715 -0.2259 -0.2665
18946TIP3    H178253   1.986   2.382   3.460 -0.0220  2.1025 -0.9728
18946TIP3    H278254   1.895   2.287   3.536  4.0213 -0.6655  0.7599
18947TIP3   OH278255   1.064   6.320   0.738 -0.5124 -0.2730 -0.0498
18947TIP3    H178256   1.070   6.412   0.762 -0.9905 -0.3305  0.2928
18947TIP3    H278257   1.095   6.317   0.647  1.5664 -0.0898  0.6094
18948TIP3   OH278258   1.699   1.775  11.723  0.3841 -0.1834 -0.4394
18948TIP3    H178259   1.627   1.833  11.749 -0.6437 -0.8080 -1.7350
18948TIP3    H278260   1.768   1.834  11.693  0.8461  0.4633  1.7767
18949TIP3   OH278261   0.783   5.983  11.774 -0.1608  0.3491 -0.2477
18949TIP3    H178262   0.753   6.030  11.696 -0.1692  1.7451  0.5659
18949TIP3    H278263   0.725   6.012  11.844 -0.5126 -1.3113  0.2068
18950TIP3   OH278264   4.559   0.107   2.597 -0.4913  0.4287  0.0028
18950TIP3    H178265   4.633   0.058   2.560 -1.3761 -0.3679 -0.7411
18950TIP3    H278266   4.579   0.199   2.576  1.2398  0.4484  1.5107
18951TIP3   OH278267   2.617   0.432   0.983  0.2704  0.3912 -0.1406
18951TIP3    H178268   2.560   0.479   0.922 -2.9202 -0.7990  1.6643
18951TIP3    H278269   2.648   0.499   1.043  0.7807  1.0620 -1.1316
18952TIP3   OH278270   5.336   5.741  13.737  0.0107 -0.4213  0.4987
18952TIP3    H178271   5.251   5.773  13.705 -0.2995 -1.1656  0.5551
18952TIP3    H278272   5.313   5.667  13.793  0.7955 -1.7358 -0.8535
18953TIP3   OH278273   4.054   1.041   3.138 -0.5005  0.0783 -0.4352
18953TIP3    H178274   4.009   0.958   3.125 -3.6404  1.4555  0.6395
18953TIP3    H278275   4.001   1.105   3.090  1.7806  1.5238 -1.1855
18954TIP3   OH278276   1.427   4.474   4.850  0.0412  0.0901 -0.6575
18954TIP3    H178277   1.510   4.499   4.808  0.0498  0.5584 -0.3681
18954TIP3    H278278   1.374   4.553   4.846 -0.4357 -0.2384 -0.9332
18955TIP3   OH278279   5.612   0.864   6.037 -0.4101  0.4925 -0.4194
18955TIP3    H178280   5.662   0.919   5.976 -1.5305  2.4849  0.3525
18955TIP3    H278281   5.637   0.896   6.124  0.6663 -1.8662  0.2147
18956TIP3   OH278282   5.984   5.286  16.913 -0.3275  0.5857  0.1170
18956TIP3    H178283   6.004   5.278  16.820  0.1061  0.4707  0.2138
18956TIP3    H278284   5.897   5.325  16.917 -0.0183  1.3524 -0.3366
18957TIP3   OH278285   5.169   4.026  11.091 -0.1885  0.3249  0.7704
18957TIP3    H178286   5.076   4.039  11.072 -0.2532  0.9256  1.4158
18957TIP3    H278287   5.214   4.092  11.038 -0.1918  0.5058  0.9895
18958TIP3   OH278288   0.766   5.067  14.214  0.1073 -1.0093  0.2520
18958TIP3    H178289   0.847   5.093  14.258 -0.0326 -0.1500  0.0218
18958TIP3    H278290   0.700   5.069  14.283 -0.3203  1.3523 -0.1356
18959TIP3   OH278291   5.436   0.855  15.541  0.1256 -0.2167  0.0310
18959TIP3    H178292   5.486   0.811  15.610 -0.5613  0.0009  0.6887
18959TIP3    H278293   5.502   0.892  15.483  0.7099 -1.1284  0.1051
18960TIP3   OH278294   6.082   0.481  12.220 -0.1298 -0.7844  0.0365
18960TIP3    H178295   6.102   0.472  12.313 -1.4543 -0.6239  0.3620
18960TIP3    H278296   6.007   0.423  12.206 -1.7488  1.2930 -0.2923
18961TIP3   OH278297   0.020   6.649  17.302  0.2130 -0.9294 -0.3568
18961TIP3    H178298  -0.032   6.728  17.287  0.5086 -0.6888 -0.1236
18961TIP3    H278299   0.008   6.631  17.396  1.0433 -0.5153 -0.1647
18962TIP3   OH278300   2.815   4.047  12.248 -0.0219  0.3928 -0.0661
18962TIP3    H178301   2.814   4.064  12.342  2.7380 -1.2090  0.3775
18962TIP3    H278302   2.846   4.129  12.210  2.0500  0.0893  0.8310
18963TIP3   OH278303   5.377   2.076  13.586  0.1567 -0.1010  0.2579
18963TIP3    H178304   5.442   2.114  13.528 -2.5900  0.9560 -2.4316
18963TIP3    H278305   5.347   2.149  13.641  1.8038 -0.8087  2.2443
18964TIP3   OH278306   5.253   4.016  11.784 -0.2423  0.2717  0.4081
18964TIP3    H178307   5.268   3.922  11.784 -0.4647  0.2312 -0.5093
18964TIP3    H278308   5.258   4.042  11.692 -0.6546  1.0799  0.5973
18965TIP3   OH278309   0.212   0.744   2.307  0.1431  0.0813 -0.0895
18965TIP3    H178310   0.207   0.651   2.330 -0.4318 -0.1162 -0.9891
18965TIP3    H278311   0.305   0.758   2.287 -0.1399 -0.9320 -2.4256
18966TIP3   OH278312   1.953   4.484   3.287 -0.4954  0.5958  0.0048
18966TIP3    H178313   1.982   4.572   3.262 -0.8828  0.6699 -0.1827
18966TIP3    H278314   1.911   4.496   3.372 -1.3611  0.7463 -0.4335
18967TIP3   OH278315   2.654   6.619   5.683  0.4233 -0.3597  0.1478
18967TIP3    H178316   2.742   6.586   5.665  1.0400  1.5366 -0.5584
18967TIP3    H278317   2.656   6.711   5.655 -1.3618  0.1453  1.4618
18968TIP3   OH278318   5.027   1.274  13.504  0.9945  0.0786  0.0861
18968TIP3    H178319   5.004   1.306  13.416  0.6282  1.2085  0.5785
18968TIP3    H278320   5.052   1.352  13.552  1.7502 -0.6152  0.8313
18969TIP3   OH278321   0.579   3.825  13.409 -0.7813  0.2247 -0.2218
18969TIP3    H178322   0.672   3.841  13.390 -0.6774 -1.7965 -1.8001
18969TIP3    H278323   0.561   3.877  13.487  1.7188  0.5335  0.2388
18970TIP3   OH278324   6.351   3.279   0.077  0.3113 -0.5597  0.0551
18970TIP3    H178325   6.347   3.265  -0.018 -0.7352  1.9624 -0.3340
18970TIP3    H278326   6.444   3.290   0.096  0.6996 -2.7016 -0.3576
18971TIP3   OH278327   2.920   5.681   3.271 -0.1873  0.9404 -0.1045
18971TIP3    H178328   2.828   5.661   3.253  0.5455 -1.9347 -1.1775
18971TIP3    H278329   2.965   5.597   3.261  2.5731  2.2684  0.3490
18972TIP3   OH278330   2.040   4.962  16.371 -0.3356 -0.3586  0.0369
18972TIP3    H178331   1.960   4.970  16.319 -0.6180  0.4192  0.5744
18972TIP3    H278332   2.073   4.875  16.350 -0.2123  0.0756 -1.7713
18973TIP3   OH278333   4.688   5.122   0.477 -0.4660  0.3347  0.0515
18973TIP3    H178334   4.729   5.038   0.457 -2.3683 -1.0695  1.6406
18973TIP3    H278335   4.616   5.130   0.414 -0.4222  0.6865  0.0422
18974TIP3   OH278336   1.570   6.218  15.313  0.7934  0.1558 -0.2388
18974TIP3    H178337   1.661   6.220  15.283  0.7519  0.7092 -0.3429
18974TIP3    H278338   1.570   6.269  15.394  0.6644 -0.2525  0.0185
18975TIP3   OH278339   5.166   6.448  12.016 -0.8409  0.1855 -0.0430
18975TIP3    H178340   5.136   6.418  11.930 -1.4219  2.3867 -0.6803
18975TIP3    H278341   5.130   6.384  12.078 -0.5294 -1.3568 -1.3920
18976TIP3   OH278342   3.772   5.195   4.648 -0.6688  0.2560  0.2821
18976TIP3    H178343   3.845   5.199   4.709 -1.1897  0.0266  0.9336
18976TIP3    H278344   3.791   5.120   4.593  0.4504  1.2179 -0.6945
18977TIP3   OH278345   0.748   4.300   1.577  0.2495  0.2999 -0.0583
18977TIP3    H178346   0.750   4.220   1.630 -0.4784  0.7442  0.6563
18977TIP3    H278347   0.798   4.363   1.628  0.7011  0.3397 -0.5550
18978TIP3   OH278348   5.618   3.254   0.448  0.4891 -0.4867 -0.1561
18978TIP3    H178349   5.632   3.267   0.354 -1.0092 -1.4989 -0.5473
18978TIP3    H278350   5.540   3.304   0.468  1.1020  0.1496  0.6804
18979TIP3   OH278351   6.608   4.690  14.295  0.0072  0.2354  0.0388
18979TIP3    H178352   6.598   4.691  14.390  1.1615  0.7760  0.1702
18979TIP3    H278353   6.519   4.691  14.261 -0.4278  1.8933  1.1140
18980TIP3   OH278354   3.581   6.605   2.414 -0.3494 -0.3044 -0.4968
18980TIP3    H178355   3.619   6.630   2.329  2.5782 -0.2792  0.6940
18980TIP3    H278356   3.613   6.672   2.474 -2.2419 -0.4162  0.6971
18981TIP3   OH278357   5.328   5.471  16.065 -0.3977  0.4401  0.3522
18981TIP3    H178358   5.318   5.554  16.112  0.0626  0.8878 -0.3189
18981TIP3    H278359   5.281   5.485  15.983 -0.6151 -0.0913  0.3821
18982TIP3   OH278360   2.255   3.302  13.599 -0.1210  0.4215  0.3712
18982TIP3    H178361   2.241   3.372  13.662 -0.3183 -0.5618  1.4451
18982TIP3    H278362   2.328   3.251  13.635  0.5962  0.5632 -0.8354
18983TIP3   OH278363   5.697   4.309  14.781 -0.4374  0.0373  0.1016
18983TIP3    H178364   5.778   4.356  14.799  0.0804 -0.7263 -0.1829
18983TIP3    H278365   5.631   4.377  14.769  0.3859  0.7069 -0.7370
18984TIP3   OH278366   2.973   0.482   4.401 -0.0808 -0.1053 -0.1798
18984TIP3    H178367   2.957   0.446   4.314  1.4272 -0.4233 -0.3592
18984TIP3    H278368   2.900   0.542   4.416 -2.2164 -2.4871 -0.2435
18985TIP3   OH278369   1.492   0.305   2.672 -0.3963  0.4207  0.2220
18985TIP3    H178370   1.533   0.322   2.588 -0.7585  1.3354  0.2143
18985TIP3    H278371   1.550   0.242   2.715 -0.7985 -0.9216 -1.1495
18986TIP3   OH278372   6.676   2.469  11.819  0.3097 -0.1102  0.8312
18986TIP3    H178373   6.623   2.405  11.866  0.4753  0.0076  1.1799
18986TIP3    H278374   6.707   2.529  11.886  0.9713 -0.2357  0.6431
18987TIP3   OH278375   5.770   3.561   0.701  0.0550  0.2027 -0.7425
18987TIP3    H178376   5.829   3.569   0.776  1.6792  1.2389 -2.0561
18987TIP3    H278377   5.762   3.651   0.668 -2.3574  0.0964 -0.5695
18988TIP3   OH278378   6.298   6.407   5.686 -0.4630 -0.2204 -0.2508
18988TIP3    H178379   6.338   6.486   5.723 -0.3578 -0.9981  1.4091
18988TIP3    H278380   6.206   6.431   5.673 -0.1249  0.6305 -1.2277
18989TIP3   OH278381   6.276   2.910  15.596  0.1944  0.1114 -0.2117
18989TIP3    H178382   6.332   2.939  15.523 -0.0931  1.2695  0.0052
18989TIP3    H278383   6.331   2.922  15.674 -0.1987  0.8388 -0.0420
18990TIP3   OH278384   2.936   4.508   6.274  0.8111 -0.0497 -0.3424
18990TIP3    H178385   2.994   4.507   6.350 -0.0288 -0.2741  0.3116
18990TIP3    H278386   2.856   4.550   6.306  0.8322  0.8354 -1.3987
18991TIP3   OH278387   6.743   0.735  13.143  0.2720 -1.1813 -0.3721
18991TIP3    H178388   6.764   0.767  13.231 -1.4395  2.2498 -1.0333
18991TIP3    H278389   6.688   0.658  13.158 -1.5546  0.3925  1.7133
18992TIP3   OH278390   5.473   3.979   0.188  0.0278  0.1146  0.1959
18992TIP3    H178391   5.426   3.901   0.157 -0.2025  0.1628  0.4179
18992TIP3    H278392   5.409   4.050   0.180  1.3299  1.0795 -3.5716
18993TIP3   OH278393   5.525   1.715  13.853 -0.5374  0.2390 -0.1737
18993TIP3    H178394   5.531   1.736  13.760 -0.5665 -2.2558 -0.8272
18993TIP3    H278395   5.540   1.620  13.857  0.2409  0.3859  2.4618
18994TIP3   OH278396   6.027   5.718  16.691 -0.3226  0.5895 -0.6366
18994TIP3    H178397   6.116   5.753  16.692  0.2913 -0.9045  0.4198
18994TIP3    H278398   6.015   5.679  16.777 -1.1761 -1.2374 -1.5209
18995TIP3   OH278399   3.553   1.960   0.595  0.0320 -0.2687 -0.5951
18995TIP3    H178400   3.642   1.987   0.572  0.1379 -1.7588 -2.1291
18995TIP3    H278401   3.519   1.917   0.516 -1.2057 -1.8108  0.6931
18996TIP3   OH278402   5.520   2.581   2.597  0.6158  0.3576  0.5256
18996TIP3    H178403   5.532   2.672   2.569  1.0652  1.1941  3.0667
18996TIP3    H278404   5.607   2.542   2.591  1.7804  1.8210  4.4055
18997TIP3   OH278405   3.022   4.636   3.463  0.6255  0.6365  0.1077
18997TIP3    H178406   3.086   4.638   3.393  1.9165 -1.5004  1.1184
18997TIP3    H278407   2.949   4.585   3.427  1.9117 -1.7721  0.6900
18998TIP3   OH278408   0.026   3.235  13.173  0.7204  0.3921 -0.3126
18998TIP3    H178409  -0.052   3.191  13.139  0.5493  1.4929 -1.4557
18998TIP3    H278410  -0.005   3.283  13.250  0.6511 -0.5039  0.2292
18999TIP3   OH278411   3.222   5.223   4.615  0.8402 -0.5411 -0.1746
18999TIP3    H178412   3.255   5.135   4.598  0.7695 -0.4994 -0.5225
18999TIP3    H278413   3.128   5.217   4.600  0.8369 -0.4021 -0.2100
19000TIP3   OH278414   3.662   4.114  15.405  0.4196 -1.0326 -0.1861
19000TIP3    H178415   3.743   4.164  15.416 -0.5354  0.5871 -0.1851
19000TIP3    H278416   3.601   4.176  15.364 -0.9982 -2.0281  0.3437
19001TIP3   OH278417   2.286   4.923  12.116 -0.5167  0.1152  0.3611
19001TIP3    H178418   2.356   4.985  12.132 -0.5789 -0.0632  1.4226
19001TIP3    H278419   2.217   4.974  12.073 -0.1950  0.5541  0.3650
19002TIP3   OH278420   5.932   3.089   0.740 -0.3914 -0.3805 -0.5089
19002TIP3    H178421   5.957   3.154   0.674 -0.6182  0.4636  0.2292
19002TIP3    H278422   5.887   3.139   0.808  2.9210 -0.5855  2.0745
19003TIP3   OH278423   4.501   4.390  11.944 -0.0805 -0.1931 -0.7148
19003TIP3    H178424   4.595   4.402  11.934  0.3576 -1.4400  1.2949
19003TIP3    H278425   4.492   4.305  11.986 -2.0120  0.6507  0.7333
19004TIP3   OH278426   4.307   5.332   4.843 -0.0724  0.2359 -0.2550
19004TIP3    H178427   4.399   5.347   4.866 -0.0533  0.0335 -0.1961
19004TIP3    H278428   4.301   5.356   4.750  0.3846 -1.1891 -0.6771
19005TIP3   OH278429   5.166   3.643   3.956 -0.3873 -0.0446  0.3001
19005TIP3    H178430   5.115   3.610   3.881 -1.4090 -0.8973  1.3329
19005TIP3    H278431   5.187   3.733   3.932 -0.3989 -0.3933 -1.1587
19006TIP3   OH278432   1.907   6.427   5.697  0.2374 -0.4487 -0.1936
19006TIP3    H178433   1.838   6.483   5.733  0.2227  0.2200 -1.2360
19006TIP3    H278434   1.865   6.381   5.625  0.6882 -0.6144 -0.3551
19007TIP3   OH278435   4.069   1.066  12.669  0.9458 -0.4609 -0.5054
19007TIP3    H178436   4.035   1.091  12.582 -0.0930  1.1655  0.3087
19007TIP3    H278437   4.162   1.085  12.664  0.5754  1.5336 -0.7001
19008TIP3   OH278438   6.633   3.349   2.705  1.1902  0.0238 -0.6731
19008TIP3    H178439   6.648   3.330   2.612 -0.0036 -1.0598 -0.6608
19008TIP3    H278440   6.614   3.443   2.707 -0.5474 -0.2621 -1.7749
19009TIP3   OH278441   5.410   1.215   4.973 -0.2791  0.0262 -0.2355
19009TIP3    H178442   5.457   1.150   4.922 -0.7618  0.4884 -1.3083
19009TIP3    H278443   5.332   1.169   5.005  0.4993 -0.5257  0.8988
19010TIP3   OH278444   4.225   2.087  15.241 -0.2098  0.3519  0.6687
19010TIP3    H178445   4.267   2.115  15.159  0.2084  0.8136  1.0360
19010TIP3    H278446   4.297   2.054  15.295 -0.5282 -0.2528  0.7316
19011TIP3   OH278447   5.628   0.762  15.972  0.6713  0.2421 -0.2974
19011TIP3    H178448   5.613   0.856  15.985  0.9313  0.1133  1.0751
19011TIP3    H278449   5.699   0.740  16.033  0.5842 -0.8616 -0.5697
19012TIP3   OH278450   3.975   0.960  12.906  0.0823  0.0084 -0.5412
19012TIP3    H178451   4.024   0.975  12.825 -0.4623  2.6907 -0.4543
19012TIP3    H278452   4.043   0.950  12.973  0.5777  1.8719 -0.7158
19013TIP3   OH278453   3.489   4.239   2.744 -0.3953  0.5501 -0.0673
19013TIP3    H178454   3.486   4.326   2.705 -0.9312  0.4762 -0.2014
19013TIP3    H278455   3.468   4.179   2.672 -0.5214  0.3486  0.1350
19014TIP3   OH278456   0.739   3.043  11.160 -0.3089  0.8752 -0.0267
19014TIP3    H178457   0.784   3.076  11.238  1.5921 -1.7990  0.1445
19014TIP3    H278458   0.650   3.025  11.190  0.3536 -0.0158  1.5349
19015TIP3   OH278459   4.280   3.470   2.033 -0.3657  0.4198 -0.1733
19015TIP3    H178460   4.263   3.415   1.957  1.3781  0.3460 -0.5540
19015TIP3    H278461   4.368   3.445   2.062  0.4071  2.8045 -0.2003
19016TIP3   OH278462   0.062   5.158  15.144  0.1743 -0.1611  0.0328
19016TIP3    H178463   0.087   5.216  15.216  1.3083  0.6929 -1.0097
19016TIP3    H278464   0.049   5.073  15.186  0.0790  0.4777  1.3509
19017TIP3   OH278465   1.985   3.198  12.559 -0.0127 -0.6297 -0.3263
19017TIP3    H178466   2.055   3.263  12.567  0.4909 -1.2398  0.3952
19017TIP3    H278467   1.949   3.212  12.471 -1.2210  1.9029  0.4981
19018TIP3   OH278468   0.026   6.014   1.464  0.2913 -0.5471 -0.6438
19018TIP3    H178469   0.105   6.052   1.426  0.7110 -1.5655 -0.8038
19018TIP3    H278470  -0.001   6.078   1.531  1.3455 -0.2779 -0.4653
19019TIP3   OH278471   4.549   5.433   1.161  0.8005  0.5112 -0.6498
19019TIP3    H178472   4.596   5.506   1.121  1.9103  0.5362  0.6002
19019TIP3    H278473   4.518   5.380   1.088 -0.1247  2.2852 -1.5730
19020TIP3   OH278474   3.391   2.047   5.392  0.1817  0.0104  0.6527
19020TIP3    H178475   3.345   2.113   5.445  0.5091  0.3394  0.5292
19020TIP3    H278476   3.479   2.043   5.429  0.2070 -0.2513  0.5660
19021TIP3   OH278477   0.552   4.420   4.074 -0.0965  0.0944  0.2245
19021TIP3    H178478   0.523   4.343   4.124  2.1068  0.4213  2.1517
19021TIP3    H278479   0.487   4.487   4.093 -1.3515 -0.8753 -0.4708
19022TIP3   OH278480   0.763   6.401   5.839  0.2822 -0.9294 -0.4583
19022TIP3    H178481   0.733   6.320   5.798 -2.0338  0.2097 -1.1646
19022TIP3    H278482   0.705   6.469   5.804  0.5253  0.6638  1.9862
19023TIP3   OH278483   0.646   5.289   2.623  0.0396 -0.3685 -0.0511
19023TIP3    H178484   0.705   5.217   2.602 -0.5945 -0.9005 -0.0544
19023TIP3    H278485   0.668   5.313   2.713  0.7617 -0.0592 -0.3037
19024TIP3   OH278486   2.426   2.698  13.025  0.1459 -0.0857  0.1703
19024TIP3    H178487   2.354   2.760  13.010  0.3816  0.1371 -0.0576
19024TIP3    H278488   2.390   2.613  13.000 -0.3221 -0.1100  0.9101
19025TIP3   OH278489   6.576   0.594   0.588  0.0822  0.6730 -0.2266
19025TIP3    H178490   6.572   0.657   0.660 -1.8250 -0.2449  0.5330
19025TIP3    H278491   6.659   0.613   0.544  1.3387  1.2348  2.2281
19026TIP3   OH278492   1.910   6.215   0.452 -0.1798 -0.5539  0.0390
19026TIP3    H178493   1.916   6.254   0.539 -1.4518 -1.7474  0.6838
19026TIP3    H278494   1.817   6.217   0.431 -0.2384 -2.8156 -0.0823
19027TIP3   OH278495   6.002   3.764  16.724  0.2780  0.0318 -0.9416
19027TIP3    H178496   6.033   3.755  16.634 -2.6471 -0.9000 -1.9920
19027TIP3    H278497   5.940   3.837  16.721  0.8270  0.6173  0.5773
19028TIP3   OH278498   3.588   2.589   0.604 -0.0169  0.6017 -0.4981
19028TIP3    H178499   3.668   2.633   0.576 -0.1336  0.8190 -0.4897
19028TIP3    H278500   3.528   2.660   0.627  0.2825  0.4387  0.8781
19029TIP3   OH278501   0.820   5.102   4.425 -0.0193 -0.5824 -0.3879
19029TIP3    H178502   0.795   5.020   4.383  0.2781 -1.5066  1.1642
19029TIP3    H278503   0.889   5.078   4.486  0.5007  0.9432 -0.3248
19030TIP3   OH278504   2.581   5.179   1.312 -0.6308 -0.1864 -0.0743
19030TIP3    H178505   2.540   5.264   1.292 -0.3897 -0.1982 -0.6512
19030TIP3    H278506   2.508   5.117   1.311 -0.7318 -0.0685 -0.2178
19031TIP3   OH278507   3.048   5.182  13.978 -0.2953 -0.0228  0.0289
19031TIP3    H178508   2.955   5.178  13.955 -0.5835  0.5957  1.0316
19031TIP3    H278509   3.051   5.163  14.071  0.6849 -0.8837 -0.1484
19032TIP3   OH278510   2.324   2.683  14.924 -0.3812 -0.7181 -0.5068
19032TIP3    H178511   2.259   2.728  14.870 -1.8155 -2.0279  0.0547
19032TIP3    H278512   2.276   2.610  14.964  0.6789  0.0012  2.3119
19033TIP3   OH278513   6.192   2.847   1.153  0.3073 -0.0342 -0.5360
19033TIP3    H178514   6.256   2.845   1.225  0.0186 -0.1296 -0.2780
19033TIP3    H278515   6.148   2.931   1.162 -0.1160 -0.2835 -0.2567
19034TIP3   OH278516   2.662   5.784   3.855  0.0947 -1.1641  0.3256
19034TIP3    H178517   2.731   5.825   3.907  0.7067 -1.0121 -0.5810
19034TIP3    H278518   2.650   5.697   3.895  0.0809 -0.8116  1.1124
19035TIP3   OH278519   1.596   0.790   5.515  1.0131 -0.2659  0.1114
19035TIP3    H178520   1.677   0.825   5.553 -0.0086  1.6254  0.6669
19035TIP3    H278521   1.536   0.864   5.515 -0.4773 -1.4224 -1.0459
19036TIP3   OH278522   1.951   0.846   0.372 -0.0122  0.2101 -0.2246
19036TIP3    H178523   1.876   0.864   0.317  0.0616 -0.2891 -0.4956
19036TIP3    H278524   2.024   0.892   0.330  0.0751 -0.2928 -0.6343
19037TIP3   OH278525   6.152   2.981  14.029 -0.0495  0.4498  0.7455
19037TIP3    H178526   6.151   3.010  14.120 -1.2588 -1.5894  1.4598
19037TIP3    H278527   6.075   2.925  14.021 -0.1248  0.7770 -1.6296
19038TIP3   OH278528   3.648   3.206   1.892  0.0139 -0.5023  0.8036
19038TIP3    H178529   3.716   3.166   1.945  0.7891  0.3240  0.4465
19038TIP3    H278530   3.675   3.297   1.881 -0.5281 -0.4586 -0.3535
19039TIP3   OH278531   6.500   1.281  15.464  0.4452 -0.1901 -0.2896
19039TIP3    H178532   6.496   1.266  15.558 -0.4344 -0.3104 -0.3382
19039TIP3    H278533   6.577   1.336  15.452 -0.2527  1.0649  0.6806
19040TIP3   OH278534   6.679   0.961   5.481  0.3811 -0.3959 -0.3504
19040TIP3    H178535   6.657   0.869   5.489 -0.0555 -0.2616  0.0549
19040TIP3    H278536   6.716   0.970   5.393 -0.8108 -0.6946 -0.8925
19041TIP3   OH278537   0.171   2.820   2.739  0.1051  0.3690 -0.1071
19041TIP3    H178538   0.085   2.850   2.767 -0.4096 -0.9687 -0.1899
19041TIP3    H278539   0.157   2.781   2.653  0.8489  0.3861 -0.2474
19042TIP3   OH278540   5.410   5.184  16.409 -1.0898  0.1592 -0.0864
19042TIP3    H178541   5.327   5.164  16.451 -0.8541  0.7245  0.6703
19042TIP3    H278542   5.413   5.279  16.404  0.1698  0.2470  1.3406
19043TIP3   OH278543   2.830   1.444  17.171 -0.3686  0.9851  1.0983
19043TIP3    H178544   2.875   1.496  17.237  1.2082 -0.4730  1.2575
19043TIP3    H278545   2.860   1.481  17.087  1.2377  0.0244  1.2024
19044TIP3   OH278546   5.471   1.389  11.560  0.4220  0.4587  0.2090
19044TIP3    H178547   5.427   1.452  11.502 -0.1978  0.1458  0.3350
19044TIP3    H278548   5.554   1.431  11.582  0.9770  0.3006 -1.4413
19045TIP3   OH278549   5.003   5.156   2.793 -0.1906  0.5005  0.1584
19045TIP3    H178550   5.057   5.123   2.866 -0.2791  2.1076  1.0042
19045TIP3    H278551   4.942   5.084   2.774  1.9692 -1.2301 -0.5873
19046TIP3   OH278552   1.950   5.593  12.415 -0.0366  0.7349  0.0704
19046TIP3    H178553   2.011   5.664  12.394  0.4754  0.0499 -0.8632
19046TIP3    H278554   1.998   5.514  12.393 -0.5212  0.0807  1.3023
19047TIP3   OH278555   4.390   2.862   4.912 -0.5515  0.6209 -0.0819
19047TIP3    H178556   4.385   2.827   4.823  0.0797  1.3717 -0.4262
19047TIP3    H278557   4.367   2.955   4.902  0.9878  1.0676  0.2883
19048TIP3   OH278558   0.900   4.020   1.128 -0.4167  0.1254 -0.3583
19048TIP3    H178559   0.951   4.084   1.080 -1.5136  0.9499 -0.4606
19048TIP3    H278560   0.822   4.005   1.074 -1.8424  1.3287  1.2626
19049TIP3   OH278561   6.425   6.145   3.522  0.0761  0.3465  0.1150
19049TIP3    H178562   6.508   6.173   3.561  0.4099 -0.8963  0.3340
19049TIP3    H278563   6.395   6.074   3.578  0.4431 -1.3229 -1.7060
19050TIP3   OH278564   0.133   6.357  12.346  0.1501  0.1377  0.2540
19050TIP3    H178565   0.040   6.352  12.365  0.6266 -0.2462  2.8746
19050TIP3    H278566   0.175   6.367  12.431  2.5198  0.3887 -0.8421
19051TIP3   OH278567   1.755   3.189  16.269 -0.0016 -0.2140  0.0610
19051TIP3    H178568   1.686   3.126  16.250 -0.1334 -0.3880  1.0423
19051TIP3    H278569   1.823   3.171  16.204 -0.3317 -0.9107 -0.0965
19052TIP3   OH278570   6.219   3.022  15.866 -0.3844  0.5021 -0.4319
19052TIP3    H178571   6.209   2.976  15.783 -0.1018  0.1655 -0.2825
19052TIP3    H278572   6.237   2.953  15.930 -2.1704  0.5843  0.2111
19053TIP3   OH278573   0.287   5.384   2.087  0.0145  0.5379  0.1118
19053TIP3    H178574   0.361   5.442   2.105 -0.1889  0.9530 -0.3403
19053TIP3    H278575   0.249   5.419   2.006  1.4554 -1.7737 -1.6674
19054TIP3   OH278576   0.647   1.503  15.505  0.2357 -0.2085 -0.2989
19054TIP3    H178577   0.589   1.476  15.576 -0.1060 -1.3431 -0.9801
19054TIP3    H278578   0.651   1.599  15.512 -0.6886 -0.2139  0.5346
19055TIP3   OH278579   2.717   3.818  15.549 -0.4013 -0.2879 -0.0286
19055TIP3    H178580   2.743   3.910  15.543  2.2242 -0.8978  0.6661
19055TIP3    H278581   2.633   3.821  15.594 -1.1549  1.8279 -1.3984
19056TIP3   OH278582   4.216   5.929   1.278 -0.5076  0.0499 -0.1181
19056TIP3    H178583   4.308   5.933   1.251 -0.6177  0.5625 -0.4200
19056TIP3    H278584   4.197   6.016   1.312 -1.0409  0.1089 -0.5674
19057TIP3   OH278585   2.138   4.339   4.139 -0.4067  0.6355 -0.1423
19057TIP3    H178586   2.102   4.258   4.102 -1.2868 -0.1645  2.2122
19057TIP3    H278587   2.096   4.409   4.089 -1.0340 -0.3529 -1.0513
19058TIP3   OH278588   4.636   0.986   4.291  0.2347  0.0984 -0.1618
19058TIP3    H178589   4.553   1.029   4.311 -0.6173 -1.3462 -0.4501
19058TIP3    H278590   4.653   1.008   4.200 -0.7770 -1.0258 -0.6527
19059TIP3   OH278591   6.655   2.020   3.276  0.4334 -0.2650  0.4899
19059TIP3    H178592   6.599   2.088   3.314  0.9576  1.0353 -0.9673
19059TIP3    H278593   6.744   2.047   3.299  0.5845 -1.5598  1.5762
19060TIP3   OH278594   6.360   4.094  17.309  0.2224 -0.7340 -0.1482
19060TIP3    H178595   6.446   4.133  17.324 -0.4342  0.9498 -0.4746
19060TIP3    H278596   6.333   4.127  17.223 -0.2648 -2.1914 -0.5844
19061TIP3   OH278597   5.969   5.481  14.418  0.1938  0.4586  0.1872
19061TIP3    H178598   5.931   5.522  14.496 -0.7340  1.5095 -0.7693
19061TIP3    H278599   5.950   5.388  14.427 -1.4975  0.7972  0.3743
19062TIP3   OH278600   1.514   1.588  14.558  0.1386 -1.0238  0.5230
19062TIP3    H178601   1.457   1.511  14.570 -1.0396 -0.0790  1.3156
19062TIP3    H278602   1.558   1.598  14.642  1.0911 -1.4363  0.0814
19063TIP3   OH278603   0.614   5.799  15.807  0.1539  0.2374  0.7000
19063TIP3    H178604   0.537   5.743  15.809  1.0200 -0.9805  1.3747
19063TIP3    H278605   0.668   5.768  15.880  1.2661  1.0894  0.2730
19064TIP3   OH278606   4.506   3.122   0.285  0.1204  0.0998 -0.4961
19064TIP3    H178607   4.466   3.057   0.344 -0.1368  0.4059 -0.3318
19064TIP3    H278608   4.483   3.206   0.323 -2.2846  0.4183 -2.3895
19065TIP3   OH278609   0.461   0.674   2.957  0.2485  0.1916  0.2014
19065TIP3    H178610   0.387   0.652   3.014 -0.7323  0.8233 -0.8069
19065TIP3    H278611   0.445   0.765   2.930  0.7558 -0.0547 -0.9945
19066TIP3   OH278612   0.912   1.471  13.079 -0.0125  0.8132 -0.6264
19066TIP3    H178613   0.965   1.407  13.125  1.0815  1.1122 -1.4243
19066TIP3    H278614   0.920   1.551  13.130 -2.1115  0.1645  0.8810
19067TIP3   OH278615   1.096   1.095  15.664  0.1259 -0.0898  0.1376
19067TIP3    H178616   1.160   1.026  15.679 -0.3345 -0.4112  0.6579
19067TIP3    H278617   1.015   1.062  15.703 -0.8562 -0.4747 -2.0690
19068TIP3   OH278618   2.510   4.778   5.262  0.1260  0.1470 -0.2708
19068TIP3    H178619   2.500   4.856   5.316  0.5198  0.8784 -1.2287
19068TIP3    H278620   2.454   4.712   5.303  1.5497  0.1979  1.8936
19069TIP3   OH278621   5.252   4.767  14.088 -0.4541 -0.3126 -0.2546
19069TIP3    H178622   5.338   4.764  14.047 -0.3936  0.0304 -0.1544
19069TIP3    H278623   5.191   4.743  14.018 -0.3514  0.2831 -0.5445
19070TIP3   OH278624   3.897   6.002  13.845 -0.3581 -0.3163  0.1938
19070TIP3    H178625   3.989   6.024  13.830 -0.8000  1.0265 -0.7164
19070TIP3    H278626   3.863   5.979  13.758 -1.4694  1.6581  0.0307
19071TIP3   OH278627   4.190   4.231  15.866  0.4054  0.1948 -0.1766
19071TIP3    H178628   4.123   4.292  15.834 -2.2893 -1.6528  1.5411
19071TIP3    H278629   4.203   4.255  15.958  2.0409  0.3866 -0.4207
19072TIP3   OH278630   5.999   4.844  17.084 -0.4072  0.0691  0.0743
19072TIP3    H178631   6.086   4.817  17.114 -1.2913 -2.4269  0.6096
19072TIP3    H278632   5.971   4.773  17.026 -2.4476  0.3842  0.6116
19073TIP3   OH278633   1.914   4.857  17.085  0.3155  0.1855  0.2323
19073TIP3    H178634   1.865   4.912  17.024 -0.7206  1.2071  1.8945
19073TIP3    H278635   1.886   4.767  17.063 -1.1645  0.6359  0.1323
19074TIP3   OH278636   0.107   6.031   4.977 -0.5752 -0.0799 -0.4439
19074TIP3    H178637   0.148   5.960   4.926 -1.0945 -1.7124  1.3046
19074TIP3    H278638   0.128   6.010   5.068  1.0840  3.2394  0.0820
19075TIP3   OH278639   5.768   2.783  16.699 -0.1706 -0.3703 -0.1381
19075TIP3    H178640   5.690   2.800  16.752 -1.0125 -0.8976 -1.1678
19075TIP3    H278641   5.764   2.848  16.629  1.4579  0.9625  0.9281
19076TIP3   OH278642   0.264   5.788  16.964  0.1462  0.1341 -0.3497
19076TIP3    H178643   0.314   5.724  16.913 -1.7932  0.3013 -2.6402
19076TIP3    H278644   0.248   5.860  16.904 -0.3250  1.4198  1.2434
19077TIP3   OH278645   1.254   5.819  10.652  0.1939 -0.4981 -0.6251
19077TIP3    H178646   1.230   5.748  10.712 -2.4654  0.7194 -0.1014
19077TIP3    H278647   1.201   5.802  10.573  0.2775  0.3553 -0.8717
19078TIP3   OH278648   4.909   5.754  13.614  0.2834 -0.0604 -0.0913
19078TIP3    H178649   4.866   5.694  13.553 -0.7390  0.4673  0.0902
19078TIP3    H278650   4.943   5.697  13.683 -1.2584 -0.4090  0.4255
19079TIP3   OH278651   5.177   2.672  16.217 -0.1406 -0.5539  0.1607
19079TIP3    H178652   5.103   2.620  16.246  0.6961 -0.8623  1.8973
19079TIP3    H278653   5.159   2.760  16.251 -0.7798 -0.0606 -1.3849
19080TIP3   OH278654   1.573   6.484   4.436  0.2452  0.3838  0.2850
19080TIP3    H178655   1.603   6.431   4.509 -0.6697 -0.9770 -0.2942
19080TIP3    H278656   1.479   6.497   4.452 -0.5184 -1.9478 -1.7813
19081TIP3   OH278657   4.249   1.364  15.879 -0.2244 -0.3126  0.0322
19081TIP3    H178658   4.297   1.308  15.820 -0.5506 -1.2244  0.6123
19081TIP3    H278659   4.173   1.393  15.828  0.5481  0.5738 -0.6526
19082TIP3   OH278660   3.112   4.741  12.006  0.4463 -0.1934  0.0690
19082TIP3    H178661   3.053   4.712  12.076  0.3803 -0.1361  0.0374
19082TIP3    H278662   3.107   4.836  12.009 -2.4232 -0.1175 -2.4090
19083TIP3   OH278663   0.210   1.091  10.773 -0.0160  0.3013 -0.3121
19083TIP3    H178664   0.255   1.021  10.724 -0.0325 -0.5594  0.8567
19083TIP3    H278665   0.255   1.093  10.857 -1.7569 -0.1733  0.6737
19084TIP3   OH278666   2.247   5.329  16.704 -0.4448 -0.0923  0.4271
19084TIP3    H178667   2.271   5.377  16.783  1.7442  0.5251 -0.4976
19084TIP3    H278668   2.270   5.238  16.723 -0.9863 -0.1338  0.8859
19085TIP3   OH278669   1.179   4.207   4.862  0.1998 -0.3200 -0.8554
19085TIP3    H178670   1.172   4.116   4.891 -0.7527  0.1175  0.3910
19085TIP3    H278671   1.102   4.221   4.806  1.0437 -0.6283 -2.1367
19086TIP3   OH278672   1.914   3.728  12.918 -0.2696 -0.0045 -0.3221
19086TIP3    H178673   2.008   3.712  12.919 -0.3103 -0.2281  0.6257
19086TIP3    H278674   1.904   3.808  12.867  0.4930  0.3896  0.1323
19087TIP3   OH278675   2.923   4.804   1.168  0.7787  0.1890 -0.3868
19087TIP3    H178676   3.001   4.842   1.207  0.5676  2.2983 -1.8473
19087TIP3    H278677   2.902   4.862   1.095 -2.7540  0.3146  0.5597
19088TIP3   OH278678   2.989   6.648  14.512 -0.2567  0.2314 -0.5590
19088TIP3    H178679   2.968   6.560  14.481  1.0572  0.6708 -2.9115
19088TIP3    H278680   2.957   6.706  14.443  0.1343  1.5223  0.3033
19089TIP3   OH278681   1.118   0.072  15.349 -0.3307 -0.3507  0.0975
19089TIP3    H178682   1.118   0.108  15.260 -0.2288  1.6014  0.8240
19089TIP3    H278683   1.026   0.049  15.364 -0.6436  0.7661  0.0086
19090TIP3   OH278684   2.213   6.215   0.357 -0.3287 -0.1185 -0.3807
19090TIP3    H178685   2.147   6.148   0.336  0.3191 -0.5539 -1.0853
19090TIP3    H278686   2.182   6.294   0.312 -0.5937 -0.2004 -0.3452
19091TIP3   OH278687   0.636   5.283  12.753  0.3193  0.6662  0.3924
19091TIP3    H178688   0.591   5.253  12.674 -0.1765 -0.4646  1.0872
19091TIP3    H278689   0.570   5.335  12.799  0.6326  1.3909  0.0384
19092TIP3   OH278690   6.005   0.596  13.828 -0.3274 -0.3540 -0.3558
19092TIP3    H178691   5.948   0.660  13.787  1.6049  0.7411 -1.4776
19092TIP3    H278692   6.008   0.523  13.766 -1.0692 -0.7482  0.0587
19093TIP3   OH278693   2.185   5.900   0.290 -0.2493 -0.0679  0.6811
19093TIP3    H178694   2.265   5.927   0.245 -1.6297  0.9173 -1.3828
19093TIP3    H278695   2.188   5.805   0.290  1.2053 -0.0426  1.2166
19094TIP3   OH278696   3.888   2.430   1.478  0.3137  0.5919  0.3213
19094TIP3    H178697   3.964   2.373   1.480 -0.4564 -0.4691  0.5390
19094TIP3    H278698   3.922   2.515   1.454  1.4508 -0.0562 -0.4528
19095TIP3   OH278699   6.218   1.133  12.027 -0.1392 -0.6665 -0.3599
19095TIP3    H178700   6.173   1.210  11.991 -0.0329 -0.5354 -0.2155
19095TIP3    H278701   6.225   1.073  11.953 -0.7775 -0.7945 -0.3207
19096TIP3   OH278702   5.705   1.595  16.144  0.2569 -0.4151 -0.3428
19096TIP3    H178703   5.796   1.567  16.132  0.5787  0.8836 -1.1315
19096TIP3    H278704   5.696   1.607  16.239  0.8150 -0.8335 -0.2323
19097TIP3   OH278705   0.713   2.650  16.858 -0.2075  0.4949  0.4927
19097TIP3    H178706   0.653   2.637  16.785 -1.5885 -0.9288  1.7805
19097TIP3    H278707   0.705   2.743  16.880 -1.3175  0.5067  0.0973
19098TIP3   OH278708   6.573   4.303   1.062  0.0900  0.2648 -0.8134
19098TIP3    H178709   6.582   4.218   1.020  0.7227 -0.3960  0.5942
19098TIP3    H278710   6.626   4.362   1.009  1.7730 -0.7769 -0.3571
19099TIP3   OH278711   0.313   6.413  15.969 -0.0273 -0.0963  0.0883
19099TIP3    H178712   0.299   6.400  16.063  0.9327 -2.3129 -0.0113
19099TIP3    H278713   0.261   6.344  15.927 -1.6745  1.7848 -1.1657
19100TIP3   OH278714   0.593   3.603   5.130  0.0679 -0.2246  0.3741
19100TIP3    H178715   0.645   3.626   5.053 -0.3635  0.5143  0.2948
19100TIP3    H278716   0.545   3.524   5.103 -1.5730  1.0981 -0.8506
19101TIP3   OH278717   2.415   4.404   1.556  0.2130 -0.3325 -0.0998
19101TIP3    H178718   2.381   4.399   1.467 -1.4451  3.7951  0.0547
19101TIP3    H278719   2.501   4.444   1.547  0.2097 -0.2766  0.1027
19102TIP3   OH278720   2.771   5.038  15.808  0.5282 -0.3642  0.3048
19102TIP3    H178721   2.793   4.970  15.872 -2.9488 -1.8476  0.1752
19102TIP3    H278722   2.784   4.996  15.723  0.3297 -0.1751  0.1796
19103TIP3   OH278723   6.626   4.500   1.557  0.3730  0.2894 -0.4206
19103TIP3    H178724   6.630   4.429   1.493  0.2482  0.6517 -0.8388
19103TIP3    H278725   6.572   4.466   1.628 -2.8679  1.2179 -2.2413
19104TIP3   OH278726   5.740   4.520   3.090 -0.4659  0.7478 -0.4317
19104TIP3    H178727   5.645   4.506   3.098 -0.3919  0.0029 -0.7225
19104TIP3    H278728   5.778   4.435   3.112  0.0151  0.3254 -2.6242
19105TIP3   OH278729   4.077   6.616   5.528  0.0800  0.4197  0.3857
19105TIP3    H178730   4.029   6.661   5.598 -0.2767 -0.8357  0.9711
19105TIP3    H278731   4.168   6.640   5.543 -0.0303  0.4136  1.0914
19106TIP3   OH278732   4.228   5.071   5.895 -0.4900  0.3872 -0.2793
19106TIP3    H178733   4.164   5.142   5.895 -0.7635  0.1570  0.8564
19106TIP3    H278734   4.234   5.044   5.987 -0.4330 -1.0939 -0.6952
19107TIP3   OH278735   3.206   6.037   2.121  0.1117  0.1299  0.3977
19107TIP3    H178736   3.154   6.042   2.202 -0.9722  0.5150 -0.3086
19107TIP3    H278737   3.293   6.012   2.151 -1.0417 -3.2875  1.4228
19108TIP3   OH278738   6.451   3.036  15.116 -0.0901 -0.6991  0.1449
19108TIP3    H178739   6.357   3.054  15.121 -0.3259 -1.1197 -1.8268
19108TIP3    H278740   6.459   2.973  15.044  1.6689 -1.0511  0.6093
19109TIP3   OH278741   0.854   1.791  15.418 -0.5640 -0.6113 -0.0691
19109TIP3    H178742   0.845   1.865  15.479  0.4596  1.0312 -1.7839
19109TIP3    H278743   0.774   1.793  15.365 -0.8471 -1.1946  0.3246
19110TIP3   OH278744   0.134   3.370  11.762 -0.1411  0.1342 -0.3206
19110TIP3    H178745   0.111   3.281  11.788 -1.1251  0.9255  1.7552
19110TIP3    H278746   0.118   3.372  11.667 -1.0056 -1.6222 -0.2644
19111TIP3   OH278747   6.241   0.324   3.816  0.2964  0.1176 -0.3217
19111TIP3    H178748   6.197   0.367   3.742 -1.7654 -1.9548 -0.4081
19111TIP3    H278749   6.306   0.267   3.774 -1.0369 -1.2444 -0.6546
19112TIP3   OH278750   5.515   5.560  13.306 -0.3803 -0.0590  0.6641
19112TIP3    H178751   5.502   5.521  13.220  1.7761  0.8747 -0.1326
19112TIP3    H278752   5.452   5.632  13.310  0.6400  0.9514 -0.8357
19113TIP3   OH278753   2.056   3.346   2.383  0.1508 -0.1787  0.3049
19113TIP3    H178754   1.970   3.344   2.423  0.8349  0.3272  1.8863
19113TIP3    H278755   2.117   3.349   2.457  1.4340  3.2738 -0.6941
19114TIP3   OH278756   1.119   1.684   5.090 -0.0221 -0.5684  0.1638
19114TIP3    H178757   1.048   1.742   5.119  0.6374  0.8384 -0.9252
19114TIP3    H278758   1.160   1.655   5.171  0.2676  1.3269  0.7563
19115TIP3   OH278759   2.121   4.277  16.957 -0.1474  0.5955  1.0579
19115TIP3    H178760   2.035   4.236  16.945  0.6962 -0.9175 -0.4056
19115TIP3    H278761   2.130   4.288  17.051 -1.8868  0.6672  1.2465
19116TIP3   OH278762   3.310   0.956  13.151  0.0516  0.1932 -0.5954
19116TIP3    H178763   3.223   0.988  13.175  0.0874 -0.0141 -0.1880
19116TIP3    H278764   3.295   0.900  13.075 -0.1358  0.3563 -0.6815
19117TIP3   OH278765   2.553   6.062  16.388 -0.1863  0.3902 -0.0141
19117TIP3    H178766   2.465   6.042  16.357  0.6329  0.2177 -2.4133
19117TIP3    H278767   2.552   6.036  16.480 -2.1745 -1.0830 -0.3809
19118TIP3   OH278768   1.707   2.268   2.988  0.1641 -0.2395 -0.2081
19118TIP3    H178769   1.747   2.339   2.937  0.0397 -0.5509 -0.7487
19118TIP3    H278770   1.734   2.286   3.078 -1.3398  1.5111 -0.0457
19119TIP3   OH278771   5.708   5.766  11.767 -0.2613 -0.1225  0.3049
19119TIP3    H178772   5.714   5.670  11.769  0.3871 -0.1509 -1.2456
19119TIP3    H278773   5.701   5.791  11.859 -0.0138 -1.6335  0.7779
19120TIP3   OH278774   5.238   0.870   4.683 -0.0750  0.5090  0.1093
19120TIP3    H178775   5.178   0.798   4.701  0.1419 -0.2574 -2.0563
19120TIP3    H278776   5.183   0.949   4.691 -1.0558 -0.0949 -0.5164
19121TIP3   OH278777   0.996   2.532   3.150 -0.4146  0.1087  0.3545
19121TIP3    H178778   1.070   2.484   3.113 -0.9891 -0.2352 -0.3768
19121TIP3    H278779   0.930   2.532   3.081 -0.4714  1.8841  0.3633
19122TIP3   OH278780   1.120   1.597  14.678 -0.0713  0.1142 -0.3698
19122TIP3    H178781   1.180   1.671  14.690 -1.7209  1.6105 -0.7477
19122TIP3    H278782   1.169   1.534  14.626  1.6806  0.5693  0.6580
19123TIP3   OH278783   3.479   1.208  11.457  0.1551 -0.0454 -0.6413
19123TIP3    H178784   3.552   1.247  11.506  0.0245  0.7663 -1.0753
19123TIP3    H278785   3.483   1.251  11.371 -2.2678  1.7825  0.0661
19124TIP3   OH278786   4.133   6.126  14.867 -0.1963  0.6194  0.2246
19124TIP3    H178787   4.141   6.052  14.927  1.2205  0.5499 -0.0126
19124TIP3    H278788   4.223   6.153  14.851 -0.4674  0.2032 -2.4157
19125TIP3   OH278789   6.407   0.233  13.179 -0.3083  0.0386  0.4465
19125TIP3    H178790   6.423   0.328  13.174 -2.0276  0.3920  0.9904
19125TIP3    H278791   6.390   0.208  13.088  1.3341 -0.0185  0.1170
19126TIP3   OH278792   5.340   4.734  15.763  0.2024  0.2016 -0.5255
19126TIP3    H178793   5.316   4.680  15.838  0.2230  1.1756  0.1983
19126TIP3    H278794   5.422   4.777  15.789  0.8761 -0.3789 -1.5861
19127TIP3   OH278795   2.265   4.041  17.276  0.0224  0.6957 -0.3719
19127TIP3    H178796   2.221   4.109  17.225  1.1097 -0.6345 -3.3009
19127TIP3    H278797   2.220   3.960  17.252  0.2876  0.0408  1.2020
19128TIP3   OH278798   0.892   3.655  14.644  0.5225 -0.1197  0.2609
19128TIP3    H178799   0.812   3.622  14.604  0.0946  0.9020  0.2441
19128TIP3    H278800   0.948   3.578  14.654 -0.6226 -0.9179  0.6456
19129TIP3   OH278801   0.065   4.154  13.639 -0.3198 -0.3689  0.2641
19129TIP3    H178802  -0.028   4.153  13.618 -0.0269 -0.0393 -1.1112
19129TIP3    H278803   0.097   4.069  13.608 -0.1084 -0.3760  0.5019
19130TIP3   OH278804   6.754   0.693  11.717  0.2608  0.8047  1.1620
19130TIP3    H178805   6.834   0.665  11.673  0.1457  0.1611  1.3458
19130TIP3    H278806   6.765   0.787  11.731  0.0955  1.1240 -0.6398
19131TIP3   OH278807   6.451   3.199   3.628 -0.2918  0.7242 -0.1006
19131TIP3    H178808   6.485   3.223   3.542  0.5803  0.9283  0.2908
19131TIP3    H278809   6.425   3.281   3.668  1.4853  0.9533  0.7257
19132TIP3   OH278810   6.161   0.777  14.018 -0.4427 -0.3273  0.0735
19132TIP3    H178811   6.105   0.733  13.954  0.3334  0.3618 -1.1169
19132TIP3    H278812   6.248   0.741  14.001  0.5096  2.5401 -1.8796
19133TIP3   OH278813   0.933   2.590  14.138 -0.1707 -0.8663  0.0376
19133TIP3    H178814   0.952   2.568  14.229  0.2397  0.2085  0.2179
19133TIP3    H278815   1.017   2.587  14.094 -0.4353 -1.8843 -0.4366
19134TIP3   OH278816   0.330   0.812  15.130 -0.0970  0.6728  0.2811
19134TIP3    H178817   0.254   0.839  15.181  0.8971  2.9738  0.6474
19134TIP3    H278818   0.395   0.785  15.195 -0.2606 -0.4179  0.0098
19135TIP3   OH278819   5.076   4.810  16.878 -0.4265  0.2716 -0.2634
19135TIP3    H178820   5.169   4.789  16.874  0.3505  3.3300 -0.0991
19135TIP3    H278821   5.034   4.737  16.832  1.9434 -1.4901  0.1644
19136TIP3   OH278822   5.897   0.910  12.628 -0.0624  0.3336  0.3088
19136TIP3    H178823   5.969   0.949  12.580  0.3438 -1.7056 -0.8772
19136TIP3    H278824   5.939   0.855  12.694 -0.4587 -1.0942 -0.5747
19137TIP3   OH278825   1.833   3.543  14.612  0.9901  0.0940  0.2536
19137TIP3    H178826   1.871   3.468  14.567  0.1210 -0.1980 -0.0144
19137TIP3    H278827   1.898   3.613  14.602  1.5785 -0.4747  0.0633
19138TIP3   OH278828   4.478   5.049  11.513  0.6073 -0.2100  0.2644
19138TIP3    H178829   4.399   4.998  11.527  2.3595 -2.8002  1.5352
19138TIP3    H278830   4.462   5.097  11.431 -1.6470 -1.8471 -0.3378
19139TIP3   OH278831   3.382   4.255   2.395 -0.4140 -0.5186  0.4751
19139TIP3    H178832   3.351   4.324   2.454  0.3122 -0.6168  0.9896
19139TIP3    H278833   3.477   4.255   2.407 -0.0433  0.5637 -1.9027
19140TIP3   OH278834   2.994   1.405  11.141 -0.2089  0.3166 -0.0975
19140TIP3    H178835   2.978   1.363  11.056 -0.2508  0.5875 -0.2221
19140TIP3    H278836   3.079   1.449  11.132 -0.5257  0.9061 -0.2148
19141TIP3   OH278837   0.612   6.515   0.046 -0.2520  0.0391  0.3987
19141TIP3    H178838   0.528   6.483   0.082  0.8284 -0.7131  2.4352
19141TIP3    H278839   0.599   6.609   0.035 -0.9060  0.1952  2.1724
19142TIP3   OH278840   0.854   6.108  15.019 -0.3839  0.1774 -0.1088
19142TIP3    H178841   0.940   6.129  15.057  0.1040  0.2122 -1.1906
19142TIP3    H278842   0.795   6.103  15.094  0.1716  2.0594  0.4972
19143TIP3   OH278843   1.669   3.151   5.221  0.1335  0.3501 -0.2781
19143TIP3    H178844   1.630   3.208   5.155 -1.4975  1.0962  1.2663
19143TIP3    H278845   1.722   3.209   5.275 -1.1219  0.3458  0.9952
19144TIP3   OH278846   5.525   1.919  12.483 -0.2144 -0.1140  0.4161
19144TIP3    H178847   5.434   1.901  12.503 -0.0026 -0.6560  0.9101
19144TIP3    H278848   5.561   1.955  12.564  0.6289 -2.2550  1.0558
19145TIP3   OH278849   0.290   1.486  13.292 -0.2009 -0.2773 -0.0573
19145TIP3    H178850   0.204   1.444  13.288 -0.5819  0.5716 -2.0471
19145TIP3    H278851   0.286   1.554  13.225  1.8784  0.0782  0.1244
19146TIP3   OH278852   0.581   1.033  11.920  0.3653 -0.0990  0.0652
19146TIP3    H178853   0.544   0.946  11.938  0.2532  0.2789  1.9491
19146TIP3    H278854   0.526   1.093  11.972  1.2532  0.9284 -0.1568
19147TIP3   OH278855   5.950   2.877   2.579  0.3696 -0.1128  0.8057
19147TIP3    H178856   6.033   2.902   2.539 -0.9121  1.7398 -0.8849
19147TIP3    H278857   5.942   2.932   2.657  1.1803 -1.0658  1.5824
19148TIP3   OH278858   6.527   1.887   0.033 -0.7571  0.2413 -0.0130
19148TIP3    H178859   6.528   1.962  -0.027 -2.3627 -0.0070 -0.4163
19148TIP3    H278860   6.613   1.888   0.076 -0.3747  1.6936 -0.7613
19149TIP3   OH278861   2.406   3.567  16.992 -0.3892 -0.9535  0.3959
19149TIP3    H178862   2.393   3.658  17.020  0.7348 -1.0861  1.4769
19149TIP3    H278863   2.330   3.547  16.937  0.0270  1.0662 -1.0193
19150TIP3   OH278864   0.523   3.088  14.889 -0.0644 -0.0186  0.1163
19150TIP3    H178865   0.494   3.143  14.817 -0.4826 -0.4815 -0.0734
19150TIP3    H278866   0.617   3.106  14.898  0.1751 -0.5857 -1.0927
19151TIP3   OH278867   3.664   6.139  17.148  0.3773  0.4531  0.5874
19151TIP3    H178868   3.700   6.050  17.152  1.2827  0.6696 -1.3987
19151TIP3    H278869   3.570   6.126  17.134  0.7130 -0.2867 -1.3549
19152TIP3   OH278870   0.206   3.384   5.525  0.1247 -0.0854 -0.2185
19152TIP3    H178871   0.166   3.306   5.487  0.2098  0.3327 -1.1969
19152TIP3    H278872   0.136   3.449   5.525  0.6379  0.4953 -1.4697
19153TIP3   OH278873   6.134   0.271  11.600  0.4075  0.2225  0.0284
19153TIP3    H178874   6.224   0.299  11.580  0.5526 -0.1255  0.1796
19153TIP3    H278875   6.080   0.317  11.537  0.8031 -0.4552 -0.8331
19154TIP3   OH278876   5.957   1.945   5.826  0.2481 -0.6220 -0.7761
19154TIP3    H178877   5.979   1.920   5.916 -1.6198  3.2079  0.9920
19154TIP3    H278878   5.880   1.891   5.805 -0.7934  0.0757  0.9779
19155TIP3   OH278879   1.901   0.022   1.480  0.2307 -0.1794  0.0117
19155TIP3    H178880   1.903   0.091   1.413 -2.2187  1.1212  1.1454
19155TIP3    H278881   1.992   0.011   1.506  0.9417  1.0624 -1.7678
19156TIP3   OH278882   1.559   5.572   4.035 -0.0771  0.3517  0.0938
19156TIP3    H178883   1.516   5.658   4.038 -0.0196  0.4184 -0.7118
19156TIP3    H278884   1.566   5.545   4.127  0.9167  1.7159  0.4504
19157TIP3   OH278885   4.962   4.677   3.092 -0.1527 -0.1428 -0.2519
19157TIP3    H178886   4.986   4.752   3.145 -0.0643 -0.4293  0.1190
19157TIP3    H278887   4.910   4.621   3.151  1.7144 -1.4843  0.2140
19158TIP3   OH278888   0.422   0.703  11.669 -0.1734 -1.0532  0.7856
19158TIP3    H178889   0.427   0.755  11.749  0.5075 -1.8093  1.2407
19158TIP3    H278890   0.503   0.653  11.667  1.8666  1.9299 -2.4699
19159TIP3   OH278891   5.862   3.374   5.503  0.0304  0.0977 -0.2661
19159TIP3    H178892   5.838   3.296   5.454  0.4884 -0.3870  0.2642
19159TIP3    H278893   5.839   3.447   5.445 -1.8523 -0.3548 -0.1522
19160TIP3   OH278894   1.119   3.948  12.065  0.3652  0.0193 -0.6162
19160TIP3    H178895   1.126   3.853  12.075 -0.5353  0.0480  0.4496
19160TIP3    H278896   1.071   3.977  12.142  1.3021  1.4524 -0.5461
19161TIP3   OH278897   5.232   4.121  12.044  0.7589 -0.2704  0.0933
19161TIP3    H178898   5.231   4.071  11.962  0.0701 -0.2871  0.1099
19161TIP3    H278899   5.151   4.172  12.042  1.1826  0.4251  0.3386
19162TIP3   OH278900   2.344   3.301  14.787  0.2089  0.0926  0.1541
19162TIP3    H178901   2.277   3.256  14.735  0.7451  0.2412 -0.6819
19162TIP3    H278902   2.310   3.298  14.876 -0.9778  0.2842 -0.2701
19163TIP3   OH278903   1.731   0.940  15.631 -0.5104 -0.0349 -0.2086
19163TIP3    H178904   1.642   0.948  15.598  0.2837 -0.6717 -2.7230
19163TIP3    H278905   1.786   0.977  15.563  1.1916  0.4348  1.3216
19164TIP3   OH278906   4.953   3.142  16.353  0.0441 -0.5734 -0.6949
19164TIP3    H178907   4.945   3.151  16.258  0.7236  0.3476 -0.6799
19164TIP3    H278908   4.887   3.203  16.387 -1.1236 -1.8685 -0.5561
19165TIP3   OH278909   0.710   2.274   3.202  0.1226  0.1305 -0.3354
19165TIP3    H178910   0.642   2.211   3.226  1.7929 -1.3961  0.6695
19165TIP3    H278911   0.664   2.357   3.191 -2.2019 -1.2505 -1.8035
19166TIP3   OH278912   1.151   3.296   2.800 -0.3588 -0.0655  0.3449
19166TIP3    H178913   1.085   3.252   2.853 -0.3945  0.8761  1.1033
19166TIP3    H278914   1.173   3.233   2.731 -0.3520 -1.2959  1.4453
19167TIP3   OH278915   2.290   0.691  12.554  0.5418  0.0656  0.0949
19167TIP3    H178916   2.344   0.680  12.476  0.0804 -1.5450 -0.0306
19167TIP3    H278917   2.201   0.704  12.520  0.2726 -1.0436  0.3245
19168TIP3   OH278918   0.401   2.771  11.140  0.4819  0.7039  0.4861
19168TIP3    H178919   0.416   2.682  11.107 -1.2360 -0.0873  1.6555
19168TIP3    H278920   0.445   2.828  11.077  1.3086 -0.9557 -0.5062
19169TIP3   OH278921   0.874   4.404   0.028 -0.1945 -0.5836  1.0528
19169TIP3    H178922   0.957   4.424   0.071 -0.8166  3.8088  0.7394
19169TIP3    H278923   0.808   4.432   0.091 -1.3358 -0.7168 -0.0452
19170TIP3   OH278924   3.547   3.974  16.730 -0.2956  0.6560  0.3431
19170TIP3    H178925   3.540   3.976  16.634 -2.9630  1.7732  0.4772
19170TIP3    H278926   3.460   3.949  16.760  1.2495 -2.8298  2.5207
19171TIP3   OH278927   2.319   1.984  12.868 -0.0021 -0.3765 -0.2280
19171TIP3    H178928   2.368   1.984  12.786 -1.2829 -0.5139 -1.0078
19171TIP3    H278929   2.275   2.069  12.871 -0.3509 -0.5609  0.0749
19172TIP3   OH278930   6.561   5.008  14.491 -0.0996  0.5615  0.0192
19172TIP3    H178931   6.621   5.078  14.516 -0.8657  0.7819  1.3089
19172TIP3    H278932   6.518   4.982  14.573 -1.1845 -0.1330 -0.7427
19173TIP3   OH278933   4.322   3.549   0.697  0.3834  0.0533  0.2818
19173TIP3    H178934   4.297   3.555   0.605  1.0460 -1.0973  0.0117
19173TIP3    H278935   4.267   3.480   0.733 -1.0258  1.5666  1.1876
19174TIP3   OH278936   0.436   0.128   6.518 -0.0955 -0.3326  0.5274
19174TIP3    H178937   0.464   0.211   6.558  1.0296 -0.4340  0.0001
19174TIP3    H278938   0.513   0.071   6.525 -0.3225 -0.7924 -0.5582
19175TIP3   OH278939   0.993   0.084  12.748 -0.2103 -0.6763  0.4002
19175TIP3    H178940   0.994  -0.010  12.764 -0.4001 -0.5421  1.2411
19175TIP3    H278941   1.083   0.105  12.726 -0.5971 -1.4439 -2.3029
19176TIP3   OH278942   1.336   5.141  12.114  0.0956  0.5873 -0.1813
19176TIP3    H178943   1.287   5.097  12.184  1.6977  0.1768  0.7403
19176TIP3    H278944   1.271   5.158  12.046 -1.2638 -0.1242  0.8892
19177TIP3   OH278945   2.686   1.879  17.293  0.5930 -0.0504 -0.2467
19177TIP3    H178946   2.699   1.821  17.218 -2.3100  0.0420 -0.9447
19177TIP3    H278947   2.594   1.870  17.315  0.4448  2.8693  0.8256
19178TIP3   OH278948   4.564   1.557   4.441 -0.2221 -0.2318 -0.6784
19178TIP3    H178949   4.555   1.514   4.356 -0.3234 -1.7384  0.0593
19178TIP3    H278950   4.474   1.564   4.474  0.0067 -2.6598  0.6851
19179TIP3   OH278951   1.629   4.072  11.096 -0.2826 -0.5884 -0.3366
19179TIP3    H178952   1.563   4.002  11.098 -0.2446 -0.6202 -0.2069
19179TIP3    H278953   1.709   4.027  11.069 -0.6328 -0.2932 -2.0198
19180TIP3   OH278954   5.754   4.063   1.172 -0.5813  0.3313 -0.4712
19180TIP3    H178955   5.721   4.050   1.083 -1.4833  0.5650 -0.1891
19180TIP3    H278956   5.815   4.135   1.166 -1.8267  1.4109 -0.6559
19181TIP3   OH278957   6.496   6.157   2.111 -0.1447 -0.2204  0.0547
19181TIP3    H178958   6.505   6.136   2.018 -0.1264 -0.7257  0.1725
19181TIP3    H278959   6.408   6.194   2.119  0.8884  2.6928 -0.7057
19182TIP3   OH278960   6.426   4.634  11.308 -0.0202  0.4284 -0.2526
19182TIP3    H178961   6.451   4.718  11.268 -1.7466  1.0516 -0.0833
19182TIP3    H278962   6.356   4.656  11.369 -0.0636 -1.0692  0.2802
19183TIP3   OH278963   3.919   3.685  14.215 -0.2253 -0.1292  0.8993
19183TIP3    H178964   3.914   3.612  14.277  2.4908 -1.9224 -0.7772
19183TIP3    H278965   3.962   3.755  14.264 -0.8409 -0.4336  1.9028
19184TIP3   OH278966   6.685   6.235  15.535 -0.5205 -0.4290 -0.8863
19184TIP3    H178967   6.694   6.316  15.586 -1.8494  1.0269 -2.8377
19184TIP3    H278968   6.667   6.168  15.601  0.2783  0.8910  0.7641
19185TIP3   OH278969   0.846   0.603   0.921  0.0454  0.3641  0.0898
19185TIP3    H178970   0.844   0.678   0.862  0.0054  0.7371  0.5614
19185TIP3    H278971   0.936   0.571   0.917 -0.4810 -1.0288 -1.9216
19186TIP3   OH278972   4.822   1.316   1.098  0.2892  0.2638  0.1652
19186TIP3    H178973   4.842   1.239   1.150  0.9525 -0.4144 -1.0607
19186TIP3    H278974   4.760   1.286   1.031  2.1196  0.2480 -1.6152
19187TIP3   OH278975   5.294   3.927  14.541  0.4761  0.0610  0.3970
19187TIP3    H178976   5.351   3.962  14.610 -0.9616 -0.1473  1.7697
19187TIP3    H278977   5.333   3.842  14.519  1.6748  0.6855  0.0015
19188TIP3   OH278978   3.592   5.774   2.690  0.1812 -0.2813 -0.4834
19188TIP3    H178979   3.577   5.686   2.725  1.0309 -0.6524 -1.0242
19188TIP3    H278980   3.683   5.794   2.713  0.3134  0.0387 -1.2514
19189TIP3   OH278981   3.703   0.424   3.266  0.2887  0.2698 -0.1940
19189TIP3    H178982   3.624   0.452   3.312  0.4083  1.7674 -0.8247
19189TIP3    H278983   3.704   0.329   3.275 -1.1791  0.2877  0.4689
19190TIP3   OH278984   6.024   3.659  17.229  0.2800 -0.4924  0.1457
19190TIP3    H178985   6.115   3.675  17.251 -0.4293  0.5081  2.6992
19190TIP3    H278986   6.004   3.574  17.267  0.1154 -0.6705 -0.3298
19191TIP3   OH278987   2.339   6.391  15.154 -0.6719  0.9993  0.1822
19191TIP3    H178988   2.420   6.421  15.114 -1.0606  2.0206  0.1353
19191TIP3    H278989   2.337   6.297  15.137  1.9616  0.3185  2.6966
19192TIP3   OH278990   5.758   1.761  15.343 -0.5296  0.1402 -0.5130
19192TIP3    H178991   5.763   1.670  15.313  0.4509 -0.3073  0.9606
19192TIP3    H278992   5.722   1.756  15.431 -0.6575  1.2094 -0.4848
19193TIP3   OH278993   1.047   5.767   1.690  0.3373 -0.2235 -0.1932
19193TIP3    H178994   1.139   5.756   1.666  0.0802  0.4591 -1.5896
19193TIP3    H278995   1.004   5.688   1.657  0.4713 -0.7747  0.8904
19194TIP3   OH278996   2.206   5.397   4.048 -0.2219 -0.3078  0.0036
19194TIP3    H178997   2.258   5.468   4.009 -1.3318 -0.2062 -1.3918
19194TIP3    H278998   2.174   5.347   3.973  0.0857 -1.9933  0.9434
19195TIP3   OH278999   3.643   2.619   1.916  0.1470 -0.5483  0.1092
19195TIP3    H179000   3.551   2.642   1.904 -0.0021 -0.8407  0.6395
19195TIP3    H279001   3.677   2.685   1.975  0.7054  0.4977 -1.3329
19196TIP3   OH279002   1.531   3.234  15.569 -0.5839  0.1081  0.4197
19196TIP3    H179003   1.484   3.311  15.602  0.4013  1.3154 -0.8586
19196TIP3    H279004   1.605   3.270  15.520  0.6590 -1.6957  0.8634
19197TIP3   OH279005   6.502   5.224  13.857 -0.3332  0.2846 -0.2639
19197TIP3    H179006   6.563   5.294  13.836  0.9968 -0.4066  1.1214
19197TIP3    H279007   6.529   5.194  13.944 -3.1814  0.5241  0.8174
19198TIP3   OH279008   6.737   6.418   0.893  0.1284  0.3182 -0.4412
19198TIP3    H179009   6.662   6.408   0.952  0.7165 -0.4349  0.2096
19198TIP3    H279010   6.812   6.386   0.944  0.9886  1.5561 -0.8876
19199TIP3   OH279011   1.537   6.072  14.796  0.2278 -0.2227 -0.0311
19199TIP3    H179012   1.537   6.033  14.709  0.9302  1.0609 -0.6239
19199TIP3    H279013   1.486   6.153  14.787  0.4817  0.0318  0.6906
19200TIP3   OH279014   0.354   1.031  13.570 -0.1996  0.2517 -0.1870
19200TIP3    H179015   0.310   1.099  13.518 -2.0109 -0.7807 -0.1075
19200TIP3    H279016   0.299   0.954  13.558 -1.9539  0.3799  4.8004
19201TIP3   OH279017   4.394   3.813  15.088  0.0162  0.2098  0.2721
19201TIP3    H179018   4.463   3.781  15.030  0.8811  0.3600  1.1976
19201TIP3    H279019   4.316   3.764  15.061  0.9639 -1.5859  0.6331
19202TIP3   OH279020   4.924   4.949   3.015 -0.2450 -0.3314 -0.9398
19202TIP3    H179021   4.986   4.953   3.087 -0.6521 -1.2908 -0.5264
19202TIP3    H279022   4.974   4.912   2.942  0.5245  1.8082 -1.5689
19203TIP3   OH279023   0.517   2.482   2.006  0.7956 -0.2244  0.4747
19203TIP3    H179024   0.541   2.524   2.089  0.4534  0.8881  0.0333
19203TIP3    H279025   0.600   2.472   1.959  0.7971  0.6770  0.2717
19204TIP3   OH279026   6.345   0.462   0.749 -0.3344 -0.3454 -0.3759
19204TIP3    H179027   6.278   0.474   0.681 -0.3834 -0.0334 -0.2756
19204TIP3    H279028   6.425   0.497   0.710 -0.0267 -1.5116 -0.8228
19205TIP3   OH279029   0.792   1.653   3.470  0.2881  0.1050  0.1774
19205TIP3    H179030   0.781   1.738   3.427  2.1099  0.3433  0.1253
19205TIP3    H279031   0.702   1.620   3.479 -0.5179  2.2693  0.7384
19206TIP3   OH279032   3.891   1.896  11.912  0.4743 -0.7080 -0.5244
19206TIP3    H179033   3.929   1.832  11.971 -0.8767  1.6091  3.1768
19206TIP3    H279034   3.957   1.965  11.905  0.0249 -0.2691 -0.5005
19207TIP3   OH279035   1.313   5.933   0.160  0.2268  0.3183 -0.5688
19207TIP3    H179036   1.381   5.935   0.092  1.2183 -0.5481  0.3579
19207TIP3    H279037   1.356   5.969   0.237 -1.6163  3.7231 -0.9494
19208TIP3   OH279038   6.648   2.293   3.021  0.2416 -0.3245 -0.1637
19208TIP3    H179039   6.645   2.316   3.114  1.1041 -0.4662 -0.0923
19208TIP3    H279040   6.611   2.368   2.976  0.0732 -0.1412  0.2793
19209TIP3   OH279041   1.632   4.044  16.989  0.2833 -0.1750 -0.6130
19209TIP3    H179042   1.621   3.998  17.072  0.5213 -2.0368 -1.5611
19209TIP3    H279043   1.699   4.110  17.007 -0.2904  0.0410  0.8723
19210TIP3   OH279044   5.662   3.739  14.928  0.1668 -0.1218  0.2737
19210TIP3    H179045   5.594   3.679  14.897 -0.2676 -0.0471  1.0357
19210TIP3    H279046   5.613   3.808  14.973  0.7630 -0.2199  1.0932
19211TIP3   OH279047   2.172   4.194   3.171  0.2124 -0.0088 -0.3426
19211TIP3    H179048   2.082   4.192   3.138  0.4675  0.4239 -1.0695
19211TIP3    H279049   2.219   4.131   3.117  0.3647 -0.1850 -0.0061
19212TIP3   OH279050   5.225   3.957  16.746  0.0274  0.2725 -0.4556
19212TIP3    H179051   5.141   3.912  16.754 -0.0895  0.3950 -0.9357
19212TIP3    H279052   5.217   4.033  16.804  0.1560 -0.2193  0.2133
19213TIP3   OH279053   1.859   3.766  17.089 -0.5376  0.4992  0.0683
19213TIP3    H179054   1.816   3.681  17.102 -1.2515  0.9177  0.4392
19213TIP3    H279055   1.917   3.751  17.014 -2.1353  0.2434 -1.1606
19214TIP3   OH279056   0.978   3.495  11.388  0.3690  0.0625 -0.3693
19214TIP3    H179057   0.971   3.493  11.484 -0.0983  0.5142 -0.3880
19214TIP3    H279058   0.963   3.586  11.365 -1.3535 -0.3226 -0.9814
19215TIP3   OH279059   5.904   1.427   1.305 -0.3969 -0.3612 -0.0105
19215TIP3    H179060   5.875   1.499   1.362 -0.3741  0.2127 -0.7123
19215TIP3    H279061   5.823   1.390   1.271 -0.3973 -0.5030  0.1403
19216TIP3   OH279062   6.325   5.227  16.710 -0.0786 -0.2252 -0.2924
19216TIP3    H179063   6.299   5.223  16.802 -0.1447 -2.9387 -0.3440
19216TIP3    H279064   6.415   5.196  16.709  0.1796  0.5025 -1.0849
19217TIP3   OH279065   0.114   4.703   3.139  0.0481 -0.1205 -0.3310
19217TIP3    H179066   0.042   4.666   3.089 -0.1763  0.3529 -0.3632
19217TIP3    H279067   0.181   4.723   3.074  1.1385 -2.5674 -0.0979
19218TIP3   OH279068   0.480   6.612  11.227  0.0372 -0.6877  0.1783
19218TIP3    H179069   0.563   6.635  11.186  0.4717  1.0767  1.8772
19218TIP3    H279070   0.413   6.645  11.166  0.5557 -1.8190 -1.0345
19219TIP3   OH279071   4.844   0.764   0.799 -0.0873 -0.1874 -0.6038
19219TIP3    H179072   4.770   0.732   0.748 -0.2504 -0.1306 -0.4016
19219TIP3    H279073   4.829   0.733   0.888 -0.7494  1.2417 -0.1800
19220TIP3   OH279074   4.341   2.977  11.194 -0.4416  0.3297 -0.3509
19220TIP3    H179075   4.285   2.942  11.125 -1.8208  0.3583  0.7347
19220TIP3    H279076   4.351   3.070  11.171 -2.5536  0.8230  0.5157
19221TIP3   OH279077   3.707   3.217  14.401  0.3989 -0.3063 -0.3293
19221TIP3    H179078   3.732   3.280  14.469  0.0723 -1.7575  1.2315
19221TIP3    H279079   3.615   3.198  14.419  1.0101 -2.8053  0.6936
19222TIP3   OH279080   1.687   4.526   0.274 -0.2768  0.1055 -0.4338
19222TIP3    H179081   1.679   4.440   0.316  2.1112  0.6596  1.4002
19222TIP3    H279082   1.781   4.538   0.263 -0.6131  2.0429 -1.7328
19223TIP3   OH279083   5.076   3.515   3.646 -0.6899 -0.2935 -0.0591
19223TIP3    H179084   5.169   3.534   3.636 -0.7044  0.8151  1.6686
19223TIP3    H279085   5.051   3.476   3.562  1.7086 -2.2934  0.0257
19224TIP3   OH279086   4.955   6.004   6.294  0.7460  0.3347  0.1381
19224TIP3    H179087   5.015   5.994   6.367 -0.7272 -1.9436  1.1664
19224TIP3    H279088   4.915   6.090   6.306  0.5608  0.0219  2.0175
19225TIP3   OH279089   4.125   5.598   5.749 -0.3537  0.5318 -0.0203
19225TIP3    H179090   4.185   5.666   5.720 -0.5772  0.9544  0.4739
19225TIP3    H279091   4.096   5.555   5.669  1.7897 -0.7339 -0.2107
19226TIP3   OH279092   5.868   4.780   3.107  0.3467 -0.2867 -0.7000
19226TIP3    H179093   5.784   4.823   3.126  1.0623  1.5362 -1.4468
19226TIP3    H279094   5.850   4.686   3.120 -1.7452  0.0648 -0.6601
19227TIP3   OH279095   4.637   0.332  15.429 -0.3266 -0.1106 -0.1337
19227TIP3    H179096   4.717   0.374  15.400 -0.0768 -1.1783 -1.0766
19227TIP3    H279097   4.568   0.395  15.410  0.2956  0.9793  1.0425
19228TIP3   OH279098   5.112   6.163   5.346  0.4491  0.8771 -0.4652
19228TIP3    H179099   5.152   6.166   5.259  3.4024  2.7837  0.7954
19228TIP3    H279100   5.074   6.250   5.357 -0.8808  0.2842 -0.2047
19229TIP3   OH279101   6.205   3.724   5.348 -0.1299 -1.4198  0.4581
19229TIP3    H179102   6.226   3.803   5.398  1.1730 -1.8306  0.5945
19229TIP3    H279103   6.251   3.654   5.393 -0.7587 -2.1680 -0.0369
19230TIP3   OH279104   4.819   3.855   1.982 -0.1583 -0.5789  0.2252
19230TIP3    H179105   4.828   3.879   2.074  0.1871 -0.9453  0.2910
19230TIP3    H279106   4.806   3.938   1.937  0.3027 -0.3340  0.5333
19231TIP3   OH279107   5.331   3.636  14.550 -0.2802 -0.6352  0.5367
19231TIP3    H179108   5.379   3.585  14.615 -0.0337 -1.6116 -0.4000
19231TIP3    H279109   5.242   3.602  14.553  0.2858 -2.4889 -1.3896
19232TIP3   OH279110   0.176   4.256   4.122 -0.2972 -0.0973 -0.2685
19232TIP3    H179111   0.227   4.209   4.056 -0.5300 -0.5430 -0.1349
19232TIP3    H279112   0.181   4.348   4.095  0.5180 -0.1372 -0.2919
19233TIP3   OH279113   5.936   0.365  11.448 -0.2528 -0.5464 -0.5475
19233TIP3    H179114   5.899   0.278  11.465 -0.5461 -0.6815 -1.8078
19233TIP3    H279115   5.864   0.425  11.468  0.1589 -0.5266  0.9835
19234TIP3   OH279116   2.997   4.873  14.527  0.9434  0.3484  0.1562
19234TIP3    H179117   3.039   4.943  14.576 -1.2750  1.4070  0.6711
19234TIP3    H279118   2.915   4.857  14.573  0.0740 -0.5959 -1.5956
19235TIP3   OH279119   0.987   1.823  14.260 -0.2502 -0.2361 -0.4166
19235TIP3    H179120   0.950   1.901  14.302  0.2099 -0.6253  0.7751
19235TIP3    H279121   1.009   1.765  14.334  0.8319 -0.8528 -1.2000
19236TIP3   OH279122   5.414   5.195   4.383 -0.2966 -0.2357  0.3241
19236TIP3    H179123   5.438   5.285   4.363 -0.0395 -0.5127 -0.6638
19236TIP3    H279124   5.326   5.186   4.346 -0.1076 -0.5422 -0.0554
19237TIP3   OH279125   1.097   5.890   1.031 -0.0079 -0.0985  0.0984
19237TIP3    H179126   1.169   5.953   1.036 -1.0774  1.1322  0.4122
19237TIP3    H279127   1.049   5.901   1.113  0.1695 -1.8455  0.4875
19238TIP3   OH279128   6.315   6.633   3.341 -0.3794 -0.1707  0.4877
19238TIP3    H179129   6.325   6.542   3.370 -0.9961  0.1822  1.8987
19238TIP3    H279130   6.226   6.656   3.367 -0.8975  0.2779 -1.5413
19239TIP3   OH279131   5.433   2.549  17.308  0.0175 -0.3920  0.5803
19239TIP3    H179132   5.501   2.595  17.357  1.4936 -0.3213 -1.4102
19239TIP3    H279133   5.369   2.618  17.287  1.7473  0.7272 -1.5611
19240TIP3   OH279134   1.900   1.120   4.065  0.6330 -0.3798 -0.3161
19240TIP3    H179135   1.940   1.205   4.080 -0.7540  0.3367 -0.5588
19240TIP3    H279136   1.957   1.078   4.000  2.5198 -0.5418  1.3256
19241TIP3   OH279137   6.071   0.702   6.586  1.0623  0.7639 -0.0695
19241TIP3    H179138   6.049   0.683   6.495  1.0739 -0.1738  0.1089
19241TIP3    H279139   6.056   0.619   6.632 -1.7450  1.9041  1.3344
19242TIP3   OH279140   1.970   4.887   1.158  0.3111  0.1900  0.1517
19242TIP3    H179141   2.029   4.937   1.216  1.4884 -1.5249  0.5094
19242TIP3    H279142   1.888   4.882   1.207 -0.2279  2.6107 -0.3482
19243TIP3   OH279143   6.624   2.847   0.532 -1.0293 -0.2958 -0.1851
19243TIP3    H179144   6.619   2.770   0.588 -0.7077 -0.3161 -0.1866
19243TIP3    H279145   6.645   2.919   0.592 -1.0453 -0.2567 -0.2264
19244TIP3   OH279146   2.495   2.708  16.714  0.0889 -0.1510 -0.1843
19244TIP3    H179147   2.413   2.705  16.764  0.4993  0.3732  0.5470
19244TIP3    H279148   2.543   2.630  16.742  0.1545 -0.0568 -0.0256
19245TIP3   OH279149   3.381   3.770  15.873  0.2563 -0.2578  0.3879
19245TIP3    H179150   3.353   3.827  15.944 -0.9665  1.1032 -1.0836
19245TIP3    H279151   3.451   3.819  15.830  0.2272 -0.5475  0.0081
19246TIP3   OH279152   4.182   0.784  16.795 -0.0026  0.2578  0.6984
19246TIP3    H179153   4.244   0.819  16.732  0.1183 -1.3982 -0.1554
19246TIP3    H279154   4.117   0.738  16.742  0.1530 -1.2560  1.7493
19247TIP3   OH279155   3.438   4.623  14.175 -0.2638  0.6394 -0.2480
19247TIP3    H179156   3.396   4.704  14.206 -0.9328  0.4800 -0.7154
19247TIP3    H279157   3.392   4.603  14.093 -0.2821 -0.3566 -0.0014
19248TIP3   OH279158   1.795   6.684   6.755  0.8592 -0.1919 -0.0448
19248TIP3    H179159   1.881   6.709   6.722 -0.0224  1.1657 -1.4912
19248TIP3    H279160   1.736   6.753   6.723 -0.9127 -1.5565  0.1033
19249TIP3   OH279161   1.188   6.143  12.286 -0.3666  0.0474  0.1491
19249TIP3    H179162   1.110   6.161  12.233 -1.1399 -1.6651  0.6164
19249TIP3    H279163   1.225   6.064  12.247  0.7329  0.4371  0.3863
19250TIP3   OH279164   3.424   1.731   3.391  0.0991  0.3401  0.6517
19250TIP3    H179165   3.496   1.673   3.368 -0.5920 -0.6691  0.9376
19250TIP3    H279166   3.406   1.780   3.311 -0.9818 -1.7058 -0.4435
19251TIP3   OH279167   5.826   3.183  13.944  0.9060 -0.0906 -0.0348
19251TIP3    H179168   5.763   3.114  13.923  1.6103 -0.9234  0.4941
19251TIP3    H279169   5.824   3.189  14.039  0.7865  0.6940 -0.0870
19252TIP3   OH279170   1.385   5.517   2.388 -0.2072 -0.1012  0.2036
19252TIP3    H179171   1.443   5.568   2.445 -1.0154  1.5081 -0.3535
19252TIP3    H279172   1.330   5.467   2.448  2.1084 -2.1695  0.7501
19253TIP3   OH279173   3.133   3.377  11.084  0.2220 -0.0077 -0.0048
19253TIP3    H179174   3.059   3.368  11.145 -0.0402  0.1307 -0.3009
19253TIP3    H279175   3.109   3.321  11.010  0.1941  0.4078 -0.3111
19254TIP3   OH279176   1.458   0.042   0.465 -0.2854 -0.1868  0.0929
19254TIP3    H179177   1.418   0.095   0.396 -0.0811  0.2274  0.2859
19254TIP3    H279178   1.429   0.083   0.547  2.3889  1.6470  0.2824
19255TIP3   OH279179   4.576   6.295  11.975 -0.1415 -0.4956  0.8235
19255TIP3    H179180   4.537   6.383  11.981  1.1379  0.2436 -0.7411
19255TIP3    H279181   4.606   6.289  11.884  0.3213 -2.3422  1.0669
19256TIP3   OH279182   0.434   3.260   6.636 -0.4218  0.2510 -0.4363
19256TIP3    H179183   0.406   3.341   6.680 -2.1694 -0.2951 -0.4580
19256TIP3    H279184   0.397   3.267   6.548 -1.2429 -0.8736 -0.2103
19257TIP3   OH279185   3.445   1.909  14.920 -0.3486 -0.1412  0.4613
19257TIP3    H179186   3.525   1.866  14.890 -0.7864 -1.2989  0.9103
19257TIP3    H279187   3.443   1.894  15.014 -1.7861 -1.3387  0.2651
19258TIP3   OH279188   5.234   0.392   3.636 -0.5012  0.0232  0.5196
19258TIP3    H179189   5.159   0.393   3.696 -0.7274 -0.1232  0.2390
19258TIP3    H279190   5.298   0.334   3.679  0.4613  2.0611  1.9711
19259TIP3   OH279191   1.899   2.613  15.078  0.5428 -0.1086  0.1373
19259TIP3    H179192   1.981   2.643  15.118  1.8229 -2.0366 -0.8914
19259TIP3    H279193   1.872   2.539  15.132 -0.5037  0.4442  0.4006
19260TIP3   OH279194   2.279   5.657   3.658 -0.3700  0.3444 -0.2798
19260TIP3    H179195   2.211   5.595   3.634 -1.2422  2.0774 -2.6627
19260TIP3    H279196   2.232   5.731   3.697  0.0975  1.4941 -1.8133
19261TIP3   OH279197   4.012   1.427  12.538 -0.8389  0.2763  0.6190
19261TIP3    H179198   4.050   1.438  12.625  2.6971  2.1034 -0.9802
19261TIP3    H279199   4.066   1.359  12.497 -1.6623  0.3153 -0.5740
19262TIP3   OH279200   3.086   1.364   2.215 -0.3523 -0.2238 -0.3222
19262TIP3    H179201   3.082   1.313   2.134 -2.5984 -0.4881 -0.1303
19262TIP3    H279202   3.048   1.306   2.281  0.4544  0.3786  0.6904
19263TIP3   OH279203   2.336   0.552  13.683  0.1906  0.1670  0.0727
19263TIP3    H179204   2.266   0.563  13.747 -0.6349  0.5711 -0.8738
19263TIP3    H279205   2.416   0.575  13.731 -0.0496 -2.0908  1.7146
19264TIP3   OH279206   0.557   3.188   4.677 -0.1163 -0.0983 -0.2282
19264TIP3    H179207   0.525   3.124   4.741 -1.3164 -0.3754 -1.0623
19264TIP3    H279208   0.529   3.273   4.713  1.2719 -0.0372  0.7609
19265TIP3   OH279209   3.502   3.705  16.367 -0.5601 -0.1838  0.0334
19265TIP3    H179210   3.421   3.752  16.388  0.2744  1.1664  0.3633
19265TIP3    H279211   3.555   3.769  16.321  0.4114 -0.9818  0.0216
19266TIP3   OH279212   3.437   6.317  12.890 -0.5180  0.0658  0.0844
19266TIP3    H179213   3.526   6.326  12.924 -0.4596  1.4588 -0.3762
19266TIP3    H279214   3.381   6.330  12.967 -0.3649  2.1845 -0.1079
19267TIP3   OH279215   4.658   4.867  12.580 -0.5040 -0.2257  0.1681
19267TIP3    H179216   4.563   4.855  12.571 -1.2916  4.2925  0.0267
19267TIP3    H279217   4.693   4.846  12.493 -1.2531 -2.1235  0.2682
19268TIP3   OH279218   6.756   3.118  15.428 -1.0181  0.1105 -0.1791
19268TIP3    H179219   6.680   3.066  15.452  0.0611 -0.9989  1.0465
19268TIP3    H279220   6.772   3.098  15.336 -0.2189 -2.3743  0.4193
19269TIP3   OH279221   3.843   2.710  12.987 -0.1362 -0.4824 -0.5019
19269TIP3    H179222   3.770   2.678  13.041  0.9473  0.9409  1.9592
19269TIP3    H279223   3.865   2.635  12.931 -1.9206 -1.7449  0.3638
19270TIP3   OH279224   3.141   0.081   1.167  0.4974  0.0852 -0.2151
19270TIP3    H179225   3.155   0.172   1.195 -1.9641  0.0772  1.2991
19270TIP3    H279226   3.185   0.028   1.233 -0.3049  0.1585  0.3891
19271TIP3   OH279227   1.340   6.755   5.956 -0.2350 -0.2839 -0.1073
19271TIP3    H179228   1.415   6.744   5.898 -0.6565 -2.2590 -0.3431
19271TIP3    H279229   1.376   6.793   6.036  1.0739 -1.4971 -0.0932
19272TIP3   OH279230   2.689   0.907   3.832 -0.1583 -0.1674 -0.2616
19272TIP3    H179231   2.720   0.974   3.892  1.9376 -0.4320 -0.9603
19272TIP3    H279232   2.769   0.868   3.797 -1.3270 -1.6952 -1.3498
19273TIP3   OH279233   3.738   3.781  15.218  0.5252 -0.2459  0.4567
19273TIP3    H179234   3.647   3.787  15.248  0.1021 -1.6803 -0.4665
19273TIP3    H279235   3.774   3.869  15.233 -1.4584  0.8090 -0.5568
19274TIP3   OH279236   0.854   4.630   2.862  0.0510 -0.1955 -0.3274
19274TIP3    H179237   0.823   4.540   2.869  1.0968 -0.4794  0.9518
19274TIP3    H279238   0.894   4.649   2.946 -1.1844  1.8851 -0.1338
19275TIP3   OH279239   6.705   1.713  10.705  0.0845  0.9134 -0.5883
19275TIP3    H179240   6.765   1.655  10.658  0.9032  2.9178 -2.1687
19275TIP3    H279241   6.754   1.794  10.718 -1.1306  1.4365  1.2383
19276TIP3   OH279242   3.871   2.725  16.920  0.9901  0.4754  0.2109
19276TIP3    H179243   3.937   2.711  16.852  2.3311  1.1388  1.2993
19276TIP3    H279244   3.920   2.715  17.002 -0.8679 -1.7734  1.1513
19277TIP3   OH279245   2.782   1.001   0.164 -0.1368  0.3531 -0.0428
19277TIP3    H179246   2.699   1.033   0.127  0.7328  1.9562 -0.7021
19277TIP3    H279247   2.839   0.991   0.088  1.1242  1.9681  0.6268
19278TIP3   OH279248   4.965   6.583   1.700  0.2924  0.3328 -0.1847
19278TIP3    H179249   4.917   6.502   1.718  0.0070  0.1509 -1.6229
19278TIP3    H279250   5.056   6.556   1.695  0.7292  0.7984  3.2882
19279TIP3   OH279251   4.975   0.045   6.286 -0.1302 -0.0531  0.2407
19279TIP3    H179252   4.915   0.038   6.360  0.8478 -0.1119  1.0511
19279TIP3    H279253   5.024  -0.037   6.288  1.3908  0.8281  0.8753
19280TIP3   OH279254   0.649   5.335   0.263  0.7179  0.1385 -0.7213
19280TIP3    H179255   0.668   5.344   0.356  0.2803 -1.3992 -0.4575
19280TIP3    H279256   0.712   5.270   0.232  1.6571  1.4951 -1.7920
19281TIP3   OH279257   6.529   6.746  14.749  0.0064  0.5133  0.2434
19281TIP3    H179258   6.592   6.730  14.818 -0.7093  0.3918  0.8773
19281TIP3    H279259   6.468   6.672  14.754  1.2289 -0.7751 -2.0273
19282TIP3   OH279260   2.364   5.615   3.963  0.0711 -0.2846  0.2905
19282TIP3    H179261   2.432   5.651   4.020  1.7459  0.3015 -1.9209
19282TIP3    H279262   2.360   5.676   3.889 -3.2453 -0.0438  0.4832
19283TIP3   OH279263   2.546   0.182   0.024 -0.0293 -0.5174 -0.0134
19283TIP3    H179264   2.635   0.217   0.021 -0.2673  0.0839 -0.2338
19283TIP3    H279265   2.558   0.087   0.027  0.6326 -0.4156  0.9102
19284TIP3   OH279266   4.122   4.170  16.522 -0.2514  0.3981 -0.1235
19284TIP3    H179267   4.055   4.238  16.525 -0.2064  0.5656 -1.7618
19284TIP3    H279268   4.204   4.217  16.539 -0.1461  0.9186 -1.8683
19285TIP3   OH279269   3.648   0.468  15.794  0.3292 -0.6198 -0.2137
19285TIP3    H179270   3.685   0.554  15.777 -1.2920  0.3348  0.7439
19285TIP3    H279271   3.584   0.483  15.864 -1.7994 -2.1206 -1.7079
19286TIP3   OH279272   5.168   0.766  14.584 -0.1350  0.9109  0.2761
19286TIP3    H179273   5.245   0.772  14.640  2.5888 -0.8658 -2.8753
19286TIP3    H279274   5.179   0.836  14.520 -0.6416  0.1147 -0.7258
19287TIP3   OH279275   4.132   6.338  17.326  0.7576  0.2307 -0.0957
19287TIP3    H179276   4.045   6.298  17.322  1.6796 -2.0174  0.8649
19287TIP3    H279277   4.115   6.432  17.314 -1.6385 -0.2731 -1.3134
19288TIP3   OH279278   5.396   1.026  16.441 -0.0134 -0.2592 -0.2122
19288TIP3    H179279   5.443   0.990  16.516 -0.5993  1.7877  1.2290
19288TIP3    H279280   5.460   1.080  16.395  0.0896 -0.7373 -0.6404
19289TIP3   OH279281   3.043   4.950   3.046 -0.5498  0.3806 -0.3297
19289TIP3    H179282   2.954   4.914   3.041 -0.7134  0.7756 -0.3199
19289TIP3    H279283   3.041   5.025   2.988  0.0398 -0.1311 -1.0185
19290TIP3   OH279284   3.990   2.591   3.229  0.5071  0.5878 -0.4546
19290TIP3    H179285   3.951   2.505   3.241 -0.0898  1.1093  1.9424
19290TIP3    H279286   3.915   2.651   3.228  1.0121  1.3391  1.4380
19291TIP3   OH279287   3.144   0.064  12.044  0.0830 -0.2213  0.3721
19291TIP3    H179288   3.085   0.137  12.022  2.7633  1.5048 -1.6908
19291TIP3    H279289   3.179   0.088  12.130  0.5682  0.7242 -0.0672
19292TIP3   OH279290   3.564   2.175  16.677 -0.0726 -0.9411 -0.0592
19292TIP3    H179291   3.481   2.132  16.656  0.7287 -2.4428 -0.2948
19292TIP3    H279292   3.587   2.142  16.764  1.7049 -2.9262 -1.1978
19293TIP3   OH279293   0.099   1.330   3.020  0.1108  0.4684 -0.2003
19293TIP3    H179294   0.040   1.273   3.069 -1.6625  0.5420 -2.1050
19293TIP3    H279295   0.071   1.419   3.042  0.5731  0.5338  0.1218
19294TIP3   OH279296   5.405   2.584   5.209 -0.2038  0.0952 -0.4447
19294TIP3    H179297   5.338   2.546   5.266 -0.3282  0.5101 -0.3102
19294TIP3    H279298   5.481   2.528   5.221 -0.0508  0.4944  0.5623
19295TIP3   OH279299   2.830   5.184  16.687  0.3735  0.0661  0.8506
19295TIP3    H179300   2.872   5.228  16.761  0.1525  0.0347  0.9971
19295TIP3    H279301   2.898   5.179  16.620  0.7775 -0.4986  1.2885
19296TIP3   OH279302   4.877   5.309  15.332  0.5699 -0.0572  0.4447
19296TIP3    H179303   4.801   5.251  15.334  1.4560 -1.2590  2.4381
19296TIP3    H279304   4.946   5.257  15.291  0.6972  0.5412 -0.1185
19297TIP3   OH279305   4.540   3.048   3.954  0.5331  0.5317 -0.1085
19297TIP3    H179306   4.480   3.025   3.882  0.6146  0.2343 -0.0806
19297TIP3    H279307   4.627   3.032   3.918  0.5464 -1.1364  0.5580
19298TIP3   OH279308   6.396   3.220  12.695 -0.6932  0.5377 -0.2817
19298TIP3    H179309   6.481   3.262  12.687 -1.4215  1.8526 -1.8343
19298TIP3    H279310   6.367   3.208  12.604 -1.4766 -1.4011  0.1657
19299TIP3   OH279311   0.023   3.115   6.177  0.2903  0.1416 -0.4208
19299TIP3    H179312   0.021   3.208   6.200 -0.5408  0.1178 -0.3967
19299TIP3    H279313   0.011   3.069   6.260  1.5602 -0.0113 -0.3021
19300TIP3   OH279314   0.851   3.599   5.505 -0.6262  0.0633 -0.0592
19300TIP3    H179315   0.790   3.649   5.558 -1.3205 -1.1495  0.3057
19300TIP3    H279316   0.898   3.543   5.567 -1.8080 -1.7508 -0.7197
19301TIP3   OH279317   4.566   1.367   0.315  0.3981  0.1735  0.0901
19301TIP3    H179318   4.620   1.301   0.272 -0.3324 -0.9630  0.8753
19301TIP3    H279319   4.498   1.388   0.250 -0.4248 -1.1902  0.4735
19302TIP3   OH279320   3.748   2.161  10.827 -0.0092 -0.5363 -0.0837
19302TIP3    H179321   3.801   2.170  10.907  0.5950  0.2271 -0.5597
19302TIP3    H279322   3.706   2.075  10.836  1.3724 -1.2006  0.2822
19303TIP3   OH279323   0.988   2.727  12.006  0.2300  1.0537  0.1528
19303TIP3    H179324   0.907   2.775  11.986  0.5940  1.3963 -0.5604
19303TIP3    H279325   0.978   2.699  12.097 -0.3761  1.7176  0.3008
19304TIP3   OH279326   2.187   3.895  16.650  0.2464  0.1728  0.1709
19304TIP3    H179327   2.209   3.953  16.723 -0.3085 -0.6573  1.0301
19304TIP3    H279328   2.201   3.807  16.686  1.1477 -0.2292 -1.1226
19305TIP3   OH279329   6.037   6.760  16.898  0.5532 -0.2445 -0.1588
19305TIP3    H179330   6.059   6.684  16.952  1.4674  0.2569  0.2023
19305TIP3    H279331   5.965   6.731  16.843 -0.9350 -0.5956  1.8275
19306TIP3   OH279332   6.357   1.361  16.847 -0.3078 -0.3888 -0.6523
19306TIP3    H179333   6.446   1.392  16.866  0.3039 -1.9867 -0.7658
19306TIP3    H279334   6.313   1.437  16.809  1.3123  0.1698 -1.5119
19307TIP3   OH279335   3.395   2.763  14.401  0.1004 -0.0397  0.6091
19307TIP3    H179336   3.452   2.690  14.423  1.1122  0.9373  1.3288
19307TIP3    H279337   3.438   2.840  14.439  0.1374  1.2438 -1.8334
19308TIP3   OH279338   3.465   3.692   5.519  0.3646 -0.1858 -0.4465
19308TIP3    H179339   3.531   3.662   5.582 -1.3544 -1.3518  0.8811
19308TIP3    H279340   3.509   3.686   5.434  2.5392  0.8171  0.5152
19309TIP3   OH279341   6.022   1.727   1.083 -0.2761 -0.0772 -0.0168
19309TIP3    H179342   5.941   1.774   1.063  0.1454  0.5562 -0.2586
19309TIP3    H279343   6.085   1.760   1.019 -0.0061 -1.0825 -0.2803
19310TIP3   OH279344   3.717   1.548  14.025  0.4121  0.4375 -0.4585
19310TIP3    H179345   3.769   1.491  13.969  0.4010  0.4276 -0.4583
19310TIP3    H279346   3.626   1.530  14.002  0.3294 -0.7074  0.6473
19311TIP3   OH279347   2.519   0.648   2.661  0.5893 -0.2972  0.5768
19311TIP3    H179348   2.541   0.709   2.731 -2.5092  0.8918  0.6778
19311TIP3    H279349   2.428   0.623   2.678 -0.8566  1.1434 -3.6044
19312TIP3   OH279350   5.474   4.360   6.334 -0.1116  0.4624  0.4797
19312TIP3    H179351   5.477   4.317   6.420  0.6252  1.3317  0.8953
19312TIP3    H279352   5.557   4.336   6.293 -1.3188 -1.7310 -0.9076
19313TIP3   OH279353   1.643   0.303  13.682  0.0482  0.2390  0.6353
19313TIP3    H179354   1.606   0.221  13.715  1.2499 -0.3526  0.5337
19313TIP3    H279355   1.566   0.360  13.669 -0.9715 -1.3278 -0.6504
19314TIP3   OH279356   6.153   3.769   1.465 -0.0223 -0.0602  0.4573
19314TIP3    H179357   6.183   3.855   1.492 -0.3375  0.2615 -0.2067
19314TIP3    H279358   6.063   3.764   1.498  0.2305 -0.4209  1.1130
19315TIP3   OH279359   2.908   5.558  11.299 -0.4366 -0.1393 -0.1208
19315TIP3    H179360   2.845   5.522  11.236 -1.2462  0.0171  0.5707
19315TIP3    H279361   2.963   5.617  11.248 -1.3384  0.2975 -0.6113
19316TIP3   OH279362   4.349   2.602  11.853  0.0740  0.2596  0.0918
19316TIP3    H179363   4.336   2.507  11.844 -0.1957  0.4533 -1.8329
19316TIP3    H279364   4.442   2.615  11.837 -0.2615  0.5135 -1.9198
19317TIP3   OH279365   5.901   2.788  13.345  0.4546 -0.0778  0.7780
19317TIP3    H179366   5.907   2.759  13.254  2.6563  0.3275  0.7312
19317TIP3    H279367   5.839   2.861  13.343 -0.9507 -1.2569 -0.0419
19318TIP3   OH279368   5.155   0.860  14.891 -0.7134  0.0638  0.5336
19318TIP3    H179369   5.198   0.776  14.908 -1.2844 -0.1353  1.0169
19318TIP3    H279370   5.077   0.859  14.946  0.2734  1.7363  2.0933
19319TIP3   OH279371   5.276   4.689   2.496  0.4467  0.2353 -0.2058
19319TIP3    H179372   5.181   4.692   2.478  0.3421 -1.0673  0.0913
19319TIP3    H279373   5.292   4.601   2.529  1.7360  0.5238 -0.0132
19320TIP3   OH279374   6.740   4.636   0.940  0.3992  0.0185  0.6090
19320TIP3    H179375   6.809   4.673   0.885  0.8316 -0.3964  0.8592
19320TIP3    H279376   6.660   4.644   0.887  0.8087 -0.3973 -0.0954
19321TIP3   OH279377   1.520   3.714  17.179  0.5718 -0.2004 -0.2305
19321TIP3    H179378   1.432   3.729  17.143  0.6741 -0.3015 -0.5226
19321TIP3    H279379   1.549   3.801  17.206  0.3457 -0.1787 -0.0482
19322TIP3   OH279380   4.597   5.691  15.216  0.1228  0.0853  0.3902
19322TIP3    H179381   4.563   5.691  15.305  0.2693  1.8550  0.4791
19322TIP3    H279382   4.550   5.761  15.172  1.9005  0.9783 -0.1637
19323TIP3   OH279383   2.227   0.051   5.171  0.5555 -0.1481 -0.0845
19323TIP3    H179384   2.194   0.131   5.211  0.4382 -0.2976  0.1193
19323TIP3    H279385   2.306   0.030   5.222  0.3738 -0.3703  0.1048
19324TIP3   OH279386   2.183   5.945   4.262 -0.4041 -0.3741 -0.2470
19324TIP3    H179387   2.213   5.854   4.253  1.5976  0.1405  0.5950
19324TIP3    H279388   2.089   5.940   4.249 -0.3164 -2.5345 -0.5208
19325TIP3   OH279389   3.589   4.666   4.722 -0.9885 -0.3522  0.3775
19325TIP3    H179390   3.673   4.664   4.769 -0.9981  0.7971  0.4480
19325TIP3    H279391   3.542   4.740   4.758 -1.1814  0.2915 -1.1259
19326TIP3   OH279392   0.283   0.132   1.982  0.0319  0.5322 -0.0006
19326TIP3    H179393   0.270   0.222   2.013  1.9900  0.6933  0.4967
19326TIP3    H279394   0.254   0.133   1.891 -2.5141  0.9423  0.7309
19327TIP3   OH279395   3.694   3.532  10.541 -0.4701  0.1786  0.1736
19327TIP3    H179396   3.675   3.625  10.550 -2.3091 -0.2489  1.4986
19327TIP3    H279397   3.765   3.515  10.603 -0.2241  0.6707  0.0264
19328TIP3   OH279398   0.776   4.388  11.488  0.4350 -0.5199 -0.2625
19328TIP3    H179399   0.856   4.434  11.463  1.0048 -0.0898  2.1381
19328TIP3    H279400   0.802   4.331  11.561 -1.2975 -0.8645  0.1428
19329TIP3   OH279401   4.125   1.212  11.543 -0.2762  0.2420 -0.1143
19329TIP3    H179402   4.117   1.154  11.467  0.5683  0.1166 -0.1192
19329TIP3    H279403   4.117   1.300  11.507  0.0528  0.1798 -0.3385
19330TIP3   OH279404   4.453   3.218   0.765 -0.3781 -0.2937  0.0955
19330TIP3    H179405   4.484   3.160   0.834  0.3725 -0.1851 -0.1405
19330TIP3    H279406   4.395   3.163   0.711 -2.3650  0.0634  1.7600
19331TIP3   OH279407   6.612   4.407  15.864  0.2026 -0.3566  0.2532
19331TIP3    H179408   6.697   4.444  15.889 -0.5493 -0.6824  3.6958
19331TIP3    H279409   6.549   4.475  15.886 -0.6405 -1.1355  0.2788
19332TIP3   OH279410   6.231   0.506   1.258 -0.0333  0.4797 -0.2278
19332TIP3    H179411   6.286   0.521   1.335  0.2882 -1.5802 -0.0041
19332TIP3    H279412   6.145   0.541   1.282  0.2590  0.5365  0.7692
19333TIP3   OH279413   1.986   1.501  12.326  0.5958  0.1864 -0.1421
19333TIP3    H179414   2.056   1.452  12.283  0.7254 -0.5245  0.8411
19333TIP3    H279415   2.032   1.561  12.384  0.4504 -1.7546  2.1369
19334TIP3   OH279416   2.427   0.755   1.166 -0.1398  0.4755  0.0651
19334TIP3    H179417   2.482   0.830   1.144 -0.7845  0.2309 -2.7157
19334TIP3    H279418   2.453   0.687   1.104 -1.8603 -0.4621  0.3150
19335TIP3   OH279419   1.059   1.534  10.843  0.3590 -0.0990  0.0322
19335TIP3    H179420   1.061   1.471  10.916 -1.7885 -0.5211 -0.2083
19335TIP3    H279421   1.150   1.558  10.830  1.1169 -2.1992  0.9800
19336TIP3   OH279422   4.346   0.973  15.483 -0.4621  0.3952 -0.3329
19336TIP3    H179423   4.270   0.918  15.464 -0.2793 -0.5276  1.3867
19336TIP3    H279424   4.413   0.911  15.513  0.1077  1.4292  0.6034
19337TIP3   OH279425   1.599   2.569   1.121 -0.5641 -0.1805 -0.2605
19337TIP3    H179426   1.526   2.553   1.181  0.1585 -0.9779  0.4209
19337TIP3    H279427   1.557   2.580   1.036 -1.4473 -1.4067 -0.0205
19338TIP3   OH279428   5.364   3.937  17.188  0.3494  0.7559 -0.0105
19338TIP3    H179429   5.407   4.018  17.214 -0.0694  0.3757  2.0855
19338TIP3    H279430   5.273   3.962  17.171 -0.1938  0.5721  2.2144
19339TIP3   OH279431   6.065   4.416  16.588 -0.8689 -0.5015 -0.1394
19339TIP3    H179432   6.160   4.423  16.602 -0.8778  0.1369 -0.3514
19339TIP3    H279433   6.026   4.461  16.663 -0.9899 -0.4221 -0.2478
19340TIP3   OH279434   0.414   0.157  12.544 -0.0854  0.3183  0.4061
19340TIP3    H179435   0.426   0.082  12.486  0.1755 -0.3813  1.3473
19340TIP3    H279436   0.479   0.221  12.514  1.5432 -0.8717  1.2633
19341TIP3   OH279437   5.178   3.902   3.186  0.7084  0.1588 -0.2641
19341TIP3    H179438   5.123   3.832   3.222  1.0498 -1.1654 -2.1365
19341TIP3    H279439   5.152   3.980   3.234 -0.5873 -1.0053  1.0473
19342TIP3   OH279440   3.197   6.346   6.265  0.3179 -0.3883  0.3183
19342TIP3    H179441   3.172   6.254   6.253 -0.2278 -0.1033 -0.9490
19342TIP3    H279442   3.277   6.355   6.215 -0.5482  0.2055 -1.0150
19343TIP3   OH279443   0.864   3.883  16.709 -0.4377  0.1146 -0.2986
19343TIP3    H179444   0.931   3.860  16.645 -0.6933  0.8417 -0.8474
19343TIP3    H279445   0.787   3.833  16.681 -0.6271  0.6374 -0.7315
19344TIP3   OH279446   0.841   5.761   5.130 -0.0360  0.3728  0.3706
19344TIP3    H179447   0.866   5.670   5.149  1.5154  0.2799 -1.7218
19344TIP3    H279448   0.747   5.765   5.148  0.2558 -1.0075  2.6402
19345TIP3   OH279449   2.075   2.423  17.083 -0.1787  0.1347  0.1237
19345TIP3    H179450   2.005   2.483  17.058  0.4332  1.0312  0.5154
19345TIP3    H279451   2.136   2.425  17.009 -0.7642 -1.0014 -0.4239
19346TIP3   OH279452   3.447   0.025   2.609 -0.2354  0.2044 -0.2016
19346TIP3    H179453   3.370  -0.025   2.638 -0.1769  0.6059  0.7042
19346TIP3    H279454   3.422   0.117   2.623  0.2510  0.3543 -0.3155
19347TIP3   OH279455   4.855   0.141   4.515  0.1130  0.1949 -0.4857
19347TIP3    H179456   4.937   0.092   4.519  0.0513  0.1695  0.8018
19347TIP3    H279457   4.874   0.217   4.460  1.3415  0.8328  0.7842
19348TIP3   OH279458   0.998   2.614   2.731 -0.0527  0.2641 -0.4706
19348TIP3    H179459   0.956   2.590   2.814  0.3086  1.8575  0.2095
19348TIP3    H279460   0.934   2.668   2.686  0.6051  1.3275 -0.1664
19349TIP3   OH279461   2.532   1.586   4.631  0.8797  1.0148  0.1164
19349TIP3    H179462   2.505   1.678   4.637  0.3459  0.9306 -0.8990
19349TIP3    H279463   2.601   1.578   4.698  0.0806  1.8321  1.0824
19350TIP3   OH279464   3.555   5.787  11.730 -0.0859  0.2675 -0.1300
19350TIP3    H179465   3.555   5.883  11.727 -1.5217  0.2842 -0.3271
19350TIP3    H279466   3.630   5.761  11.677  0.6408  1.2799  0.3679
19351TIP3   OH279467   0.999   2.530   3.659  0.0605 -0.0017  0.2788
19351TIP3    H179468   0.940   2.605   3.648 -0.9401 -0.8752 -0.4414
19351TIP3    H279469   1.055   2.532   3.582 -0.2481 -0.2363  0.0466
19352TIP3   OH279470   4.597   3.256  17.008  0.1518 -0.4924  0.3263
19352TIP3    H179471   4.579   3.192  16.939 -1.1949 -0.0639  0.2647
19352TIP3    H279472   4.683   3.292  16.984 -1.4041  1.6659 -2.7769
19353TIP3   OH279473   1.305   1.253  15.327 -0.5234  0.0551 -0.4928
19353TIP3    H179474   1.279   1.328  15.381 -3.4870 -1.9477  1.1691
19353TIP3    H279475   1.397   1.238  15.350 -0.1544  2.5003 -0.1019
19354TIP3   OH279476   5.938   2.949  16.964 -0.0894  0.0897 -0.1502
19354TIP3    H179477   5.903   2.987  16.883 -0.4203 -1.9683 -1.0337
19354TIP3    H279478   5.872   2.887  16.992  1.2594 -1.2921  0.1126
19355TIP3   OH279479   3.608   1.488  12.410 -0.4108  0.7312 -0.3523
19355TIP3    H179480   3.675   1.445  12.358 -0.7532  1.1800 -1.1895
19355TIP3    H279481   3.573   1.419  12.466  0.8713  0.5361  0.2454
19356TIP3   OH279482   5.570   5.315  15.786 -0.0731 -1.0517  0.1452
19356TIP3    H179483   5.656   5.305  15.827  0.0973  0.7956  0.3427
19356TIP3    H279484   5.507   5.288  15.853  0.3219 -2.0675  0.1247
19357TIP3   OH279485   4.289   0.781   6.436 -0.1912  0.0746 -0.0683
19357TIP3    H179486   4.324   0.815   6.353 -0.7608 -1.0298 -0.7965
19357TIP3    H279487   4.213   0.728   6.410  0.4396 -1.4354  1.0148
19358TIP3   OH279488   5.745   3.292   0.837  0.4742 -0.3479 -0.1033
19358TIP3    H179489   5.748   3.375   0.788  2.4607  0.8851  1.8822
19358TIP3    H279490   5.692   3.312   0.914 -1.0164 -1.6830 -0.7458
19359TIP3   OH279491   2.470   3.968  11.254 -0.5490 -0.1450 -0.2888
19359TIP3    H179492   2.422   3.907  11.310  2.0264 -1.9423  0.1246
19359TIP3    H279493   2.421   3.967  11.171 -2.3194 -0.3075  0.7048
19360TIP3   OH279494   5.300   4.000   5.569 -0.0250 -0.3282 -0.3141
19360TIP3    H179495   5.315   3.925   5.511 -0.1819 -1.2281  0.7530
19360TIP3    H279496   5.342   4.073   5.526 -0.3115 -0.9173 -1.6518
19361TIP3   OH279497   2.431   1.065  14.279 -0.5101  0.1637  0.1386
19361TIP3    H179498   2.363   0.999  14.267  1.1468 -1.3516 -1.6461
19361TIP3    H279499   2.473   1.072  14.194  2.8849 -0.5389  1.5606
19362TIP3   OH279500   2.680   4.988  13.681 -0.2849  0.1426 -0.2642
19362TIP3    H179501   2.755   4.961  13.733 -0.1586 -0.9490 -0.9782
19362TIP3    H279502   2.616   5.018  13.745 -0.6894 -2.4865  0.6886
19363TIP3   OH279503   4.084   1.653  13.047  0.0786  0.2416  0.1420
19363TIP3    H179504   3.998   1.636  13.008  0.5244 -1.1783 -0.2871
19363TIP3    H279505   4.142   1.666  12.972  0.7018 -1.2937  0.3115
19364TIP3   OH279506   5.048   6.603  13.050 -0.2485  0.1129 -0.0121
19364TIP3    H179507   5.135   6.586  13.014  0.8971  0.3864  2.4222
19364TIP3    H279508   4.989   6.551  12.995  1.7486 -2.1508 -0.2082
19365TIP3   OH279509   1.421   2.491  11.492  0.5771 -0.6400 -0.3221
19365TIP3    H179510   1.345   2.536  11.527  0.2231 -0.3142 -1.4561
19365TIP3    H279511   1.496   2.531  11.535  0.1518 -0.3580  0.1557
19366TIP3   OH279512   1.537   6.280   4.894 -0.1687 -0.0169 -0.3791
19366TIP3    H179513   1.519   6.337   4.969  1.7657 -0.2776  0.3457
19366TIP3    H279514   1.580   6.203   4.932 -0.5686 -0.8815 -1.6072
19367TIP3   OH279515   3.056   1.879   3.811  0.1637 -0.4324  0.4740
19367TIP3    H179516   2.977   1.866   3.863 -0.4411  1.3576  0.0812
19367TIP3    H279517   3.124   1.899   3.876 -0.6350  2.0060  0.6517
19368TIP3   OH279518   0.447   1.349   4.895 -0.1948 -0.4340 -0.3956
19368TIP3    H179519   0.413   1.402   4.822  0.2989  0.7256  0.1882
19368TIP3    H279520   0.515   1.403   4.934 -0.3420 -1.1084  0.8369
19369TIP3   OH279521   2.278   0.966  15.015 -0.3693 -0.3176  0.0601
19369TIP3    H179522   2.199   0.956  14.961 -1.4862  0.8731  1.4144
19369TIP3    H279523   2.286   1.061  15.028  1.8403 -0.3225 -0.7965
19370TIP3   OH279524   6.094   2.800   0.404 -0.7414 -0.2099  0.1814
19370TIP3    H179525   6.009   2.794   0.362 -1.1941  0.4324  0.9706
19370TIP3    H279526   6.075   2.833   0.492  0.3536  0.4092  0.2094
19371TIP3   OH279527   0.355   6.040  14.303  0.2353  0.0208 -0.2066
19371TIP3    H179528   0.420   6.035  14.374  0.1176 -1.4111 -0.1778
19371TIP3    H279529   0.397   6.093  14.236  0.8725  0.2783  0.3790
19372TIP3   OH279530   0.105   3.143   5.401  0.2049  0.6673  0.4243
19372TIP3    H179531   0.031   3.086   5.419  1.3018 -0.8401  0.3619
19372TIP3    H279532   0.078   3.194   5.324 -0.6641 -0.0509  0.2374
19373TIP3   OH279533   2.969   6.367  12.747  0.4268  0.2546  0.1373
19373TIP3    H179534   3.026   6.310  12.697 -0.2377 -1.5371  1.3155
19373TIP3    H279535   3.027   6.409  12.811  0.7801  0.2762 -0.1939
19374TIP3   OH279536   5.120   5.894   5.283  0.2423  0.8011 -0.1189
19374TIP3    H179537   5.084   5.975   5.321 -1.6902  0.8372 -1.8524
19374TIP3    H279538   5.049   5.830   5.293  0.9443 -0.0742 -0.7159
19375TIP3   OH279539   5.068   5.848  12.175  0.3331  0.7105  0.5608
19375TIP3    H179540   5.162   5.829  12.169  0.4403  1.2779  0.3414
19375TIP3    H279541   5.053   5.913  12.105 -0.1080  1.0352  0.9555
19376TIP3   OH279542   2.803   4.739   3.665  0.0964 -0.0513  0.3179
19376TIP3    H179543   2.895   4.740   3.637  0.0484  1.2748  0.1732
19376TIP3    H279544   2.806   4.760   3.758 -0.0755  0.2115  0.2638
19377TIP3   OH279545   5.660   1.905  16.522  0.2447  0.0514  0.5429
19377TIP3    H179546   5.724   1.884  16.590  1.8993  0.8778 -0.6994
19377TIP3    H279547   5.605   1.973  16.561  1.3053  0.6761  0.9801
19378TIP3   OH279548   6.218   3.222  15.117 -0.3134 -0.4649  0.1244
19378TIP3    H179549   6.202   3.218  15.211 -1.6287  0.7328  0.0013
19378TIP3    H279550   6.130   3.217  15.078  0.1497 -0.1889 -0.9974
19379TIP3   OH279551   1.027   5.399  12.849  0.5502 -0.7077 -0.1192
19379TIP3    H179552   0.961   5.339  12.816  0.6134 -0.4467 -0.7369
19379TIP3    H279553   1.002   5.485  12.813 -0.1308 -0.1617  1.5912
19380TIP3   OH279554   2.605   1.459  16.106 -0.2422 -0.7142 -0.0096
19380TIP3    H179555   2.652   1.409  16.039  0.5303 -0.7355  0.5216
19380TIP3    H279556   2.549   1.395  16.149 -0.2381 -0.8464 -0.2019
19381TIP3   OH279557   0.612   0.038   2.237  0.4913  0.3556 -0.1541
19381TIP3    H179558   0.583   0.036   2.146 -1.1266  1.6702  0.2980
19381TIP3    H279559   0.601  -0.053   2.267  1.5219 -0.2047 -1.3791
19382TIP3   OH279560   4.050   3.268  14.559 -0.2474 -0.5587  0.2083
19382TIP3    H179561   4.052   3.318  14.641  1.1173 -2.1174  1.1887
19382TIP3    H279562   4.001   3.324  14.498  2.0835  2.5221  0.8821
19383TIP3   OH279563   3.223   2.319  17.122 -0.3954  0.4014 -0.4343
19383TIP3    H179564   3.297   2.379  17.115  0.7626 -1.0888 -1.8090
19383TIP3    H279565   3.171   2.335  17.044  0.1721 -0.6503 -1.0512
19384TIP3   OH279566   6.321   2.427  15.617 -0.1606 -0.2869 -0.3439
19384TIP3    H179567   6.242   2.465  15.580  0.1811 -1.4009 -2.3322
19384TIP3    H279568   6.297   2.337  15.639  0.0909 -0.1118  0.7230
19385TIP3   OH279569   5.644   4.542  15.631  0.0098 -0.1687 -0.1070
19385TIP3    H179570   5.613   4.623  15.591 -1.4517 -1.4439 -1.7025
19385TIP3    H279571   5.716   4.513  15.575  0.0940 -0.3133  0.0730
19386TIP3   OH279572   3.774   5.111  11.719 -0.1970 -0.5109  0.1448
19386TIP3    H179573   3.803   5.201  11.736  0.4357 -0.5888 -0.4754
19386TIP3    H279574   3.679   5.118  11.707 -0.4103 -0.1841  1.7554
19387TIP3   OH279575   0.733   3.284   3.324  0.4085  0.1564  0.8644
19387TIP3    H179576   0.638   3.285   3.334 -0.1715 -1.3053 -2.7320
19387TIP3    H279577   0.759   3.196   3.350  0.7838  0.5194  1.7371
19388TIP3   OH279578   5.117   3.362  12.515 -0.5396 -0.3256 -0.3484
19388TIP3    H179579   5.074   3.336  12.433  1.3989  0.8693 -1.8371
19388TIP3    H279580   5.062   3.432  12.550 -1.0750 -0.4306 -0.9595
19389TIP3   OH279581   6.065   2.166  12.221 -0.2044 -0.2047  0.2875
19389TIP3    H179582   6.005   2.143  12.291  1.0629  0.2741  1.5791
19389TIP3    H279583   6.078   2.084  12.173 -0.0596 -0.8728  1.4282
19390TIP3   OH279584   5.520   0.631  14.908  0.3152 -0.0932 -0.0371
19390TIP3    H179585   5.609   0.659  14.886  0.6169 -1.3104 -0.4635
19390TIP3    H279586   5.505   0.665  14.996  1.9108 -1.4379  0.8020
19391TIP3   OH279587   5.547   4.566  14.399 -0.5126  0.1348  0.1711
19391TIP3    H179588   5.639   4.552  14.420  0.1870  1.3502 -1.9182
19391TIP3    H279589   5.528   4.505  14.328 -0.9022  0.9336 -0.4270
19392TIP3   OH279590   4.358   6.176   1.619 -0.3858 -0.2294  0.2009
19392TIP3    H179591   4.284   6.141   1.667 -0.3661  0.0009  0.4014
19392TIP3    H279592   4.410   6.100   1.593 -0.1130 -0.3192  0.9990
19393TIP3   OH279593   1.814   6.370  15.255 -0.0885  0.1757 -0.4091
19393TIP3    H179594   1.748   6.398  15.191  0.0714  0.0644 -0.6261
19393TIP3    H279595   1.852   6.452  15.287 -0.7803  0.2640  0.2040
19394TIP3   OH279596   0.010   1.639  17.138 -0.3730  0.1725 -0.5838
19394TIP3    H179597   0.069   1.564  17.154 -1.1779 -0.8013 -1.9591
19394TIP3    H279598  -0.008   1.635  17.045 -0.5517  2.0533 -0.6639
19395TIP3   OH279599   1.274   2.123   5.655  0.1789  0.1048 -0.4250
19395TIP3    H179600   1.229   2.041   5.676  2.7310 -0.9483  1.5513
19395TIP3    H279601   1.205   2.190   5.657 -1.7077 -1.7425 -0.4091
19396TIP3   OH279602   6.449   5.305   1.405 -0.1185 -0.5088 -0.1852
19396TIP3    H179603   6.485   5.226   1.365 -0.3356  1.1952 -4.2522
19396TIP3    H279604   6.362   5.280   1.434  0.0719 -1.9358 -0.7942
19397TIP3   OH279605   1.781   4.339   2.712 -0.6770  0.1354  0.1364
19397TIP3    H179606   1.817   4.253   2.733 -0.2236  0.7802  2.2004
19397TIP3    H279607   1.847   4.379   2.655  1.7508  1.0114  3.2777
19398TIP3   OH279608   2.519   3.410  12.759  0.0687 -0.3081 -0.1450
19398TIP3    H179609   2.598   3.436  12.806 -0.3874  0.7053  0.0729
19398TIP3    H279610   2.523   3.314  12.757  1.8586 -0.2638 -1.1152
19399TIP3   OH279611   1.545   5.525   1.869 -0.4929  0.1440  0.1391
19399TIP3    H179612   1.482   5.569   1.925 -1.4235  1.1008 -1.5597
19399TIP3    H279613   1.616   5.589   1.857  0.0017 -0.2872  0.6764
19400TIP3   OH279614   5.456   2.915   5.368 -0.1545 -0.3014  0.3080
19400TIP3    H179615   5.449   2.866   5.450  0.6000  1.6725  1.6382
19400TIP3    H279616   5.473   2.849   5.301  2.4493 -1.7440  2.2387
19401TIP3   OH279617   2.489   0.288  15.012  0.0142  0.4147  0.2846
19401TIP3    H179618   2.401   0.280  15.047  0.1099 -1.2081  0.2140
19401TIP3    H279619   2.498   0.381  14.990 -0.7487  1.1226  2.6765
19402TIP3   OH279620   4.774   1.082   1.691  0.2561  0.5796  0.2263
19402TIP3    H179621   4.816   1.163   1.720 -1.8407  1.8331 -0.0582
19402TIP3    H279622   4.683   1.090   1.720 -0.1808 -1.3488 -0.4552
19403TIP3   OH279623   6.036   3.553  16.912  0.4908 -0.2181 -0.0471
19403TIP3    H179624   5.988   3.580  16.991  1.1520  2.0421 -0.3538
19403TIP3    H279625   6.014   3.620  16.847  0.6099 -1.5896 -1.5505
19404TIP3   OH279626   0.940   4.614  11.428  0.4544  0.0290  0.5281
19404TIP3    H179627   1.035   4.605  11.417  0.3670 -1.2649  0.6563
19404TIP3    H279628   0.931   4.666  11.508  1.0418  1.5624 -0.3698
19405TIP3   OH279629   2.379   2.616   0.379  0.2730 -0.8001 -0.2794
19405TIP3    H179630   2.392   2.706   0.350  0.0039 -0.3729  0.8709
19405TIP3    H279631   2.468   2.584   0.397  0.2583  0.7900  3.6936
19406TIP3   OH279632   6.310   6.589  17.257 -0.1903 -0.4845  0.2814
19406TIP3    H179633   6.397   6.575  17.221 -0.6825 -1.8549 -0.4596
19406TIP3    H279634   6.313   6.548  17.343  0.5781  1.5808  1.2855
19407TIP3   OH279635   3.211   6.223   2.830  0.1314  0.0081  0.2612
19407TIP3    H179636   3.300   6.226   2.866 -0.8638  0.5145  2.9174
19407TIP3    H279637   3.203   6.136   2.793  2.1487  0.4077 -1.3551
19408TIP3   OH279638   4.867   6.738  15.916 -0.3103  0.3402  0.1639
19408TIP3    H179639   4.936   6.745  15.851 -0.0567 -3.2475 -0.1578
19408TIP3    H279640   4.904   6.683  15.985 -2.4099 -0.6365  0.5996
19409TIP3   OH279641   1.170   2.614   5.637  0.3027 -0.0024  0.5396
19409TIP3    H179642   1.124   2.569   5.566  1.7266 -0.3339 -0.2077
19409TIP3    H279643   1.134   2.702   5.637  1.4668  0.5292 -1.7646
19410TIP3   OH279644   1.805   2.922  14.371 -0.1543  0.2376 -0.0036
19410TIP3    H179645   1.837   2.901  14.283  1.3010  0.4246  0.4479
19410TIP3    H279646   1.716   2.955  14.357  0.4528  1.3760 -1.5450
19411TIP3   OH279647   0.487   6.725  17.265  0.0123 -0.2973  0.3719
19411TIP3    H179648   0.453   6.790  17.327  1.1369  1.5281 -0.8004
19411TIP3    H279649   0.410   6.697  17.215 -0.3563  0.9324  0.2166
19412TIP3   OH279650   5.041   4.447   6.127 -0.4332 -0.2461  0.1988
19412TIP3    H179651   5.112   4.491   6.174 -0.5691  3.0951 -2.3241
19412TIP3    H279652   4.962   4.471   6.174 -0.2473 -0.5276  0.6632
19413TIP3   OH279653   2.573   5.207  15.229 -0.6846  0.0725  0.5869
19413TIP3    H179654   2.634   5.145  15.190 -1.5873  0.0494 -0.8342
19413TIP3    H279655   2.586   5.288  15.179  0.1735  0.9511  2.1384
19414TIP3   OH279656   3.309   0.663   6.755  0.2953 -0.2129 -0.0976
19414TIP3    H179657   3.365   0.637   6.683  1.2513  0.1995  0.4847
19414TIP3    H279658   3.352   0.739   6.794 -0.1588 -0.4585  0.9398
19415TIP3   OH279659   2.980   1.406   1.119  0.3078  0.3265  0.1160
19415TIP3    H179660   3.062   1.436   1.080  0.3576 -0.2931 -0.2692
19415TIP3    H279661   2.995   1.411   1.213  1.0604 -0.4602  0.0578
19416TIP3   OH279662   1.550   6.513  17.197  0.4609 -0.5748  0.1447
19416TIP3    H179663   1.485   6.478  17.259  1.0208 -1.4028  0.2857
19416TIP3    H279664   1.500   6.573  17.142 -0.4104 -1.0962  0.3304
19417TIP3   OH279665   6.536   0.378  14.651 -0.8263  0.2599 -0.1093
19417TIP3    H179666   6.629   0.356  14.647 -1.4716 -3.1450  0.6196
19417TIP3    H279667   6.520   0.429  14.571  1.7876  1.7476  0.2187
19418TIP3   OH279668   6.254   3.163   0.414 -0.0748 -0.0811 -0.1793
19418TIP3    H179669   6.287   3.078   0.387  0.8267 -0.2114  1.2111
19418TIP3    H279670   6.283   3.172   0.505 -1.0321  1.2680  0.0247
19419TIP3   OH279671   1.000   3.182  14.633 -0.3919 -0.1780  0.3868
19419TIP3    H179672   1.034   3.156  14.548  1.0306  0.6465  0.6711
19419TIP3    H279673   1.027   3.113  14.693  0.7995  0.4532  0.6039
19420TIP3   OH279674   3.937   1.390   4.403  0.8896 -0.5155 -0.4906
19420TIP3    H179675   3.952   1.398   4.497  2.2337 -1.4202 -0.6001
19420TIP3    H279676   4.024   1.399   4.364  0.6957 -2.3857 -1.4750
19421TIP3   OH279677   0.010   4.122   3.766  0.2690 -0.3880 -0.2602
19421TIP3    H179678   0.000   4.028   3.755 -1.3410 -0.6500  2.6348
19421TIP3    H279679  -0.063   4.160   3.716  0.0795 -0.7502 -0.2559
19422TIP3   OH279680   1.822   4.776  15.478  0.4338  0.6934  0.0849
19422TIP3    H179681   1.880   4.788  15.403 -0.1933  0.8765 -0.3827
19422TIP3    H279682   1.801   4.865  15.507  0.5997  0.6240  0.4197
19423TIP3   OH279683   5.851   4.292   0.395  0.9693  0.0134  1.2070
19423TIP3    H179684   5.873   4.245   0.314  0.7825  3.2838 -0.9516
19423TIP3    H279685   5.759   4.315   0.385  1.6724  3.1541  0.6633
19424TIP3   OH279686   4.390   0.231   1.215 -0.5809  0.7950 -0.2857
19424TIP3    H179687   4.357   0.153   1.259  0.4811  0.2113 -0.4761
19424TIP3    H279688   4.455   0.267   1.275 -0.1148  0.7684 -0.7593
19425TIP3   OH279689   2.211   4.556  13.036  0.0881 -0.0968  0.1512
19425TIP3    H179690   2.203   4.597  13.122  0.8416 -0.4447  0.3904
19425TIP3    H279691   2.299   4.578  13.007  0.1547 -0.7356 -0.1475
19426TIP3   OH279692   4.027   1.207  13.580  0.0532 -0.3217 -0.6142
19426TIP3    H179693   4.060   1.121  13.553  1.7701  0.1317 -0.0901
19426TIP3    H279694   4.042   1.262  13.503 -1.3000 -0.5322 -1.0463
19427TIP3   OH279695   3.915   1.683  16.546  0.2476  0.1416  0.5212
19427TIP3    H179696   4.006   1.712  16.544  0.6219 -1.0020 -0.1031
19427TIP3    H279697   3.867   1.757  16.583  1.5782  0.3487  1.9831
19428TIP3   OH279698   3.169   1.483   5.285  0.3078 -0.1377  0.1084
19428TIP3    H179699   3.142   1.546   5.218  0.1467  0.4549  0.7157
19428TIP3    H279700   3.139   1.399   5.252 -0.8692  0.3027 -0.0075
19429TIP3   OH279701   6.522   5.741   0.506 -0.5520  0.2865 -0.3513
19429TIP3    H179702   6.564   5.826   0.491  0.9626  0.0518  2.0396
19429TIP3    H279703   6.454   5.759   0.571  1.4889 -0.6431  2.1846
19430TIP3   OH279704   2.386   1.352   0.114 -0.1850 -0.0280  0.4161
19430TIP3    H179705   2.409   1.435   0.072 -0.1525  0.1459  0.7700
19430TIP3    H279706   2.373   1.291   0.042  2.2074 -0.3591  0.1614
19431TIP3   OH279707   5.116   1.009  13.224  0.0046  0.3150 -0.6549
19431TIP3    H179708   5.124   1.097  13.259 -1.7175  0.1238  0.3318
19431TIP3    H279709   5.111   1.021  13.129  0.2560  1.2424 -0.5566
19432TIP3   OH279710   5.981   5.392  16.277  0.5776 -0.3789  0.3090
19432TIP3    H179711   5.991   5.431  16.190  1.1688 -1.5706 -0.1811
19432TIP3    H279712   6.065   5.407  16.320  1.3978 -2.3810 -0.4522
19433TIP3   OH279713   5.401   6.552   6.006 -0.5053 -0.2938 -0.4117
19433TIP3    H179714   5.463   6.482   6.025 -0.3973 -0.3543 -0.9646
19433TIP3    H279715   5.318   6.522   6.043 -0.0797  0.0679  0.8931
19434TIP3   OH279716   4.182   4.636   1.536 -0.4053 -0.0569 -0.1186
19434TIP3    H179717   4.215   4.682   1.459  1.2180  0.3132  0.7525
19434TIP3    H279718   4.210   4.545   1.523 -1.4369 -0.3214 -0.6429
19435TIP3   OH279719   4.030   0.663   0.499 -0.8356  0.3264  0.1587
19435TIP3    H179720   4.077   0.615   0.567  0.9409 -1.2972 -2.0506
19435TIP3    H279721   4.091   0.733   0.473 -0.0268 -1.0528 -1.8961
19436TIP3   OH279722   3.834   6.711   3.885 -0.4335  0.5092 -0.0423
19436TIP3    H179723   3.869   6.781   3.830  1.5103  0.8470  1.4891
19436TIP3    H279724   3.823   6.637   3.827 -0.2591  1.3996 -1.2444
19437TIP3   OH279725   2.137   6.019   3.952  0.3151 -0.4256  0.5984
19437TIP3    H179726   2.181   6.098   3.986 -0.3594  0.0242  0.4519
19437TIP3    H279727   2.046   6.046   3.940  0.2644 -0.9646 -0.3135
19438TIP3   OH279728   4.282   3.958  12.125  0.0452 -0.0926  1.2506
19438TIP3    H179729   4.206   3.977  12.181  0.7335  0.9226  1.8675
19438TIP3    H279730   4.274   3.864  12.106 -0.2662 -0.4701  3.0079
19439TIP3   OH279731   1.239   3.273  13.972  0.2594 -0.0045  0.2554
19439TIP3    H179732   1.144   3.286  13.968  0.2363 -0.1143  0.4247
19439TIP3    H279733   1.266   3.324  14.049  0.2910 -0.2442  0.4039
19440TIP3   OH279734   1.936   1.856  14.502 -0.3318  0.2567 -0.5416
19440TIP3    H179735   1.954   1.762  14.493  0.6281  0.2278  1.1440
19440TIP3    H279736   1.923   1.869  14.596  0.5786  1.9766 -0.6102
19441TIP3   OH279737   1.881   1.110   3.437  0.0852  0.5789 -0.0109
19441TIP3    H179738   1.790   1.128   3.460 -0.0268  1.3693 -0.9871
19441TIP3    H279739   1.926   1.102   3.521 -1.2411 -2.0156  0.5677
19442TIP3   OH279740   5.563   6.257  16.717 -0.1523  0.8227  0.1083
19442TIP3    H179741   5.495   6.326  16.713 -0.2565  0.6730 -0.8138
19442TIP3    H279742   5.624   6.280  16.647 -0.3249 -0.1671 -0.3747
19443TIP3   OH279743   0.391   0.158  16.959  0.2426 -0.3031  0.1909
19443TIP3    H179744   0.310   0.201  16.985  1.0522  0.9315  0.7930
19443TIP3    H279745   0.364   0.075  16.920 -1.3117  0.2611  0.0300
19444TIP3   OH279746   6.155   6.075  13.613 -0.0536  0.4483 -0.0359
19444TIP3    H179747   6.081   6.070  13.554 -0.9551 -0.2313  1.0974
19444TIP3    H279748   6.154   6.165  13.646  0.8568  1.0228 -1.5191
19445TIP3   OH279749   0.527   6.603   6.348 -0.2972  0.3414  0.1928
19445TIP3    H179750   0.592   6.653   6.398  0.9607 -1.8705  0.9178
19445TIP3    H279751   0.457   6.584   6.412 -0.2859  0.3315  0.2021
19446TIP3   OH279752   0.892   3.968  11.694  0.3133 -0.0073 -0.4650
19446TIP3    H179753   0.979   3.946  11.730  0.8750  1.7530 -0.6594
19446TIP3    H279754   0.901   4.058  11.663 -1.4114 -0.0239 -1.1119
19447TIP3   OH279755   1.760   2.189  11.299 -0.4520 -0.2672 -0.5653
19447TIP3    H179756   1.665   2.199  11.297 -0.3782  0.4791 -0.6976
19447TIP3    H279757   1.777   2.134  11.375 -1.0116 -0.6997 -0.7451
19448TIP3   OH279758   1.805   0.321   3.956  0.5672 -0.6013  0.2218
19448TIP3    H179759   1.752   0.369   3.893  1.2558 -0.1253 -0.0138
19448TIP3    H279760   1.759   0.331   4.040 -1.1093 -2.4171 -0.4172
19449TIP3   OH279761   0.361   4.874   1.961  0.4693 -0.1216  0.1958
19449TIP3    H179762   0.416   4.908   2.032  0.0605  2.3821 -0.5663
19449TIP3    H279763   0.356   4.947   1.899 -0.9896 -1.4642 -1.3481
19450TIP3   OH279764   4.296   1.515  14.525  0.3996  0.4627 -0.3273
19450TIP3    H179765   4.240   1.553  14.458  0.3242  0.4083 -0.2945
19450TIP3    H279766   4.308   1.586  14.588 -1.1542 -0.0692  0.6323
19451TIP3   OH279767   1.635   4.033   4.328 -0.0936 -0.1579  0.2287
19451TIP3    H179768   1.580   4.096   4.281 -1.5773 -2.8192 -1.8549
19451TIP3    H279769   1.723   4.070   4.323 -0.9909  2.0752 -0.2181
19452TIP3   OH279770   0.754   5.073  11.891 -0.3620  0.7576  0.6817
19452TIP3    H179771   0.773   5.138  11.823  1.0158 -0.5150 -0.1960
19452TIP3    H279772   0.660   5.057  11.882 -0.5424  1.9152  0.2837
19453TIP3   OH279773   3.264   0.824   1.023  0.2370 -0.2222  0.8499
19453TIP3    H179774   3.290   0.875   0.947 -1.4091 -0.5584  0.0317
19453TIP3    H279775   3.346   0.787   1.057  1.0026  0.0177 -0.6938
19454TIP3   OH279776   2.312   0.452   4.482 -0.1111 -0.0845  0.8460
19454TIP3    H179777   2.319   0.357   4.489 -1.4144 -0.2103  0.5624
19454TIP3    H279778   2.305   0.482   4.572  0.2190 -0.2578  0.9319
19455TIP3   OH279779   5.368   1.499  14.965  0.2784  0.6899 -0.1420
19455TIP3    H179780   5.335   1.586  14.942  0.3448  0.5753 -0.6787
19455TIP3    H279781   5.350   1.445  14.888  1.6970  0.6265 -0.4602
19456TIP3   OH279782   0.398   4.401  14.929  0.3452 -0.2036 -0.5745
19456TIP3    H179783   0.473   4.423  14.984  0.3365  1.0401 -1.0335
19456TIP3    H279784   0.328   4.458  14.961 -0.4596 -1.4180 -0.0875
19457TIP3   OH279785   4.387   5.331  12.124  0.1107  0.1397  0.2112
19457TIP3    H179786   4.343   5.400  12.174 -0.0871  0.4927 -0.4409
19457TIP3    H279787   4.370   5.353  12.033  0.3247 -0.5976 -0.0102
19458TIP3   OH279788   3.628   4.942   0.008 -0.0868 -0.0231 -0.3989
19458TIP3    H179789   3.653   4.990  -0.071  0.2780  1.1382  0.3936
19458TIP3    H279790   3.572   4.871  -0.023 -1.1622  1.2780 -1.5782
19459TIP3   OH279791   5.709   0.745  16.256  0.4453 -0.4452  0.3821
19459TIP3    H179792   5.660   0.697  16.322  0.4034 -2.0709 -0.7604
19459TIP3    H279793   5.688   0.837  16.272  0.2086 -0.7994  2.4112
19460TIP3   OH279794   5.533   3.162  16.069  0.1971  0.5101 -0.1455
19460TIP3    H179795   5.557   3.243  16.023  0.0148 -0.5871 -2.2993
19460TIP3    H279796   5.468   3.121  16.012 -0.4995 -0.6697  1.4312
19461TIP3   OH279797   3.601   1.387  11.947  0.2939 -0.2926 -0.2040
19461TIP3    H179798   3.559   1.360  11.865 -1.6856  2.0680 -0.0870
19461TIP3    H279799   3.593   1.311  12.005 -0.1418 -1.2827 -1.5249
19462TIP3   OH279800   2.417   5.210  14.077 -0.1112 -0.1431  0.6528
19462TIP3    H179801   2.414   5.300  14.045 -0.9612 -0.1772  0.6251
19462TIP3    H279802   2.501   5.204  14.123 -0.9999  1.3417  2.6357
19463TIP3   OH279803   2.168   2.255  16.112 -0.0412 -0.3929  0.1923
19463TIP3    H179804   2.100   2.315  16.142 -1.4671 -1.2880 -1.0515
19463TIP3    H279805   2.250   2.300  16.129 -1.0279  1.6705 -0.1911
19464TIP3   OH279806   3.609   2.319   0.475  0.5339  0.6822 -0.4566
19464TIP3    H179807   3.614   2.402   0.521  1.2870  0.6791 -0.5193
19464TIP3    H279808   3.525   2.322   0.429  0.3377  1.2000 -0.0741
19465TIP3   OH279809   2.877   6.463   1.876 -0.1892 -0.1740  0.2029
19465TIP3    H179810   2.895   6.397   1.944 -2.0705  0.6165  1.5533
19465TIP3    H279811   2.875   6.413   1.795 -0.5821 -1.6397  1.0702
19466TIP3   OH279812   6.114   3.872  13.254 -0.3198 -0.5392 -0.2947
19466TIP3    H179813   6.098   3.852  13.162  0.9381  1.5114 -1.0298
19466TIP3    H279814   6.206   3.899  13.257 -0.1628 -1.1209  1.6883
19467TIP3   OH279815   4.815   1.739   2.494  0.1692  0.4301 -0.4960
19467TIP3    H179816   4.763   1.660   2.483  0.5998  0.0158  0.3601
19467TIP3    H279817   4.814   1.756   2.588  2.0759  0.0377 -0.3596
19468TIP3   OH279818   5.913   0.698  11.918 -0.4490 -0.0075  0.3823
19468TIP3    H179819   5.953   0.656  11.841  0.7417  0.2603  0.8402
19468TIP3    H279820   5.921   0.633  11.988 -0.5378  0.1751  0.5632
19469TIP3   OH279821   0.277   3.245   6.393  0.0670  0.1507  0.3548
19469TIP3    H179822   0.270   3.150   6.407  0.9499  0.0859  0.3805
19469TIP3    H279823   0.207   3.264   6.331  2.0956 -1.1669 -2.5864
19470TIP3   OH279824   5.419   3.378   1.770  0.6016 -0.0315  0.1494
19470TIP3    H179825   5.378   3.295   1.796  3.2338 -1.0587  1.3795
19470TIP3    H279826   5.451   3.416   1.851 -0.1011  2.0075 -0.4597
19471TIP3   OH279827   5.003   5.481   1.778  0.9134 -0.3406  0.1105
19471TIP3    H179828   5.042   5.496   1.864  0.5742  1.9918 -0.0680
19471TIP3    H279829   4.915   5.447   1.797  1.0154 -0.2965  0.6695
19472TIP3   OH279830   2.400   0.071  14.844  0.8452 -0.0505  0.5139
19472TIP3    H179831   2.463   0.122  14.896 -0.4487  0.7348  1.3810
19472TIP3    H279832   2.315   0.101  14.875  0.0376 -1.4049 -0.3251
19473TIP3   OH279833   3.698   5.659   2.421  0.0577 -0.6294  0.2185
19473TIP3    H179834   3.654   5.635   2.340  1.0340 -1.4060 -0.1052
19473TIP3    H279835   3.630   5.700   2.474 -0.5598  0.0306 -1.0421
19474TIP3   OH279836   5.406   3.186  11.461 -0.1503 -0.1596 -0.2126
19474TIP3    H179837   5.482   3.227  11.420  0.2238 -2.0640 -1.5435
19474TIP3    H279838   5.331   3.215  11.409  0.0140 -0.5541 -0.6660
19475TIP3   OH279839   0.296   4.057   2.378  0.0107 -0.1830  0.2805
19475TIP3    H179840   0.222   4.116   2.367  0.0947 -0.3992 -1.6639
19475TIP3    H279841   0.259   3.970   2.364  0.5908 -0.3017 -0.5548
19476TIP3   OH279842   2.480   1.702   2.388 -0.0716 -0.4532  0.5045
19476TIP3    H179843   2.466   1.614   2.352 -1.7210 -0.1506  0.3295
19476TIP3    H279844   2.534   1.688   2.465 -1.9403 -1.8862  1.6422
19477TIP3   OH279845   2.332   5.368   0.813 -0.2761  0.9214 -0.2913
19477TIP3    H179846   2.410   5.314   0.801 -1.4846 -1.8234  2.7432
19477TIP3    H279847   2.275   5.343   0.740  0.2789  0.1881 -0.4916
19478TIP3   OH279848   5.620   3.708   5.531 -1.1150 -0.1031  0.4368
19478TIP3    H179849   5.704   3.745   5.561  0.3314 -2.0879 -0.9267
19478TIP3    H279850   5.575   3.682   5.611 -0.2167  0.5626  1.1769
19479TIP3   OH279851   3.952   5.509   0.933  0.0849 -0.1185  0.7315
19479TIP3    H179852   3.928   5.580   0.874  0.3216  1.1027  2.0431
19479TIP3    H279853   4.048   5.513   0.937  0.0929 -0.4463  0.8879
19480TIP3   OH279854   2.956   0.909   5.643  0.4598  0.3060 -0.5014
19480TIP3    H179855   2.871   0.932   5.605 -0.1257 -1.9252 -0.6703
19480TIP3    H279856   2.948   0.933   5.735 -0.3144  0.2466 -0.5467
19481TIP3   OH279857   2.652   3.956   5.614 -0.3864  0.1625 -0.2026
19481TIP3    H179858   2.616   3.947   5.703 -2.0928  1.4548 -0.7063
19481TIP3    H279859   2.644   3.869   5.576 -1.1687 -0.0345  0.3748
19482TIP3   OH279860   2.250   0.395  16.223  0.4773  0.3167  0.5585
19482TIP3    H179861   2.229   0.365  16.311  1.0105  1.8740  1.2574
19482TIP3    H279862   2.343   0.373  16.211  0.4360  0.2097  0.4313
19483TIP3   OH279863   6.263   0.163   1.715 -0.2084  0.1776 -0.3275
19483TIP3    H179864   6.248   0.240   1.660 -0.2025  0.0904 -0.4518
19483TIP3    H279865   6.348   0.129   1.686 -0.6367 -0.4073 -0.9017
19484TIP3   OH279866   0.405   1.253   3.641 -0.1066  0.4684 -0.0811
19484TIP3    H179867   0.323   1.224   3.681  1.4947 -2.4175  1.4262
19484TIP3    H279868   0.386   1.257   3.547 -2.2253  0.9800  0.3175
19485TIP3   OH279869   5.967   1.923  14.157 -0.4047 -0.8734 -0.3836
19485TIP3    H179870   6.005   1.994  14.209 -2.2735  0.4632 -0.7281
19485TIP3    H279871   6.039   1.893  14.102 -0.0566  2.4510 -2.0044
19486TIP3   OH279872   4.109   3.410   4.861 -0.4775  0.4006  1.1663
19486TIP3    H179873   4.196   3.421   4.823 -0.3394 -0.7796  1.1014
19486TIP3    H279874   4.125   3.393   4.954 -0.5086 -1.3217  0.8982
19487TIP3   OH279875   4.299   2.929   3.855 -0.2684 -0.0089 -0.2764
19487TIP3    H179876   4.240   3.005   3.854 -1.0253 -0.5880 -0.4634
19487TIP3    H279877   4.276   2.880   3.776  0.5671 -0.1811 -0.4260
19488TIP3   OH279878   3.384   1.273  12.302 -0.2435 -0.4021 -0.3632
19488TIP3    H179879   3.433   1.202  12.344 -0.8215 -0.2916  0.5323
19488TIP3    H279880   3.316   1.227  12.253 -0.0037 -0.5073 -0.5994
19489TIP3   OH279881   3.190   1.013  11.495  0.0138  0.1502 -0.0385
19489TIP3    H179882   3.168   1.080  11.431 -1.2127 -0.5567 -0.3863
19489TIP3    H279883   3.120   0.948  11.488  1.6724 -1.7132 -0.4413
19490TIP3   OH279884   4.553   1.365   4.672  0.1084  0.8571 -0.1798
19490TIP3    H179885   4.503   1.344   4.593  1.4390 -0.3629 -0.7322
19490TIP3    H279886   4.642   1.379   4.641  1.1015 -1.6366  1.2953
19491TIP3   OH279887   5.847   2.008  13.861  0.1960 -0.7259 -0.1687
19491TIP3    H179888   5.872   1.960  13.940  0.9271 -2.7020 -1.5272
19491TIP3    H279889   5.910   2.079  13.855 -1.6653  1.4300  2.5769
19492TIP3   OH279890   4.050   2.717  12.173 -0.2745  0.2474 -0.2142
19492TIP3    H179891   4.142   2.730  12.151 -0.1557 -0.3278 -0.0866
19492TIP3    H279892   4.037   2.768  12.253 -0.0886  0.4078 -0.2864
19493TIP3   OH279893   0.557   5.507  13.281  0.1574 -0.1171  0.7530
19493TIP3    H179894   0.650   5.491  13.299 -0.0231 -0.2287  1.6340
19493TIP3    H279895   0.555   5.536  13.190  0.8660 -1.9645  0.0981
19494TIP3   OH279896   2.967   4.294  15.504  0.4876 -0.1221 -0.7220
19494TIP3    H179897   3.040   4.326  15.451  0.7776 -0.6897 -0.6727
19494TIP3    H279898   2.911   4.371  15.516  0.9345  0.2543 -0.9905
19495TIP3   OH279899   0.278   2.811   4.263 -0.1059  0.8203  0.5032
19495TIP3    H179900   0.362   2.856   4.256  0.3752 -0.1783 -0.5196
19495TIP3    H279901   0.279   2.747   4.192 -1.0713 -0.2930  1.4432
19496TIP3   OH279902   4.069   5.841  14.770  0.3082  0.0320 -0.0770
19496TIP3    H179903   4.006   5.885  14.714  1.0406  1.2592  0.0178
19496TIP3    H279904   4.028   5.842  14.857 -0.1902 -0.5570 -0.2981
19497TIP3   OH279905   4.977   5.059  15.612  0.4522 -0.0165 -0.5586
19497TIP3    H179906   5.012   5.050  15.523  0.2851  0.9230 -0.7226
19497TIP3    H279907   4.971   5.153  15.627 -0.9331 -0.1510 -0.1161
19498TIP3   OH279908   1.525   4.569  16.189 -0.5220 -0.2125 -0.6025
19498TIP3    H179909   1.563   4.653  16.163 -1.6725  0.2475 -0.8635
19498TIP3    H279910   1.468   4.545  16.116  0.2824 -1.5467 -0.8084
19499TIP3   OH279911   5.732   6.173  14.894 -0.0194  0.4102 -0.4442
19499TIP3    H179912   5.732   6.268  14.887  1.1506  0.7110  2.4289
19499TIP3    H279913   5.809   6.152  14.947 -0.7473 -2.0681 -0.2212
19500TIP3   OH279914   3.099   2.562   3.158 -0.1256  0.0451 -0.3719
19500TIP3    H179915   3.168   2.598   3.102 -1.0327  0.9976 -0.8823
19500TIP3    H279916   3.092   2.470   3.131  0.3131  0.1740 -0.9372
19501TIP3   OH279917   2.338   1.821   3.032  0.0771 -0.9092  0.3196
19501TIP3    H179918   2.278   1.855   2.966 -0.7698 -0.8598  1.1068
19501TIP3    H279919   2.282   1.789   3.102  0.9279 -1.9033  0.5839
19502TIP3   OH279920   2.485   0.658  16.760  0.1404  0.1770 -0.1226
19502TIP3    H179921   2.537   0.731  16.794  1.4094 -0.0925 -1.4409
19502TIP3    H279922   2.404   0.700  16.729  0.6680  0.9628 -0.4641
19503TIP3   OH279923   4.593   5.963  16.273 -0.0689 -0.4244 -0.0316
19503TIP3    H179924   4.600   5.880  16.225  2.3581 -0.2673 -0.0685
19503TIP3    H279925   4.508   6.000  16.245 -0.1449 -1.7954 -1.7949
19504TIP3   OH279926   1.270   0.928   1.775  0.6196  0.2482 -0.2329
19504TIP3    H179927   1.274   0.892   1.686 -1.8827 -3.7905  1.0473
19504TIP3    H279928   1.189   0.978   1.776  1.3962  1.5552 -0.5492
19505TIP3   OH279929   4.934   3.986  15.911  0.0859 -0.2788 -0.1110
19505TIP3    H179930   4.933   3.942  15.826 -1.5284  0.3251 -0.4397
19505TIP3    H279931   5.008   3.947  15.957  1.3869 -0.2055 -1.9999
19506TIP3   OH279932   2.030   0.938  11.990  0.4812  0.5538 -0.6620
19506TIP3    H179933   1.981   0.860  11.965  1.6962 -0.4371 -0.0488
19506TIP3    H279934   2.007   0.954  12.081  0.1359  1.0022 -0.8224
19507TIP3   OH279935   4.134   3.173   5.372  0.2872 -0.3569 -0.4456
19507TIP3    H179936   4.054   3.225   5.379  0.1505 -0.2456 -2.2280
19507TIP3    H279937   4.146   3.134   5.459 -0.9520  0.6922  0.2258
19508TIP3   OH279938   1.234   2.606  14.346 -0.2183 -0.1695 -1.0692
19508TIP3    H179939   1.276   2.544  14.286  2.5823  0.5675 -0.0212
19508TIP3    H279940   1.219   2.557  14.426  1.0966  0.1788 -0.5767
19509TIP3   OH279941   2.755   2.357  15.185  0.4034 -0.1369  0.4298
19509TIP3    H179942   2.744   2.333  15.277  0.1456 -0.6547  0.2670
19509TIP3    H279943   2.845   2.390  15.179  0.4401 -0.1543  0.8510
19510TIP3   OH279944   6.254   5.862  10.907 -0.2795 -0.2323  0.0007
19510TIP3    H179945   6.253   5.794  10.840  0.2158  0.2999 -0.5641
19510TIP3    H279946   6.322   5.922  10.878 -0.7227  0.5131  0.4825
19511TIP3   OH279947   0.321   6.444   0.442 -0.0959 -0.2124 -0.1365
19511TIP3    H179948   0.267   6.501   0.497  0.0794  1.7177 -1.8299
19511TIP3    H279949   0.372   6.392   0.504 -2.0165 -0.2743  1.4981
19512TIP3   OH279950   0.780   3.597   1.688 -0.0095  0.7337 -0.4653
19512TIP3    H179951   0.801   3.535   1.617  0.9571 -1.6559  1.7310
19512TIP3    H279952   0.865   3.624   1.722 -0.3966 -0.0545  1.2529
19513TIP3   OH279953   4.815   1.068  14.045 -0.0691 -0.1382  0.1794
19513TIP3    H179954   4.885   1.133  14.041 -0.0928  0.2505  3.3401
19513TIP3    H279955   4.735   1.117  14.023 -0.0011  0.8310  1.9261
19514TIP3   OH279956   2.637   2.325   2.162  0.0870 -0.4339  0.0188
19514TIP3    H179957   2.661   2.258   2.098 -1.0368  1.1044 -2.1494
19514TIP3    H279958   2.590   2.277   2.230 -0.3732 -1.9173 -1.2807
19515TIP3   OH279959   6.186   5.259   1.515  0.5340  0.2981  0.3120
19515TIP3    H179960   6.130   5.181   1.519 -0.2189  0.8060 -0.1425
19515TIP3    H279961   6.226   5.264   1.602 -0.2857  0.0428  0.7134
19516TIP3   OH279962   2.487   5.843   2.801  0.5735 -0.5661 -0.3800
19516TIP3    H179963   2.421   5.862   2.867  2.7017  0.0415  1.6802
19516TIP3    H279964   2.438   5.838   2.719 -1.9738  0.0119  1.0193
19517TIP3   OH279965   4.778   4.977   1.528  0.0395 -0.3665 -0.6058
19517TIP3    H179966   4.787   5.024   1.611  2.1200  2.0453 -2.0464
19517TIP3    H279967   4.730   5.038   1.471 -1.2224 -1.9091 -1.2852
19518TIP3   OH279968   0.379   1.936   0.140 -0.2274  0.3117  0.3106
19518TIP3    H179969   0.356   1.953   0.048 -0.4397  2.5604  0.7262
19518TIP3    H279970   0.300   1.897   0.177 -0.0587 -0.8487 -0.4961
19519TIP3   OH279971   0.097   0.784   4.082  0.5559  0.7509  0.1290
19519TIP3    H179972   0.120   0.786   4.175 -1.3964 -1.7430  0.7841
19519TIP3    H279973   0.015   0.834   4.078  0.7224  0.9919 -0.3035
19520TIP3   OH279974   4.747   0.244  13.623  0.2029  0.7529  0.0369
19520TIP3    H179975   4.755   0.187  13.546 -1.2121 -0.3783  0.6915
19520TIP3    H279976   4.822   0.303  13.616  0.9618 -0.3062 -1.3972
19521TIP3   OH279977   1.625   4.542  14.096  0.4632  0.7131 -0.1915
19521TIP3    H179978   1.561   4.490  14.145 -1.3056  1.8949 -1.1448
19521TIP3    H279979   1.626   4.503  14.008  0.2244  1.3703 -0.4922
19522TIP3   OH279980   2.054   6.363  12.572  0.3045  0.2789  0.2470
19522TIP3    H179981   2.040   6.274  12.605 -0.1153  0.2215 -0.0766
19522TIP3    H279982   2.137   6.358  12.524  0.1110 -0.0253 -0.0655
19523TIP3   OH279983   0.092   1.981  14.244 -0.0717 -0.0830  0.3213
19523TIP3    H179984   0.169   1.925  14.254  0.2830  0.3417  0.0638
19523TIP3    H279985   0.116   2.061  14.291  0.5614  0.9253 -1.5811
19524TIP3   OH279986   6.509   5.949  16.696 -0.5671  0.1188  0.0404
19524TIP3    H179987   6.594   5.949  16.651 -1.1430 -1.7749 -1.1396
19524TIP3    H279988   6.476   6.039  16.684  1.7764  1.3054  1.6612
19525TIP3   OH279989   6.273   4.023   3.145  0.3103 -0.1139  0.5511
19525TIP3    H179990   6.310   4.087   3.205  1.1889 -0.2703  0.1899
19525TIP3    H279991   6.182   4.012   3.174 -0.2111  2.1180 -0.0644
19526TIP3   OH279992   5.556   5.494  13.639  0.2867  0.2357 -0.0200
19526TIP3    H179993   5.517   5.407  13.637  1.1218 -0.1394 -1.0068
19526TIP3    H279994   5.482   5.554  13.644 -0.3488 -0.5019 -0.4688
19527TIP3   OH279995   1.147   3.104   2.042  0.1316  0.1459  0.2248
19527TIP3    H179996   1.092   3.028   2.057 -1.4274  1.4603  1.5683
19527TIP3    H279997   1.230   3.083   2.085 -0.6282 -0.4197  1.4702
19528TIP3   OH279998   1.777   4.778   1.961 -0.3980  0.5054 -0.3509
19528TIP3    H179999   1.850   4.718   1.976 -0.5521 -0.0944 -1.7969
19528TIP3    H280000   1.706   4.745   2.015 -0.1649 -0.0108 -0.3587
19529TIP3   OH280001   3.754   2.497  15.119 -0.5850 -0.4423  0.3615
19529TIP3    H180002   3.780   2.419  15.070 -0.0189  0.6409 -1.1567
19529TIP3    H280003   3.670   2.523  15.081  0.1734  0.7855 -0.5663
19530TIP3   OH280004   6.168   1.191   5.859 -0.5439  0.1528  0.2877
19530TIP3    H180005   6.073   1.183   5.859 -0.7346  1.8940  1.6634
19530TIP3    H280006   6.192   1.196   5.766 -1.8276  0.0917 -0.0550
19531TIP3   OH280007   0.314   3.122  15.806 -0.2543  0.3884  0.3673
19531TIP3    H180008   0.388   3.073  15.841  0.6433  2.1266  0.9875
19531TIP3    H280009   0.333   3.213  15.825 -1.6466  1.0675 -1.1798
19532TIP3   OH280010   2.120   3.831   3.869  0.0621  0.1350 -0.2138
19532TIP3    H180011   2.213   3.816   3.856  0.2238 -0.2390  1.1723
19532TIP3    H280012   2.080   3.814   3.784  1.2887  0.6607 -0.9159
19533TIP3   OH280013   1.379   3.922   3.071 -0.1397  0.4001 -0.0756
19533TIP3    H180014   1.355   3.995   3.129  0.1551  0.8982 -0.5790
19533TIP3    H280015   1.450   3.878   3.117  0.4365  1.0953 -0.2855
19534TIP3   OH280016   3.246   0.378   5.563 -0.3421  0.7227 -0.1707
19534TIP3    H180017   3.272   0.467   5.537  1.7716  0.5844  1.2547
19534TIP3    H280018   3.210   0.388   5.651  1.3364  0.0470  0.6476
19535TIP3   OH280019   3.129   4.512   4.726  0.4853 -0.0226 -0.0904
19535TIP3    H180020   3.088   4.593   4.693  0.7249  1.2438  2.4697
19535TIP3    H280021   3.090   4.442   4.673 -1.9664  1.4925 -0.4352
19536TIP3   OH280022   0.088   3.099   4.700  0.3987 -0.3570  0.0973
19536TIP3    H180023   0.077   3.004   4.701 -0.0953 -0.3186 -0.5045
19536TIP3    H280024   0.092   3.125   4.792 -0.9171 -0.8048  0.2921
19537TIP3   OH280025   1.658   0.736  17.287  0.2382  0.7611 -0.4900
19537TIP3    H180026   1.641   0.641  17.286  0.4891  0.6872 -2.6263
19537TIP3    H280027   1.614   0.767  17.365  0.7959 -1.2299  0.6889
19538TIP3   OH280028   0.702   0.306  16.537  0.5527 -0.4113  0.5760
19538TIP3    H180029   0.682   0.393  16.503 -0.0425 -0.7123  0.1213
19538TIP3    H280030   0.787   0.315  16.579  0.7870  0.2414 -0.0203
19539TIP3   OH280031   4.188   2.035   5.409 -0.0435  0.1520  0.0549
19539TIP3    H180032   4.104   2.080   5.413  0.2132  0.7437 -0.9407
19539TIP3    H280033   4.193   1.986   5.492 -1.1510  0.4688  0.3266
19540TIP3   OH280034   4.012   0.520  10.915 -0.7506 -0.4707 -0.0264
19540TIP3    H180035   3.984   0.556  10.830  0.0234 -2.2399 -1.0913
19540TIP3    H280036   3.968   0.435  10.920 -0.1434 -0.7300  0.9776
19541TIP3   OH280037   3.413   1.466   2.992 -0.3799 -0.1647  0.0939
19541TIP3    H180038   3.383   1.463   2.901 -0.4394 -1.2341  0.1347
19541TIP3    H280039   3.397   1.556   3.020  0.8671  0.5489 -1.3562
19542TIP3   OH280040   0.531   2.098   3.322 -0.1978 -0.3505 -0.3018
19542TIP3    H180041   0.481   2.168   3.362  0.7552 -0.0577  0.4011
19542TIP3    H280042   0.480   2.019   3.338  0.0719 -0.2117  1.3480
19543TIP3   OH280043   1.201   6.181  15.431  0.7673 -0.1918 -0.0028
19543TIP3    H180044   1.212   6.092  15.398  0.3716  0.0712 -0.8694
19543TIP3    H280045   1.258   6.185  15.508  1.3120 -0.9846 -0.3485
19544TIP3   OH280046   2.857   3.324  11.965 -0.1343 -0.1506  0.3622
19544TIP3    H180047   2.928   3.388  11.959  0.3824 -0.5380  1.9621
19544TIP3    H280048   2.898   3.241  11.940 -0.1408 -0.2971  0.8390
19545TIP3   OH280049   4.385   3.093  13.257 -0.3948 -0.3669 -0.1781
19545TIP3    H180050   4.468   3.047  13.269  0.2590  0.8063 -0.0161
19545TIP3    H280051   4.362   3.077  13.166 -0.0077 -0.7219 -0.2178
19546TIP3   OH280052   3.779   6.223  14.507 -0.1039 -0.0866 -0.1401
19546TIP3    H180053   3.775   6.259  14.595 -1.4373  0.7476 -0.5082
19546TIP3    H280054   3.847   6.273  14.462  0.2073 -0.1557  0.2550
19547TIP3   OH280055   6.325   2.579   2.928  0.3181 -0.4104  0.2411
19547TIP3    H180056   6.356   2.661   2.966  0.8044 -1.3249  1.8870
19547TIP3    H280057   6.259   2.606   2.864  0.5950  1.2579  0.6054
19548TIP3   OH280058   4.118   2.822  15.310  0.1084  0.3094 -0.2205
19548TIP3    H180059   4.142   2.905  15.352  1.4336  0.0867 -0.4795
19548TIP3    H280060   4.045   2.844  15.253 -1.6335  0.6699  1.9870
19549TIP3   OH280061   1.637   0.442   4.950  0.1057 -0.0999  0.2459
19549TIP3    H180062   1.545   0.433   4.976  0.4869  0.0504  1.7057
19549TIP3    H280063   1.652   0.370   4.889 -1.0586  0.0632 -0.2693
19550TIP3   OH280064   0.398   4.961   1.542 -0.1832 -0.1715 -0.3740
19550TIP3    H180065   0.464   4.913   1.593  0.7873  0.8201 -0.6460
19550TIP3    H280066   0.319   4.907   1.548  0.2714 -0.7317  1.0707
19551TIP3   OH280067   3.039   0.086   4.437 -0.2494  0.6584  0.2082
19551TIP3    H180068   3.107   0.129   4.385 -0.4387  2.5254  1.4095
19551TIP3    H280069   3.007   0.154   4.496 -0.8840 -1.0456  1.9535
19552TIP3   OH280070   6.154   5.696   0.360  0.3311 -0.4678 -0.1457
19552TIP3    H180071   6.211   5.767   0.331 -0.8206  0.2380 -0.7780
19552TIP3    H280072   6.146   5.638   0.284  0.0224 -0.4345 -0.1413
19553TIP3   OH280073   1.081   2.582  16.377 -0.4818 -0.6470 -0.1017
19553TIP3    H180074   1.103   2.491  16.398 -0.0074 -0.0073  2.4802
19553TIP3    H280075   1.005   2.601  16.431 -1.1184  0.2643 -1.2841
19554TIP3   OH280076   4.839   3.335   5.432  0.7104  0.1856  0.3241
19554TIP3    H180077   4.791   3.384   5.366 -0.0231 -4.0427 -2.6933
19554TIP3    H280078   4.781   3.262   5.455  3.1785 -1.6091  1.3591
19555TIP3   OH280079   3.914   6.442  13.692  0.7821  0.3149  0.2175
19555TIP3    H180080   3.875   6.381  13.755 -0.2587 -0.4826 -1.1466
19555TIP3    H280081   3.953   6.511  13.747  0.5191 -0.6939  1.7410
19556TIP3   OH280082   4.587   6.742   4.665 -0.2022 -0.6543  0.2066
19556TIP3    H180083   4.610   6.654   4.692 -1.2298 -1.0071 -0.0298
19556TIP3    H280084   4.671   6.783   4.644  0.4053 -1.1258  1.5923
19557TIP3   OH280085   2.785   3.295  15.261 -0.5593 -0.0647  0.1420
19557TIP3    H180086   2.784   3.317  15.168  0.7012  0.3969  0.2042
19557TIP3    H280087   2.783   3.200  15.264  1.6907 -0.2066 -0.5045
19558TIP3   OH280088   2.673   1.390   5.346 -0.0312  0.6983  0.6859
19558TIP3    H180089   2.688   1.395   5.440  1.1525 -0.2536  0.5723
19558TIP3    H280090   2.676   1.297   5.326  0.3369  0.9262 -0.3782
19559TIP3   OH280091   5.970   1.241   1.893  0.3257  0.2319  0.0371
19559TIP3    H180092   6.048   1.252   1.948 -0.4600  0.4235  1.1535
19559TIP3    H280093   5.950   1.329   1.863  0.6255  0.1592 -0.3860
19560TIP3   OH280094   4.432   2.827  15.064  0.2586 -0.0947  0.0539
19560TIP3    H180095   4.417   2.815  15.158 -1.7407  3.8120  0.4599
19560TIP3    H280096   4.494   2.901  15.060  0.4926 -0.3644 -1.7108
19561TIP3   OH280097   4.638   4.676  13.926  0.7391  0.3305 -0.4678
19561TIP3    H180098   4.599   4.658  14.011  1.3064  0.2248 -0.2233
19561TIP3    H280099   4.582   4.631  13.863 -0.8421  2.0132 -0.3572
19562TIP3   OH280100   3.074   5.677  14.809 -1.0170 -0.3714  0.7036
19562TIP3    H180101   2.991   5.634  14.789 -1.7084  0.8463  0.8419
19562TIP3    H280102   3.054   5.734  14.884  0.1849 -0.7705  1.3610
19563TIP3   OH280103   0.302   2.339  16.377 -0.2829 -0.7508 -0.1536
19563TIP3    H180104   0.279   2.402  16.446 -0.7393  0.3874 -1.3010
19563TIP3    H280105   0.268   2.255  16.409  1.5709 -0.7561  2.0473
19564TIP3   OH280106   2.977   3.969   1.545  0.0664  0.4065 -0.0026
19564TIP3    H180107   2.894   3.939   1.582  1.0217 -1.7424  0.5603
19564TIP3    H280108   3.007   4.037   1.605 -2.0774  2.5598 -1.1930
19565TIP3   OH280109   5.087   0.548  15.998  0.0512 -0.2306 -0.2181
19565TIP3    H180110   5.174   0.531  15.961  0.4901 -0.0766  0.7016
19565TIP3    H280111   5.060   0.464  16.035 -0.6623 -0.5478 -1.4021
19566TIP3   OH280112   2.625   0.761   4.522  0.1475  0.3545 -0.0417
19566TIP3    H180113   2.601   0.672   4.496  0.9725 -0.4293  1.7218
19566TIP3    H280114   2.708   0.777   4.476  0.4117 -0.1131  0.2624
19567TIP3   OH280115   0.954   5.639  13.273 -0.5638 -0.4168 -0.1822
19567TIP3    H180116   0.991   5.727  13.278  0.5635 -0.7277 -2.1467
19567TIP3    H280117   0.865   5.653  13.239 -0.4918 -0.0206 -0.2181
19568TIP3   OH280118   2.177   5.746   0.914  0.3138 -0.0697 -0.3059
19568TIP3    H180119   2.214   5.693   0.843 -0.2469 -1.0190  0.0796
19568TIP3    H280120   2.249   5.801   0.944  0.7900 -0.2891 -1.0327
19569TIP3   OH280121   6.652   2.624   4.338 -0.0009  0.4322 -0.5107
19569TIP3    H180122   6.719   2.677   4.382  1.1020 -1.4092  0.1551
19569TIP3    H280123   6.573   2.678   4.340  0.6074  1.3488  1.7539
19570TIP3   OH280124   1.326   2.831  12.891 -0.5500  0.0629  0.0123
19570TIP3    H180125   1.353   2.770  12.960 -0.7274  0.6032  0.5738
19570TIP3    H280126   1.329   2.917  12.933  0.9754  0.6120 -1.1329
19571TIP3   OH280127   1.621   2.881   3.714 -0.3237 -0.0334  0.7055
19571TIP3    H180128   1.650   2.954   3.768 -1.6155  1.4522 -0.5169
19571TIP3    H280129   1.536   2.856   3.750 -0.6244  0.1457  0.1317
19572TIP3   OH280130   1.401   0.870   2.586  0.0649 -0.0839  0.0915
19572TIP3    H180131   1.369   0.949   2.542  0.7520  0.6903  0.9357
19572TIP3    H280132   1.407   0.805   2.517  0.1952  0.8209 -0.7702
19573TIP3   OH280133   0.367   0.454  13.065  0.7245 -0.0749  0.1830
19573TIP3    H180134   0.452   0.498  13.071  1.2703 -1.2653  3.0149
19573TIP3    H280135   0.389   0.362  13.049 -0.0329 -0.3112  0.4459
19574TIP3   OH280136   6.553   6.060  13.342 -0.4492  0.4825 -0.0138
19574TIP3    H180137   6.471   6.011  13.335 -0.0030 -0.2802 -0.0395
19574TIP3    H280138   6.527   6.152  13.346 -1.2277  0.3759 -1.8085
19575TIP3   OH280139   1.074   0.637   4.771  0.0240  0.0830 -0.4581
19575TIP3    H180140   1.169   0.626   4.769 -0.0314 -0.3179 -1.2391
19575TIP3    H280141   1.061   0.732   4.772  0.4378  0.1347  0.4131
19576TIP3   OH280142   3.038   1.511  12.086  0.5674 -0.2927  0.3413
19576TIP3    H180143   2.984   1.488  12.010  0.3594 -2.5703  1.0914
19576TIP3    H280144   3.128   1.505  12.054  0.4546  0.2336 -0.0870
19577TIP3   OH280145   2.350   6.068   3.718 -0.0675  0.1395  0.3533
19577TIP3    H180146   2.399   6.091   3.796  1.0014  0.4714 -0.4044
19577TIP3    H280147   2.311   5.982   3.738 -0.0427  0.3553  1.3383
19578TIP3   OH280148   5.678   4.859  12.896 -0.3080  0.4108 -0.2410
19578TIP3    H180149   5.695   4.949  12.925 -0.2699 -0.0405  1.1892
19578TIP3    H280150   5.679   4.864  12.800  0.0171  1.8682 -0.1778
19579TIP3   OH280151   4.149   4.451  13.779 -0.0677  0.2338  0.2146
19579TIP3    H180152   4.087   4.500  13.724 -2.1846 -0.5337  1.7799
19579TIP3    H280153   4.098   4.377  13.812  0.5196  1.5183  4.5254
19580TIP3   OH280154   5.435   1.781   4.585 -0.2576 -0.4058  0.1089
19580TIP3    H180155   5.380   1.721   4.635  1.6359 -1.9328  0.4726
19580TIP3    H280156   5.433   1.862   4.635 -1.5692 -0.6555  0.4944
19581TIP3   OH280157   6.440   5.522   0.381  0.0606 -0.1933  0.2871
19581TIP3    H180158   6.401   5.462   0.444 -1.2703  1.0077  0.6406
19581TIP3    H280159   6.468   5.597   0.433  2.9387 -0.9880  0.0530
19582TIP3   OH280160   4.311   3.610  17.123 -0.6307  0.2119  0.3642
19582TIP3    H180161   4.248   3.681  17.111 -0.6346  0.0317 -0.7665
19582TIP3    H280162   4.269   3.534  17.082  0.0336 -0.0731  0.2041
19583TIP3   OH280163   1.442   2.940  16.913  0.1054  0.7084  0.5991
19583TIP3    H180164   1.422   2.937  16.819 -0.1263  0.7472  0.6459
19583TIP3    H280165   1.357   2.933  16.956  0.1247  1.5611  0.7934
19584TIP3   OH280166   2.979   5.777  16.482  0.6311 -0.3030  0.0829
19584TIP3    H180167   3.034   5.836  16.533  0.7882  0.1649 -0.6100
19584TIP3    H280168   2.958   5.827  16.403  0.3063 -0.9703 -0.2598
19585TIP3   OH280169   2.060   4.490  15.301 -0.0711 -0.0234  0.1613
19585TIP3    H180170   2.067   4.585  15.309  2.0167 -0.2572  2.2128
19585TIP3    H280171   2.004   4.464  15.374  0.8456 -0.4771  0.7220
19586TIP3   OH280172   3.734   1.739  13.349 -0.3175 -0.0801  0.6740
19586TIP3    H180173   3.674   1.702  13.284  0.2746 -1.5785  0.9348
19586TIP3    H280174   3.767   1.819  13.308 -1.1754 -0.1434 -0.1863
19587TIP3   OH280175   3.200   4.382  14.114 -0.0085  0.0082  0.7077
19587TIP3    H180176   3.180   4.440  14.040 -0.9410  0.9419  1.6525
19587TIP3    H280177   3.241   4.306  14.074  1.9933  1.6264 -0.5171
19588TIP3   OH280178   5.124   2.213  10.682  0.5837 -0.0097 -0.7252
19588TIP3    H180179   5.123   2.184  10.773 -0.8216 -2.4859 -1.4245
19588TIP3    H280180   5.101   2.306  10.686 -1.4010 -0.4925  1.3669
19589TIP3   OH280181   5.234   0.331   0.867 -1.0102 -0.5460  0.3256
19589TIP3    H180182   5.324   0.362   0.881 -1.4782  0.8563  0.3852
19589TIP3    H280183   5.221   0.265   0.936 -0.1341 -0.5541  0.5028
19590TIP3   OH280184   0.792   4.040   4.991  0.1709 -0.3301  0.1755
19590TIP3    H180185   0.719   4.075   4.940  0.6261 -0.4131 -0.5404
19590TIP3    H280186   0.758   4.037   5.081 -0.6641 -0.2481 -0.1216
19591TIP3   OH280187   0.120   1.066  14.477  0.2053 -0.0145  0.4783
19591TIP3    H180188   0.078   1.032  14.556  0.2096 -3.0888 -0.6766
19591TIP3    H280189   0.053   1.059  14.409  0.5966  1.3367 -0.0785
19592TIP3   OH280190   3.776   3.169  13.550  0.4953  0.2918 -0.1955
19592TIP3    H180191   3.861   3.166  13.595  0.5570 -1.6900 -0.3311
19592TIP3    H280192   3.724   3.101  13.594 -1.5621  2.3796  0.8330
19593TIP3   OH280193   5.437   0.765  11.368 -0.2148  0.0246 -0.0244
19593TIP3    H180194   5.490   0.695  11.407  0.2275  0.3920  0.0492
19593TIP3    H280195   5.380   0.794  11.439  1.1948  1.2891  0.6546
19594TIP3   OH280196   1.773   6.185  12.662  0.0749  0.3339  0.5101
19594TIP3    H180197   1.837   6.155  12.597  0.2960  1.5117  0.1514
19594TIP3    H280198   1.731   6.261  12.620 -0.9032  0.1429  1.1152
19595TIP3   OH280199   1.605   0.019   5.830  0.4379 -0.1138 -0.2616
19595TIP3    H180200   1.671   0.050   5.891 -0.7407 -0.3281  1.1963
19595TIP3    H280201   1.640   0.038   5.744  1.0691  2.5946  0.5042
19596TIP3   OH280202   1.784   3.637   0.856 -0.0839  0.2822 -0.3285
19596TIP3    H180203   1.793   3.721   0.811 -0.3496  0.8565  0.6623
19596TIP3    H280204   1.702   3.601   0.822  0.2061  0.2462 -1.0179
19597TIP3   OH280205   3.022   5.463  15.168  0.2867  0.3624  0.2581
19597TIP3    H180206   2.969   5.411  15.229  1.2724 -0.8497  0.1247
19597TIP3    H280207   2.959   5.523  15.127 -0.2706  1.8893  3.0852
19598TIP3   OH280208   3.227   3.789   3.832 -0.1252  0.8349 -0.2282
19598TIP3    H180209   3.253   3.844   3.906 -1.8311  0.4108  0.7485
19598TIP3    H280210   3.275   3.824   3.758  0.7724  2.0081  0.8650
19599TIP3   OH280211   6.707   5.910   3.048  0.0641 -0.6710 -0.3430
19599TIP3    H180212   6.683   5.909   2.956  0.4240 -0.5298 -0.4406
19599TIP3    H280213   6.705   5.818   3.074  1.7341 -0.9220 -0.9713
19600TIP3   OH280214   3.571   1.925  11.180 -0.8041  0.3861 -0.1713
19600TIP3    H180215   3.573   1.944  11.274 -0.2368  2.0722 -0.4982
19600TIP3    H280216   3.561   1.830  11.176 -1.3153  0.3251  1.5855
19601TIP3   OH280217   2.635   5.725   4.818  0.0941 -0.6728 -0.0610
19601TIP3    H180218   2.553   5.773   4.829 -0.0792 -1.0546  0.3462
19601TIP3    H280219   2.628   5.651   4.878  1.2543 -0.0375  0.9067
19602TIP3   OH280220   2.459   0.089   1.292  0.1070  0.0683 -0.1769
19602TIP3    H180221   2.429   0.153   1.227 -1.4713  1.3199  1.7043
19602TIP3    H280222   2.437   0.128   1.376  0.7264 -2.1981  1.0998
19603TIP3   OH280223   3.688   3.056  12.024  0.7537  0.4689 -0.6662
19603TIP3    H180224   3.782   3.057  12.002  0.9453  0.6526  0.1128
19603TIP3    H280225   3.687   3.056  12.120 -0.0549  1.2476 -0.6723
19604TIP3   OH280226   2.399   6.241  10.963 -0.0574 -1.2700  0.1366
19604TIP3    H180227   2.416   6.151  10.991  3.8935 -0.7458  0.0209
19604TIP3    H280228   2.480   6.268  10.920 -1.8565  1.7002 -1.6961
19605TIP3   OH280229   1.194   3.963  11.518  0.0921 -0.3581  0.1509
19605TIP3    H180230   1.171   3.952  11.610 -1.9646  0.9221 -0.1256
19605TIP3    H280231   1.213   4.057  11.510  2.7389 -0.8543 -0.2888
19606TIP3   OH280232   1.622   6.090  13.671 -0.1726 -0.4288 -0.7145
19606TIP3    H180233   1.713   6.065  13.654  1.0092  0.5686  3.1551
19606TIP3    H280234   1.591   6.025  13.734 -0.4942  1.7668  1.5285
19607TIP3   OH280235   4.154   1.699   0.095  0.0751 -0.3846  0.5049
19607TIP3    H180236   4.120   1.709   0.006 -0.4631  0.1730  0.7659
19607TIP3    H280237   4.245   1.728   0.089 -0.4687  1.4409  0.5090
19608TIP3   OH280238   0.481   1.674  13.685  0.1290  0.6217 -0.1056
19608TIP3    H180239   0.437   1.754  13.714  2.9822  2.0304  0.6747
19608TIP3    H280240   0.490   1.686  13.590 -0.4641  0.6474 -0.1672
19609TIP3   OH280241   5.577   5.059  12.415 -0.2403  0.5159  0.6297
19609TIP3    H180242   5.569   5.079  12.508 -1.3614  0.4961  0.5479
19609TIP3    H280243   5.497   5.093  12.376 -1.5039 -2.5600  0.2172
19610TIP3   OH280244   2.547   4.087   4.632  0.5607  0.0852 -0.0424
19610TIP3    H180245   2.485   4.062   4.563 -0.2842 -0.9288  1.0410
19610TIP3    H280246   2.586   4.168   4.601 -1.0141  0.5307 -0.9706
19611TIP3   OH280247   4.441   0.452   2.717  0.3158 -0.3146 -0.4605
19611TIP3    H180248   4.346   0.444   2.719  0.4020 -1.8485 -0.8845
19611TIP3    H280249   4.462   0.466   2.625  0.5546 -1.1273 -0.5374
19612TIP3   OH280250   5.270   5.282   4.681 -0.3479 -0.0341  0.5792
19612TIP3    H180251   5.325   5.307   4.607  0.1342 -2.9891 -0.1940
19612TIP3    H280252   5.303   5.336   4.754 -0.0792  2.1068 -1.0254
19613TIP3   OH280253   4.747   6.695  13.927  0.5837  0.2546  0.3685
19613TIP3    H180254   4.713   6.780  13.957 -1.8350 -0.3393 -0.4199
19613TIP3    H280255   4.751   6.642  14.006 -1.7489 -0.0461  0.3477
19614TIP3   OH280256   4.504   2.256   0.102 -0.0446 -0.0372  0.6166
19614TIP3    H180257   4.576   2.224   0.156  0.6715  0.1935 -0.1841
19614TIP3    H280258   4.490   2.186   0.038  0.3860  0.4981 -0.0731
19615TIP3   OH280259   4.155   2.687  16.521 -0.0085  0.1386  0.5306
19615TIP3    H180260   4.090   2.638  16.572 -1.4893  0.7802 -0.6494
19615TIP3    H280261   4.170   2.767  16.571  2.2433 -1.2623  2.3488
19616TIP3   OH280262   0.884   1.399   4.147 -0.0597  0.2493  0.2923
19616TIP3    H180263   0.893   1.411   4.241 -1.8867  3.4288  0.1947
19616TIP3    H280264   0.792   1.376   4.135 -0.2660  1.5498 -0.7973
19617TIP3   OH280265   2.835   6.739  15.912 -0.0990 -0.3072 -0.1093
19617TIP3    H180266   2.746   6.761  15.886 -1.1088 -1.1690  2.3221
19617TIP3    H280267   2.841   6.645  15.901 -0.0307 -0.4672  1.1500
19618TIP3   OH280268   5.102   0.924   0.600 -0.3977 -0.0596  0.5409
19618TIP3    H180269   5.009   0.904   0.588  0.3192 -2.9787 -1.0860
19618TIP3    H280270   5.131   0.865   0.670  0.2126  1.0663  1.2797
19619TIP3   OH280271   2.273   3.940  14.260 -0.2137  0.3862 -0.5165
19619TIP3    H180272   2.349   3.890  14.233 -0.1702  0.2466 -0.1376
19619TIP3    H280273   2.198   3.892  14.224 -0.2143 -0.2993  0.3501
19620TIP3   OH280274   5.323   0.100  13.631  0.1117  0.1903  0.1561
19620TIP3    H180275   5.349   0.009  13.637  1.9689  0.6744  0.0331
19620TIP3    H280276   5.265   0.104  13.555  1.9704 -0.4752 -1.3567
19621TIP3   OH280277   4.053   2.935   6.987 -0.8625  0.2401 -0.1590
19621TIP3    H180278   4.022   2.877   6.917 -1.2122 -0.2195  0.3665
19621TIP3    H280279   4.128   2.980   6.949 -0.2408 -0.9594 -0.4267
19622TIP3   OH280280   6.143   2.285   2.631  0.0691  0.4534 -0.1676
19622TIP3    H180281   6.138   2.359   2.570  0.6783  0.8792  0.2950
19622TIP3    H280282   6.055   2.247   2.630  0.5202 -0.7895 -2.8451
19623TIP3   OH280283   0.996   6.601  13.030 -0.0197 -0.6762  0.5517
19623TIP3    H180284   0.938   6.526  13.014 -0.5765 -0.6155  2.0457
19623TIP3    H280285   1.080   6.562  13.055  0.3236 -0.7674 -0.6747
19624TIP3   OH280286   5.241   5.273  14.102  0.1281  0.2567 -0.2671
19624TIP3    H180287   5.164   5.275  14.045  1.6320 -0.4805 -2.4438
19624TIP3    H280288   5.249   5.181  14.128  0.5027  0.2593 -0.3720
19625TIP3   OH280289   6.617   6.668   3.271  0.3081  0.0808  0.3101
19625TIP3    H180290   6.684   6.732   3.248 -0.5340  0.6614 -0.6295
19625TIP3    H280291   6.643   6.588   3.225  0.5588  0.1838  0.2713
19626TIP3   OH280292   6.590   4.653  17.233 -0.1710  0.4932 -0.2860
19626TIP3    H180293   6.502   4.621  17.251 -0.3493  0.1235 -1.7243
19626TIP3    H280294   6.643   4.573  17.225 -0.2855  0.5619 -2.2070
19627TIP3   OH280295   4.203   1.499  14.029 -0.4111  0.1201  0.2969
19627TIP3    H180296   4.111   1.488  14.006 -0.8023 -0.2408  1.9086
19627TIP3    H280297   4.204   1.504  14.125  1.1697  0.8723  0.2864
19628TIP3   OH280298   3.565   6.549  13.276  0.1080  0.3723  0.1533
19628TIP3    H180299   3.478   6.549  13.315 -0.7784  0.7719 -1.7153
19628TIP3    H280300   3.621   6.505  13.340 -1.5747 -0.3817  1.1462
19629TIP3   OH280301   1.809   5.501  16.373  0.7825 -0.0505 -0.1107
19629TIP3    H180302   1.731   5.496  16.428 -0.3210  0.8263 -1.5001
19629TIP3    H280303   1.847   5.413  16.377 -0.9982 -0.8903 -0.3529
19630TIP3   OH280304   5.747   0.883  14.998  0.3719  0.1170 -0.0452
19630TIP3    H180305   5.699   0.939  14.937 -0.9551 -0.5765  0.3176
19630TIP3    H280306   5.795   0.943  15.054  1.0249  0.7896 -1.2957
19631TIP3   OH280307   5.594   5.752   2.245  0.4864 -0.6490  0.1548
19631TIP3    H180308   5.675   5.706   2.267  0.5853 -0.9956 -0.9011
19631TIP3    H280309   5.607   5.781   2.155 -0.1353  0.2483  0.3426
19632TIP3   OH280310   6.026   3.212  15.964  0.0515 -0.0030 -0.1662
19632TIP3    H180311   6.106   3.159  15.968 -0.4765 -0.7994  0.2489
19632TIP3    H280312   6.048   3.285  15.907  1.0910 -0.1863 -0.0205
19633TIP3   OH280313   0.530   4.774   1.682 -0.3194 -0.4909 -0.4066
19633TIP3    H180314   0.606   4.803   1.733 -0.4231  1.9757 -1.4645
19633TIP3    H280315   0.522   4.681   1.701  0.8998 -0.1373  2.3759
19634TIP3   OH280316   5.540   3.980   5.059 -0.2295 -0.2617 -0.2455
19634TIP3    H180317   5.567   3.937   5.141  1.8571  0.4659 -0.4822
19634TIP3    H280318   5.456   4.021   5.080  1.0217  1.3541  2.1049
19635TIP3   OH280319   3.375   0.677  17.294 -0.0708  0.0243 -0.1200
19635TIP3    H180320   3.441   0.646  17.356  1.2968  0.0560 -1.5206
19635TIP3    H280321   3.342   0.598  17.252  0.4814  0.1299 -0.7799
19636TIP3   OH280322   1.952   0.105   3.879  0.5059 -0.7778  0.0264
19636TIP3    H180323   1.885   0.169   3.902  0.2661 -1.5675  1.7394
19636TIP3    H280324   1.967   0.117   3.786 -1.4978 -0.0865 -0.2490
19637TIP3   OH280325   1.754   1.383   5.131  0.6492 -0.0510  0.1088
19637TIP3    H180326   1.839   1.411   5.097  0.3584  0.3392 -0.3034
19637TIP3    H280327   1.729   1.309   5.074  1.0796 -0.6948  0.7377
19638TIP3   OH280328   4.334   6.681  10.655  0.5879  0.5262  0.0392
19638TIP3    H180329   4.259   6.621  10.662  1.1630 -0.3660 -1.0217
19638TIP3    H280330   4.326   6.738  10.731 -1.4948  0.8450 -0.3346
19639TIP3   OH280331   2.934   5.373   4.279 -0.4024  0.3157  0.6302
19639TIP3    H180332   2.872   5.429   4.326 -0.3678  2.0210 -1.2365
19639TIP3    H280333   3.020   5.400   4.311 -0.4421  0.5891  0.5084
19640TIP3   OH280334   1.693   0.775   2.356 -0.0365 -0.9333 -0.1029
19640TIP3    H180335   1.662   0.839   2.420 -0.1985 -1.8056  0.7157
19640TIP3    H280336   1.787   0.790   2.350 -0.3835  0.9626 -1.7349
19641TIP3   OH280337   5.220   6.180  15.678  0.3173 -0.6782  0.6136
19641TIP3    H180338   5.175   6.113  15.729  2.0494 -0.6982  2.2114
19641TIP3    H280339   5.312   6.153  15.678  0.9852  1.4193  0.9257
19642TIP3   OH280340   5.099   6.445  16.860 -0.7485  0.6685  0.4458
19642TIP3    H180341   5.126   6.419  16.948  1.8046  1.0614 -0.1487
19642TIP3    H280342   5.033   6.380  16.835  0.6903 -1.3178  1.5240
19643TIP3   OH280343   3.427   0.993   4.459  0.0553 -0.0615  0.2059
19643TIP3    H180344   3.394   1.045   4.386 -1.4477  1.4768  1.8924
19643TIP3    H280345   3.349   0.957   4.500  0.9416 -1.8451  0.4289
19644TIP3   OH280346   0.002   2.114   0.743 -0.2105  0.6051  0.2700
19644TIP3    H180347  -0.036   2.196   0.775  1.2881  1.3869  0.1418
19644TIP3    H280348   0.070   2.093   0.806  0.5707  0.4053 -0.6151
19645TIP3   OH280349   6.471   2.713  15.758 -0.2486 -0.2914  0.0932
19645TIP3    H180350   6.565   2.727  15.747 -0.2372 -0.9641 -0.6975
19645TIP3    H280351   6.451   2.638  15.704 -1.0318 -0.9113  1.2022
19646TIP3   OH280352   6.388   4.469  13.811 -0.1044 -0.2206 -0.0645
19646TIP3    H180353   6.481   4.456  13.831 -0.0847 -0.5774 -0.3758
19646TIP3    H280354   6.384   4.556  13.771 -0.0372  0.1840  0.7932
19647TIP3   OH280355   5.562   1.877   0.622 -0.4744 -0.2841  0.3759
19647TIP3    H180356   5.532   1.790   0.596  0.0148 -0.3054 -0.1360
19647TIP3    H280357   5.503   1.938   0.578  1.3561 -0.2593 -2.2697
19648TIP3   OH280358   1.316   5.394  11.335 -0.1142 -0.2905  0.3621
19648TIP3    H180359   1.376   5.427  11.403  1.3920  0.3504 -1.2127
19648TIP3    H280360   1.372   5.378  11.259 -1.4848 -2.6219 -0.2347
19649TIP3   OH280361   0.895   6.631  16.369 -0.0729 -0.0297  0.0140
19649TIP3    H180362   0.817   6.608  16.420 -0.9709  1.1265 -0.7761
19649TIP3    H280363   0.860   6.671  16.289  1.3008 -1.3025 -1.2844
19650TIP3   OH280364   3.244   1.184  11.995  1.2644 -0.0926  0.1364
19650TIP3    H180365   3.291   1.255  11.952  1.5620 -0.2970  0.1202
19650TIP3    H280366   3.153   1.196  11.969  1.2999  0.3352  0.2053
19651TIP3   OH280367   1.862   4.872  11.741  0.1797 -0.7422  0.9364
19651TIP3    H180368   1.946   4.827  11.746  0.5948 -0.0523  0.4472
19651TIP3    H280369   1.842   4.875  11.647  1.3564  2.1628  0.6630
19652TIP3   OH280370   4.403   6.386  14.033  0.2586  0.0646 -0.3960
19652TIP3    H180371   4.335   6.355  13.973  0.9889  2.1545 -2.4657
19652TIP3    H280372   4.453   6.307  14.055 -1.9832 -1.3160  0.1945
19653TIP3   OH280373   3.757   2.355   5.346 -0.0245 -0.2073  0.1016
19653TIP3    H180374   3.710   2.396   5.274  0.0960  0.8545  0.6139
19653TIP3    H280375   3.841   2.401   5.350  1.0198 -1.9055 -0.6486
19654TIP3   OH280376   2.382   0.424   0.600  0.2858  0.0758 -0.4890
19654TIP3    H180377   2.291   0.398   0.615  0.3553  0.3898  0.5741
19654TIP3    H280378   2.396   0.499   0.659  2.0262 -1.6975  1.5456
19655TIP3   OH280379   6.393   3.800  14.429  0.0371  0.2293  0.0413
19655TIP3    H180380   6.349   3.807  14.514  2.0085  0.6155  1.0805
19655TIP3    H280381   6.484   3.778  14.450  0.6581  0.6659 -1.9559
19656TIP3   OH280382   2.016   0.857   2.590  0.4986 -0.4981  0.0415
19656TIP3    H180383   1.959   0.891   2.522 -1.0907 -0.9804  1.0727
19656TIP3    H280384   2.105   0.872   2.557 -0.1840  1.3510 -1.0817
19657TIP3   OH280385   6.442   0.549   2.350 -0.6643 -0.7236 -0.2600
19657TIP3    H180386   6.408   0.626   2.304 -0.5072  0.1379  1.0109
19657TIP3    H280387   6.430   0.570   2.443  1.9235 -1.0381  0.2018
19658TIP3   OH280388   2.451   6.303   6.026  0.3983 -0.3473 -0.1665
19658TIP3    H180389   2.546   6.295   6.019  0.5097  1.6510 -4.9984
19658TIP3    H280390   2.417   6.219   5.997  0.7990 -0.1233 -1.3361
19659TIP3   OH280391   2.507   6.614  13.309  0.2245 -0.5683 -0.0276
19659TIP3    H180392   2.413   6.600  13.320  0.6797 -3.0852  1.2982
19659TIP3    H280393   2.521   6.704  13.338 -1.3410 -1.1594  2.9379
19660TIP3   OH280394   0.376   2.524   6.395  0.1705 -0.0706  0.1224
19660TIP3    H180395   0.387   2.599   6.454 -0.4889 -0.3480  0.6133
19660TIP3    H280396   0.447   2.465   6.418 -0.6677 -0.6343  1.3687
19661TIP3   OH280397   3.557   5.845   3.997  0.3254  0.2542 -0.4193
19661TIP3    H180398   3.516   5.913   3.944  0.0547 -0.4751 -1.1586
19661TIP3    H280399   3.560   5.768   3.940  1.3501 -0.1342  0.1349
19662TIP3   OH280400   3.380   2.359  12.582  0.0978 -0.0235 -0.4952
19662TIP3    H180401   3.422   2.343  12.497  2.3974  1.9510  0.1384
19662TIP3    H280402   3.413   2.290  12.639  0.6920  0.1624 -0.5980
19663TIP3   OH280403   6.568   1.827  12.784 -0.2749  0.5144 -0.6072
19663TIP3    H180404   6.597   1.769  12.713 -3.4582 -1.5045 -0.4656
19663TIP3    H280405   6.587   1.915  12.752  2.2204 -0.4425 -2.0599
19664TIP3   OH280406   6.224   4.577   2.121 -0.1087 -0.2352  0.3411
19664TIP3    H180407   6.187   4.558   2.207  1.3062  0.5375  1.1498
19664TIP3    H280408   6.310   4.534   2.121  0.7764  1.4426  0.1127
19665TIP3   OH280409   4.320   0.959  11.078 -0.1903  0.0841  0.4138
19665TIP3    H180410   4.398   0.903  11.085 -0.5916 -0.3902  1.2586
19665TIP3    H280411   4.340   1.018  11.006  1.2696  0.4680  1.0853
19666TIP3   OH280412   2.606   3.143   4.332 -0.1418  0.0674  0.1264
19666TIP3    H180413   2.555   3.223   4.345  0.4721  0.5514 -0.3988
19666TIP3    H280414   2.562   3.097   4.260 -1.0432 -0.5382  1.0410
19667TIP3   OH280415   5.529   1.008   1.662  0.5856  0.3488  0.7676
19667TIP3    H180416   5.592   1.047   1.723  1.2654  0.2424  0.1507
19667TIP3    H280417   5.510   0.922   1.699 -2.2433  1.7998  3.0739
19668TIP3   OH280418   4.119   1.686  12.441 -0.1018  0.3570 -0.5380
19668TIP3    H180419   4.107   1.597  12.472 -1.5986  1.2664  1.7305
19668TIP3    H280420   4.040   1.704  12.389  1.3621 -0.3928 -3.2549
19669TIP3   OH280421   2.620   5.277   4.234  0.4220  0.0081 -0.0351
19669TIP3    H180422   2.641   5.260   4.326  0.6243  0.7775  0.0669
19669TIP3    H280423   2.622   5.191   4.192  2.8141 -0.0963  0.1690
19670TIP3   OH280424   2.649   4.642  16.163 -0.7605  0.3553  0.1711
19670TIP3    H180425   2.653   4.638  16.067  1.0049 -2.6443  0.2419
19670TIP3    H280426   2.570   4.692  16.181 -0.6141  1.9183 -2.8105
19671TIP3   OH280427   5.282   5.767  15.869 -0.2610 -0.3601  0.6102
19671TIP3    H180428   5.321   5.827  15.932  0.8920  0.1360 -0.5350
19671TIP3    H280429   5.188   5.776  15.882 -0.1296  1.8464  0.3457
19672TIP3   OH280430   0.671   4.624   1.154  0.0143  0.5161 -0.0066
19672TIP3    H180431   0.622   4.655   1.230 -0.3877 -0.3768  0.1108
19672TIP3    H280432   0.661   4.529   1.156 -1.7984  0.5764 -2.3799
19673TIP3   OH280433   0.124   1.006   2.143  0.3366 -0.5601  0.3165
19673TIP3    H180434   0.031   1.013   2.161 -0.2201 -0.6188 -2.1971
19673TIP3    H280435   0.150   0.922   2.181 -0.4788 -0.2640  1.5505
19674TIP3   OH280436   1.360   5.768   4.684 -0.4085  0.4869  0.0255
19674TIP3    H180437   1.313   5.776   4.767 -1.9936  0.3062 -0.8022
19674TIP3    H280438   1.348   5.852   4.640  1.8245  1.1810  0.6221
19675TIP3   OH280439   0.842   2.734   3.638  0.4786 -0.1516  0.2484
19675TIP3    H180440   0.814   2.745   3.547  2.2263  0.5216 -0.2458
19675TIP3    H280441   0.824   2.819   3.679 -0.0250 -0.3571  0.4596
19676TIP3   OH280442   5.328   6.055  15.103 -0.2382  0.3146  0.1900
19676TIP3    H180443   5.360   5.977  15.149  0.1032  0.9515  1.0569
19676TIP3    H280444   5.405   6.091  15.060 -0.4274  0.0950 -0.3387
19677TIP3   OH280445   4.906   4.265  13.876  0.4066 -0.5672 -0.0589
19677TIP3    H180446   4.832   4.299  13.825  0.0953 -0.2783  0.5695
19677TIP3    H280447   4.907   4.319  13.955  2.8206  1.0920 -1.1096
19678TIP3   OH280448   4.846   6.527   2.733 -0.3738  0.0830 -0.8253
19678TIP3    H180449   4.870   6.619   2.722 -0.1137  0.3447  1.5151
19678TIP3    H280450   4.816   6.521   2.823 -0.3502 -2.1518 -0.9291
19679TIP3   OH280451   1.990   0.399   1.152  0.1179 -0.0743  0.2170
19679TIP3    H180452   1.967   0.467   1.089  0.5059 -1.1610 -1.1505
19679TIP3    H280453   1.916   0.395   1.212 -0.9478 -0.0391 -1.0659
19680TIP3   OH280454   6.554   3.372   4.945  0.8334 -0.0664 -0.3492
19680TIP3    H180455   6.546   3.291   4.996 -0.0063 -0.7602 -1.5275
19680TIP3    H280456   6.486   3.430   4.980  0.6419 -0.3241 -0.2941
19681TIP3   OH280457   3.330   4.092  15.687 -0.5205 -0.0164  0.0166
19681TIP3    H180458   3.283   4.082  15.769  0.1914  2.1050  0.7389
19681TIP3    H280459   3.286   4.031  15.627 -1.0704 -1.6069  1.9098
19682TIP3   OH280460   2.081   3.153  14.268  0.2613  0.2671 -0.1235
19682TIP3    H180461   2.151   3.163  14.333 -1.0609 -1.2479  1.6064
19682TIP3    H280462   2.119   3.094  14.202  1.1593  0.7586 -0.0706
19683TIP3   OH280463   3.205   3.752   6.500 -0.0307 -0.2782 -0.2807
19683TIP3    H180464   3.190   3.658   6.489 -2.0843 -0.0682  0.3932
19683TIP3    H280465   3.297   3.764   6.477 -0.0290 -2.2543 -1.5684
19684TIP3   OH280466   6.300   0.246   2.413  0.2617  0.5155 -0.1755
19684TIP3    H180467   6.222   0.302   2.413  0.7331  1.2003 -0.7429
19684TIP3    H280468   6.266   0.157   2.423 -0.5024  0.9066  0.8474
19685TIP3   OH280469   6.404   5.784   0.227 -0.2217  0.1998  0.7295
19685TIP3    H180470   6.470   5.818   0.286  0.5615 -0.0870  0.0365
19685TIP3    H280471   6.409   5.689   0.237  2.0092 -0.0879 -1.8871
19686TIP3   OH280472   2.312   4.623   0.320 -0.4419  0.6030  0.1684
19686TIP3    H180473   2.305   4.718   0.330  0.8513  0.7752 -0.4010
19686TIP3    H280474   2.315   4.590   0.410 -1.4680  1.0315  0.3779
19687TIP3   OH280475   0.279   0.725  16.313  0.3647 -0.2474 -0.0741
19687TIP3    H180476   0.310   0.811  16.341  1.1253  0.2535 -2.2975
19687TIP3    H280477   0.187   0.737  16.292  0.5651  0.1146 -0.7407
19688TIP3   OH280478   0.843   2.894   1.198 -0.0273  0.2793  0.5769
19688TIP3    H180479   0.845   2.986   1.172 -0.2916  0.4926  1.2822
19688TIP3    H280480   0.760   2.884   1.244 -1.4724 -1.0421 -2.0617
19689TIP3   OH280481   0.507   6.066   5.697 -0.2244 -0.1962  0.3131
19689TIP3    H180482   0.439   6.032   5.639  0.8051 -0.8450 -0.5469
19689TIP3    H280483   0.469   6.146   5.733 -1.9176 -1.1783  0.8266
19690TIP3   OH280484   1.898   4.881   0.680 -0.7611 -0.2953 -0.3413
19690TIP3    H180485   1.808   4.871   0.647 -0.7425 -0.2877 -0.3938
19690TIP3    H280486   1.924   4.968   0.653 -0.7417 -0.2930 -0.3146
19691TIP3   OH280487   0.514   5.747   5.934 -0.0003 -0.0412  0.0837
19691TIP3    H180488   0.444   5.711   5.989  0.7484  0.2566  1.2470
19691TIP3    H280489   0.578   5.782   5.996  1.3078 -0.5409 -0.9561
19692TIP3   OH280490   2.800   4.229   5.421 -0.4552 -0.7151  0.2434
19692TIP3    H180491   2.850   4.220   5.339 -0.9736  3.0688 -0.7187
19692TIP3    H280492   2.858   4.280   5.478 -1.5325 -0.0297  0.7605
19693TIP3   OH280493   0.639   6.568   5.659 -0.0993  0.2071 -0.7660
19693TIP3    H180494   0.595   6.650   5.682 -1.8725 -1.1474  1.0777
19693TIP3    H280495   0.570   6.515   5.619  0.1700 -1.4010  0.7493
19694TIP3   OH280496   2.855   1.848   1.942  0.1383  0.8227  0.4200
19694TIP3    H180497   2.915   1.877   1.873  0.3289  0.6374  0.5079
19694TIP3    H280498   2.770   1.838   1.898  0.6346 -1.0494 -0.1979
19695TIP3   OH280499   4.831   6.477  12.925 -0.1367  0.2356  0.5572
19695TIP3    H180500   4.749   6.458  12.879 -0.1478 -0.3841  0.8215
19695TIP3    H280501   4.828   6.422  13.003 -0.1291  1.2947  1.3202
19696TIP3   OH280502   6.454   4.013   2.303 -0.2695 -0.1481 -0.2514
19696TIP3    H180503   6.444   3.981   2.393  1.2327  0.8510  0.2933
19696TIP3    H280504   6.409   4.098   2.303  1.1078  0.6016  0.0183
19697TIP3   OH280505   2.764   0.523   5.825  0.0335  0.2565 -0.2305
19697TIP3    H180506   2.789   0.523   5.732  1.4236  1.3657  0.1042
19697TIP3    H280507   2.670   0.541   5.825 -0.1952 -0.8272 -1.4573
19698TIP3   OH280508   3.198   3.110  11.606 -0.2728 -0.5331 -0.3256
19698TIP3    H180509   3.127   3.059  11.645 -2.1949  2.2407  0.1436
19698TIP3    H280510   3.185   3.100  11.511  1.0560 -2.9316 -0.3311
19699TIP3   OH280511   1.687   3.180   5.639  0.9704 -0.4199 -0.2386
19699TIP3    H180512   1.756   3.218   5.692  1.5107 -3.2072  1.2742
19699TIP3    H280513   1.704   3.085   5.642 -1.8819 -1.0716 -1.2888
19700TIP3   OH280514   4.842   5.006  14.300  0.2031  0.0281 -0.3241
19700TIP3    H180515   4.790   5.020  14.221  0.9547  0.8653 -0.6856
19700TIP3    H280516   4.912   4.948  14.272 -0.8858 -1.6753  0.3283
19701TIP3   OH280517   5.993   6.587  13.782 -0.2947  0.1931  0.0190
19701TIP3    H180518   5.976   6.589  13.876  1.7993  0.1123  0.4648
19701TIP3    H280519   5.973   6.676  13.752 -0.5092  0.3582  0.6461
19702TIP3   OH280520   6.525   4.115  14.387  0.3552 -0.4052 -0.4504
19702TIP3    H180521   6.471   4.162  14.323  2.6089  0.7319 -1.6363
19702TIP3    H280522   6.461   4.075  14.446 -1.8434 -1.0760 -3.0584
19703TIP3   OH280523   0.566   1.312   2.119  0.5152 -0.2878  0.3971
19703TIP3    H180524   0.586   1.243   2.182  0.0329 -1.6607 -0.9094
19703TIP3    H280525   0.565   1.392   2.171  2.9061 -0.9741  1.6469
19704TIP3   OH280526   3.383   2.651  12.833  0.4076 -0.1687  0.1216
19704TIP3    H180527   3.426   2.574  12.868  1.0781 -1.2120 -2.7391
19704TIP3    H280528   3.289   2.633  12.842  0.5605 -0.5425  1.0038
19705TIP3   OH280529   2.830   4.412  11.298 -0.8192  0.2810  0.3076
19705TIP3    H180530   2.867   4.377  11.217 -0.6916  1.5355 -0.1913
19705TIP3    H280531   2.766   4.477  11.269 -1.1111  0.4094  1.2094
19706TIP3   OH280532   2.949   1.111   3.354 -0.0381  0.2009  0.4803
19706TIP3    H180533   3.001   1.143   3.427  0.4740  2.0594 -0.6124
19706TIP3    H280534   2.989   1.152   3.277 -0.5559 -1.6678 -0.8661
19707TIP3   OH280535   6.131   3.920   2.795 -0.7895 -0.0277 -0.8714
19707TIP3    H180536   6.097   3.849   2.850  0.3310  1.1220  1.4424
19707TIP3    H280537   6.092   3.999   2.832 -0.0716  0.7966 -1.8308
19708TIP3   OH280538   5.957   2.687  12.328 -0.6123  0.1993  0.7095
19708TIP3    H180539   5.909   2.682  12.411  2.0575 -2.6357  2.2839
19708TIP3    H280540   5.952   2.599  12.292  2.1871  0.1525  0.2667
19709TIP3   OH280541   5.775   5.702  16.577  0.3793  0.3050  0.5700
19709TIP3    H180542   5.783   5.629  16.516 -1.0118  0.3098  0.3511
19709TIP3    H280543   5.858   5.702  16.626  0.5077 -1.2524  0.3975
19710TIP3   OH280544   4.849   2.364  14.654 -0.8575  0.3917  0.4552
19710TIP3    H180545   4.860   2.444  14.603 -1.2901  0.8606  1.0926
19710TIP3    H280546   4.911   2.302  14.615 -1.7777  0.4560 -1.2334
19711TIP3   OH280547   2.453   6.272   5.308 -0.1701  0.2323  0.4617
19711TIP3    H180548   2.392   6.260   5.235  0.2140 -0.8798  0.3017
19711TIP3    H280549   2.399   6.258   5.386 -0.2167 -0.2901  0.3365
19712TIP3   OH280550   3.694   4.283  14.615  0.1914 -0.2796 -0.2647
19712TIP3    H180551   3.775   4.294  14.565 -0.2611  0.5578 -0.8539
19712TIP3    H280552   3.662   4.197  14.590  0.0747  0.0441 -1.2998
19713TIP3   OH280553   5.717   5.752   1.992 -0.4008  0.5899 -0.1267
19713TIP3    H180554   5.687   5.664   2.015  1.0749 -0.3040 -1.4398
19713TIP3    H280555   5.660   5.779   1.921 -0.7405  0.6239  0.1572
19714TIP3   OH280556   2.634   6.719   1.493  0.5626  0.9715  0.4673
19714TIP3    H180557   2.626   6.780   1.420 -0.7028  0.0681 -0.1858
19714TIP3    H280558   2.637   6.774   1.571 -2.5798  1.8920  0.0636
19715TIP3   OH280559   3.279   2.112   0.603 -0.3310 -0.4861 -0.8529
19715TIP3    H180560   3.254   2.056   0.530  0.5605 -1.1888 -0.6409
19715TIP3    H280561   3.362   2.075   0.635 -0.0909  0.5190 -0.2449
19716TIP3   OH280562   1.180   4.182   3.665 -0.1979 -0.3594  0.2479
19716TIP3    H180563   1.147   4.272   3.667 -0.1762 -0.3337 -0.3469
19716TIP3    H280564   1.105   4.129   3.637 -0.2446 -0.5475  0.7147
19717TIP3   OH280565   5.105   2.643  15.668  0.4863  0.5585 -0.4668
19717TIP3    H180566   5.017   2.607  15.675  0.0014  1.7827  0.0480
19717TIP3    H280567   5.140   2.605  15.587  0.5431 -2.1065  0.7129
19718TIP3   OH280568   2.293   5.955   6.187 -0.1235 -0.2671 -0.8282
19718TIP3    H180569   2.346   6.035   6.182  0.4749 -0.7087 -1.7953
19718TIP3    H280570   2.354   5.885   6.165 -0.9060 -0.8746 -1.0971
19719TIP3   OH280571   2.886   0.501   6.313 -0.2035  0.1340 -0.2373
19719TIP3    H180572   2.858   0.492   6.404  0.5034  2.7230  0.3090
19719TIP3    H280573   2.810   0.534   6.267 -0.7424 -1.7336 -0.7780
19720TIP3   OH280574   5.204   3.281  15.079  0.7108 -0.5419 -0.0152
19720TIP3    H180575   5.127   3.338  15.084  0.3586 -1.1226  1.5650
19720TIP3    H280576   5.235   3.275  15.169  1.9405 -1.2372 -0.4692
19721TIP3   OH280577   5.639   1.142  11.874  0.1066 -0.0874  0.0116
19721TIP3    H180578   5.607   1.232  11.877 -0.7094 -0.3971  0.9681
19721TIP3    H280579   5.591   1.097  11.943 -0.1991 -1.4937 -1.0767
19722TIP3   OH280580   5.331   2.140  16.017 -0.8375  0.0807  0.8181
19722TIP3    H180581   5.262   2.081  15.986  1.2383 -1.3701 -1.4087
19722TIP3    H280582   5.300   2.227  15.993 -1.7758 -0.5523 -0.4128
19723TIP3   OH280583   2.771   5.484  17.054  0.2711  0.1157  0.1303
19723TIP3    H180584   2.683   5.517  17.072 -0.2087 -1.3464  0.5717
19723TIP3    H280585   2.784   5.414  17.118  1.1649 -0.6971 -0.9098
19724TIP3   OH280586   2.525   5.694  10.844  0.6672 -0.3813  0.5249
19724TIP3    H180587   2.616   5.722  10.829  1.2185 -1.8393  0.9400
19724TIP3    H280588   2.510   5.628  10.776  0.1248 -0.5660  0.8214
19725TIP3   OH280589   1.430   5.291  13.674 -0.5531  0.0696 -0.3214
19725TIP3    H180590   1.398   5.361  13.730  0.3046  0.1963  0.0247
19725TIP3    H280591   1.513   5.324  13.638 -0.8125 -0.2301 -1.2243
19726TIP3   OH280592   2.996   1.446  15.539  0.3223 -0.3216  0.3186
19726TIP3    H180593   3.064   1.398  15.491  1.2425 -0.6659  1.8825
19726TIP3    H280594   2.979   1.391  15.616 -2.8016 -0.9753 -0.7173
19727TIP3   OH280595   3.863   1.961   3.015 -0.1367 -0.5622 -0.5121
19727TIP3    H180596   3.785   1.970   2.961 -0.8141  0.1540  0.5461
19727TIP3    H280597   3.836   1.902   3.086 -0.8276  2.3064  1.7644
19728TIP3   OH280598   0.196   6.489  12.994 -0.1089  0.3288  0.0058
19728TIP3    H180599   0.143   6.441  13.058  2.7019 -1.1418  1.3945
19728TIP3    H280600   0.243   6.554  13.046  1.8088 -0.5290 -0.5788
19729TIP3   OH280601   5.740   5.471   3.109 -0.1561  0.1903 -0.1716
19729TIP3    H180602   5.649   5.487   3.082 -0.0833  0.9839  0.0390
19729TIP3    H280603   5.770   5.402   3.051 -0.5157  0.7544 -1.0473
19730TIP3   OH280604   5.436   4.348  16.686 -0.3749 -0.5034  0.2267
19730TIP3    H180605   5.503   4.370  16.622 -0.2426 -1.5254 -0.0045
19730TIP3    H280606   5.446   4.413  16.756  0.2564 -0.1031 -0.2314
19731TIP3   OH280607   0.960   2.722   6.320 -0.4084 -0.0169 -0.2679
19731TIP3    H180608   0.900   2.719   6.395 -1.3681 -0.3789 -1.0241
19731TIP3    H280609   0.964   2.814   6.295  0.7413  0.2565  0.8594
19732TIP3   OH280610   4.511   3.413  17.322 -0.1892 -0.2726 -0.5376
19732TIP3    H180611   4.572   3.389  17.392 -0.6120 -1.1045 -0.4431
19732TIP3    H280612   4.515   3.508  17.319 -0.2177 -0.2087  0.6797
19733TIP3   OH280613   5.918   1.133   5.769  0.2668 -0.1875  0.5913
19733TIP3    H180614   5.938   1.192   5.696  1.9316  0.7466  1.7521
19733TIP3    H280615   5.904   1.048   5.727  2.9386 -0.0813 -0.7609
19734TIP3   OH280616   3.157   5.853  14.141 -0.1258  0.1059  0.5736
19734TIP3    H180617   3.208   5.927  14.110  0.2487 -0.1554  0.5675
19734TIP3    H280618   3.157   5.791  14.068 -2.6182  1.1590 -0.4425
19735TIP3   OH280619   3.146   6.289  13.617 -0.6171 -0.1227 -0.4392
19735TIP3    H180620   3.212   6.348  13.581  0.0769  0.1434  1.1826
19735TIP3    H280621   3.066   6.310  13.569  0.3063 -0.0060 -2.0048
19736TIP3   OH280622   4.554   6.218  15.663 -0.3257  0.3974  0.3474
19736TIP3    H180623   4.497   6.293  15.650 -0.3984  0.0580 -1.5971
19736TIP3    H280624   4.605   6.240  15.742 -2.0547  1.3451  1.2548
19737TIP3   OH280625   3.530   5.409   2.868  0.0999 -0.4280 -0.3932
19737TIP3    H180626   3.620   5.433   2.845 -0.3543  0.5748 -1.1862
19737TIP3    H280627   3.532   5.397   2.963  0.9035  0.3429 -0.3054
19738TIP3   OH280628   0.261   1.869  14.532 -0.1077 -0.2213 -0.1746
19738TIP3    H180629   0.291   1.840  14.446  0.9152 -1.5996  0.6209
19738TIP3    H280630   0.257   1.790  14.585 -3.1712  0.1848  0.4077
19739TIP3   OH280631   1.501   4.281   4.235 -0.5713  0.1778  0.1092
19739TIP3    H180632   1.496   4.301   4.141 -0.0210 -0.2364 -0.0191
19739TIP3    H280633   1.419   4.237   4.255 -0.7693  0.4330 -0.1400
19740TIP3   OH280634   5.735   3.571   2.460  0.1110 -0.3468  0.2588
19740TIP3    H180635   5.739   3.658   2.499 -0.1269 -0.1992 -0.0433
19740TIP3    H280636   5.821   3.557   2.421  0.5450 -0.7178  1.2977
19741TIP3   OH280637   0.029   2.903  13.005 -0.4956  0.0742  0.0333
19741TIP3    H180638  -0.037   2.932  13.068 -0.0186  0.2438  0.4663
19741TIP3    H280639   0.046   2.980  12.951  0.7814  0.6604  1.1929
19742TIP3   OH280640   2.958   3.908  15.398 -0.3470  0.0526 -0.6012
19742TIP3    H180641   2.996   3.990  15.365 -0.4589  0.0098 -0.8357
19742TIP3    H280642   3.019   3.879  15.466 -0.3658  0.3908 -0.4388
19743TIP3   OH280643   3.357   5.000  16.424  0.1651  0.1762 -0.4817
19743TIP3    H180644   3.409   4.968  16.350  0.8407  0.2957 -0.0743
19743TIP3    H280645   3.343   4.923  16.478  1.1494  0.3949  0.1215
19744TIP3   OH280646   3.248   4.075   0.243  0.0858  0.4462  0.4004
19744TIP3    H180647   3.330   4.090   0.290 -1.1429  0.6868  2.5538
19744TIP3    H280648   3.264   4.110   0.155  2.7634 -0.8458  0.2652
19745TIP3   OH280649   0.395   1.236   3.351  0.1092  0.5074  0.3793
19745TIP3    H180650   0.361   1.162   3.300  1.0738 -0.4670  1.0801
19745TIP3    H280651   0.355   1.313   3.312 -1.5946 -0.4474  0.1565
19746TIP3   OH280652   2.953   1.219  11.986 -0.5478 -1.0629 -0.0476
19746TIP3    H180653   2.940   1.313  11.976  1.8162 -0.4984  1.4650
19746TIP3    H280654   2.864   1.183  11.992 -1.5092  1.2496  0.8613
19747TIP3   OH280655   4.104   3.733  11.989  0.8506  0.1448  0.4241
19747TIP3    H180656   4.012   3.748  11.971  1.6099  2.1844 -2.4314
19747TIP3    H280657   4.115   3.638  11.984 -0.8377 -0.0233 -0.6773
19748TIP3   OH280658   6.432   6.510   2.411 -0.3179 -0.4320 -0.2241
19748TIP3    H180659   6.495   6.507   2.339 -0.1719  0.2571 -0.1338
19748TIP3    H280660   6.378   6.587   2.392  0.6302  0.6285  1.1285
19749TIP3   OH280661   4.606   4.411  17.031 -0.6108  0.1990  0.6945
19749TIP3    H180662   4.559   4.381  16.953  1.7532 -2.3766  0.1083
19749TIP3    H280663   4.630   4.502  17.010 -0.1956 -0.3654 -1.5609
19750TIP3   OH280664   4.851   1.028   5.555  0.2562 -0.1529 -0.2198
19750TIP3    H180665   4.838   1.118   5.583 -0.5243  0.3474 -2.0320
19750TIP3    H280666   4.926   1.032   5.496 -0.8907 -0.2980 -1.7688
19751TIP3   OH280667   4.657   5.232   2.829  0.0669  0.0856  0.3592
19751TIP3    H180668   4.660   5.202   2.920  0.1957 -0.9203  0.0371
19751TIP3    H280669   4.702   5.164   2.780  1.2494  1.3060 -0.3027
19752TIP3   OH280670   2.567   1.795   0.605 -0.6448  0.1487 -0.2893
19752TIP3    H180671   2.544   1.714   0.559  0.3979 -0.7479  0.7091
19752TIP3    H280672   2.484   1.842   0.613 -1.5865 -1.5437  0.4642
19753TIP3   OH280673   1.590   2.243  16.388  0.1750 -0.0210  0.5922
19753TIP3    H180674   1.591   2.326  16.341 -0.9114  0.3132  1.1227
19753TIP3    H280675   1.646   2.257  16.465 -0.6567  0.5102  1.1188
19754TIP3   OH280676   0.034   0.375  12.957  0.1111 -0.4379  0.4931
19754TIP3    H180677   0.075   0.457  12.931  1.8960 -2.1836 -2.9023
19754TIP3    H280678  -0.041   0.401  13.010 -0.1970  3.4272 -1.5074
19755TIP3   OH280679   5.563   2.243  15.267 -0.0128 -0.3913  0.4173
19755TIP3    H180680   5.615   2.166  15.244  1.7443  0.7830  0.2527
19755TIP3    H280681   5.625   2.316  15.262 -1.7466  1.1206  0.0374
19756TIP3   OH280682   4.744   1.058  16.839  0.7494  0.2785 -0.0029
19756TIP3    H180683   4.832   1.095  16.848  0.1605  1.3742  1.9578
19756TIP3    H280684   4.740   0.988  16.904  0.1847  0.2081 -0.1059
19757TIP3   OH280685   1.597   1.355  12.667  0.0322  0.1541 -0.1218
19757TIP3    H180686   1.670   1.415  12.650  0.5942 -0.3425  0.4775
19757TIP3    H280687   1.604   1.289  12.598  1.4898 -1.1028  1.1469
19758TIP3   OH280688   2.889   0.402  14.149 -0.1108  0.2686  0.6883
19758TIP3    H180689   2.959   0.364  14.203  0.9843 -3.7794 -2.9805
19758TIP3    H280690   2.934   0.437  14.072 -1.7794  3.4252  0.9882
19759TIP3   OH280691   6.423   0.347  14.073  0.3041  0.4243 -0.1568
19759TIP3    H180692   6.351   0.385  14.124  0.1589 -0.4554  0.3135
19759TIP3    H280693   6.493   0.411  14.079 -0.8322  1.9253 -1.6854
19760TIP3   OH280694   4.133   1.536  10.988  0.2186  1.0013  0.0246
19760TIP3    H180695   4.181   1.454  10.986  0.9330  1.4052  0.4312
19760TIP3    H280696   4.182   1.594  10.929 -1.5119  0.5007 -2.0594
19761TIP3   OH280697   3.111   2.219  14.707 -0.8841  0.4662 -0.2229
19761TIP3    H180698   3.157   2.166  14.771 -1.3768 -1.0182 -1.0308
19761TIP3    H280699   3.154   2.199  14.624 -0.5072  2.0485 -0.4367
19762TIP3   OH280700   5.769   3.133  15.502  0.6053 -0.5988  0.3365
19762TIP3    H180701   5.826   3.189  15.555 -0.0280  0.0666  0.3185
19762TIP3    H280702   5.689   3.125  15.553  0.4770 -1.0318  0.0732
19763TIP3   OH280703   6.141   4.317   1.638 -0.7301  0.4685 -0.3843
19763TIP3    H180704   6.232   4.297   1.618 -0.5867 -0.5344  1.1289
19763TIP3    H280705   6.136   4.413   1.633  0.1581  0.4739 -1.4287
19764TIP3   OH280706   2.002   3.919   5.132  0.4930 -0.2770 -0.9147
19764TIP3    H180707   1.907   3.935   5.135 -0.1069 -3.1516 -0.7361
19764TIP3    H280708   2.014   3.871   5.049  1.9697  0.8704 -1.3860
19765TIP3   OH280709   5.222   4.961  14.537  0.9266  0.5312 -0.7808
19765TIP3    H180710   5.275   4.885  14.513 -0.2410  0.3371 -3.0815
19765TIP3    H280711   5.156   4.927  14.597  1.8853  0.2641  0.1402
19766TIP3   OH280712   5.090   6.006  16.523 -0.5537 -0.1265  0.0096
19766TIP3    H180713   5.007   6.026  16.480  0.3680 -1.5917 -2.6676
19766TIP3    H280714   5.067   5.944  16.592 -2.0659  2.2481  1.8096
19767TIP3   OH280715   4.382   2.151   3.528 -0.3564 -0.0178  0.0371
19767TIP3    H180716   4.341   2.106   3.602 -0.5426  0.6491  0.3481
19767TIP3    H280717   4.309   2.194   3.483 -0.3450 -0.9654 -0.9410
19768TIP3   OH280718   4.836   2.170   1.230  0.0246 -0.3277 -0.0271
19768TIP3    H180719   4.890   2.229   1.177  0.4135 -0.1758  0.5333
19768TIP3    H280720   4.753   2.163   1.182 -0.2619  1.1691  0.2043
19769TIP3   OH280721   4.635   4.367   0.437 -0.2912  0.1998 -0.4210
19769TIP3    H180722   4.599   4.360   0.348 -0.0399  1.0212 -0.5898
19769TIP3    H280723   4.699   4.295   0.442  0.6874  0.9715 -1.3856
19770TIP3   OH280724   2.521   6.726  13.727 -0.0274 -0.4551  0.2160
19770TIP3    H180725   2.483   6.722  13.815  2.1057  0.8208  1.2929
19770TIP3    H280726   2.613   6.702  13.740  0.3930 -0.0076 -1.6450
19771TIP3   OH280727   0.926   3.532  13.304 -0.0492 -0.9160 -0.1194
19771TIP3    H180728   0.913   3.597  13.373 -0.4297 -2.3601  1.2406
19771TIP3    H280729   0.917   3.581  13.222 -1.8733  0.4627  0.8285
19772TIP3   OH280730   6.664   5.233  12.300 -0.3882  0.0562  0.5111
19772TIP3    H180731   6.571   5.242  12.278 -0.0288 -0.5112 -1.4374
19772TIP3    H280732   6.680   5.138  12.295  0.3530  0.1761  0.6004
19773TIP3   OH280733   5.008   0.410  15.448  0.9071  0.7011 -0.1365
19773TIP3    H180734   4.939   0.420  15.512  1.4399 -1.4152  0.8700
19773TIP3    H280735   4.970   0.442  15.366 -1.3342 -0.5430  0.3442
19774TIP3   OH280736   4.645   3.118   4.189  0.1250  0.3461 -0.4427
19774TIP3    H180737   4.576   3.137   4.252 -0.3645  0.9542 -1.1396
19774TIP3    H280738   4.598   3.095   4.109  0.7350  0.2412 -0.7760
19775TIP3   OH280739   3.387   5.429   4.692  0.1850  0.8637  0.2106
19775TIP3    H180740   3.403   5.396   4.780 -1.0390  0.6731  0.3844
19775TIP3    H280741   3.324   5.367   4.654 -0.9709  2.1076 -0.0027
19776TIP3   OH280742   2.277   4.864  15.624  0.3175  0.3446  0.7165
19776TIP3    H180743   2.300   4.783  15.579  1.5486  0.5265  0.9714
19776TIP3    H280744   2.238   4.835  15.707  1.7183 -0.0244  1.2832
19777TIP3   OH280745   6.297   3.868  14.669  0.0976 -0.3994 -0.3391
19777TIP3    H180746   6.305   3.952  14.624 -1.2699  1.0224  1.9150
19777TIP3    H280747   6.376   3.862  14.722  1.3856 -1.7713 -2.2512
19778TIP3   OH280748   4.949   4.237  14.203  0.1732  0.1636  0.0741
19778TIP3    H180749   4.923   4.161  14.150  1.6927  1.1677 -2.2469
19778TIP3    H280750   5.018   4.204  14.261 -1.0520 -0.7976  1.0403
19779TIP3   OH280751   2.382   4.501  12.298 -0.1851 -0.5394  0.3440
19779TIP3    H180752   2.318   4.470  12.361  0.4029 -2.8574 -0.1182
19779TIP3    H280753   2.460   4.447  12.313  2.1245  2.7724  1.5608
19780TIP3   OH280754   2.953   2.442   3.388 -0.2716  0.4304 -0.2288
19780TIP3    H180755   3.027   2.404   3.435  0.0684 -1.4432 -2.1055
19780TIP3    H280756   2.986   2.455   3.299 -2.1502 -0.4495 -1.1111
19781TIP3   OH280757   3.260   6.199  10.502 -0.5163  0.1311  0.4574
19781TIP3    H180758   3.167   6.219  10.505 -0.5349  1.5222 -3.2730
19781TIP3    H280759   3.303   6.284  10.494  0.7664 -0.5713 -0.7893
19782TIP3   OH280760   0.432   0.765  17.086 -0.1199 -0.3725  0.3118
19782TIP3    H180761   0.516   0.784  17.044 -0.9250 -0.5784 -1.4811
19782TIP3    H280762   0.398   0.689  17.038 -1.7887  0.3277  0.3033
19783TIP3   OH280763   0.558   4.107  13.050  0.0598  0.2351  0.1513
19783TIP3    H180764   0.492   4.131  13.115  0.4610  0.9487  0.3082
19783TIP3    H280765   0.583   4.190  13.010  1.4486  0.0811  0.6556
19784TIP3   OH280766   4.158   4.578   3.306  0.1319 -0.4770 -0.1100
19784TIP3    H180767   4.137   4.594   3.398 -0.2970  0.4015 -0.3555
19784TIP3    H280768   4.231   4.637   3.288 -0.0946 -0.3068 -0.4638
19785TIP3   OH280769   2.976   4.418  16.606 -0.6472 -0.4829 -0.3553
19785TIP3    H180770   2.892   4.461  16.617 -0.5709 -0.2201 -0.7899
19785TIP3    H280771   2.973   4.343  16.666 -1.5447 -1.0016 -1.0405
19786TIP3   OH280772   1.984   2.399  10.962 -0.2667 -0.1779  0.1656
19786TIP3    H180773   1.904   2.448  10.947 -1.1024 -1.4886  0.1816
19786TIP3    H280774   1.992   2.342  10.885  0.1511 -0.6972  0.5834
19787TIP3   OH280775   1.271   5.614  17.032  0.3921 -0.3365  0.0350
19787TIP3    H180776   1.178   5.633  17.042  0.3878  0.6233 -1.5002
19787TIP3    H280777   1.288   5.543  17.094 -1.0543  0.3842  1.3215
19788TIP3   OH280778   0.611   5.625   5.680 -0.0703 -0.3212 -0.1401
19788TIP3    H180779   0.581   5.707   5.719 -0.5649 -0.8626  0.6515
19788TIP3    H280780   0.551   5.559   5.713  1.7239 -1.3933  1.1827
19789TIP3   OH280781   6.491   5.018   0.082 -0.3836  0.1520  0.1229
19789TIP3    H180782   6.501   4.978   0.168  0.0022  0.5322  0.2582
19789TIP3    H280783   6.485   5.112   0.099 -0.3614  0.2271 -0.2593
19790TIP3   OH280784   2.247   3.992   5.215 -0.3209  0.1522  0.2950
19790TIP3    H180785   2.295   3.919   5.178  1.0411  1.4090 -0.5033
19790TIP3    H280786   2.157   3.981   5.183 -0.1642 -1.1836  0.2638
19791TIP3   OH280787   5.469   1.273  12.613  0.0352  0.2115  0.6140
19791TIP3    H180788   5.455   1.193  12.562 -1.3152  0.7282  0.1543
19791TIP3    H280789   5.394   1.278  12.671 -0.0952  1.3502  0.3673
19792TIP3   OH280790   1.303   4.104   4.378 -0.4332  0.7172 -0.2586
19792TIP3    H180791   1.328   4.133   4.466 -1.9262  1.6020 -0.0895
19792TIP3    H280792   1.309   4.009   4.381 -1.4458  0.6704  1.1363
19793TIP3   OH280793   2.415   2.604   2.750 -0.3914  0.0350  0.0973
19793TIP3    H180794   2.374   2.644   2.674  1.1420  0.8234 -0.3381
19793TIP3    H280795   2.465   2.531   2.715  0.0176  0.1696  0.3905
19794TIP3   OH280796   3.089   0.492   5.266 -0.8441  0.1661 -0.4766
19794TIP3    H180797   3.116   0.416   5.318 -0.9033  0.6432  0.2624
19794TIP3    H280798   2.998   0.473   5.243 -0.4442 -0.6475 -1.5346
19795TIP3   OH280799   0.390   6.096   2.813  0.3508 -0.2450 -0.3761
19795TIP3    H180800   0.330   6.047   2.756  1.6416 -1.0197 -1.1128
19795TIP3    H280801   0.364   6.187   2.801 -1.2981 -0.6247  0.0706
19796TIP3   OH280802   2.562   5.171   0.788  0.1985 -0.3080  0.5812
19796TIP3    H180803   2.596   5.083   0.774  0.8167 -0.1508  1.0573
19796TIP3    H280804   2.632   5.229   0.755 -0.4338  0.0057 -0.2505
19797TIP3   OH280805   0.872   5.502   4.554 -0.6750 -0.0273  0.2834
19797TIP3    H180806   0.887   5.591   4.586 -0.7683 -0.2834  1.0441
19797TIP3    H280807   0.913   5.445   4.619 -0.4158 -0.5381 -0.3129
19798TIP3   OH280808   0.092   5.506   4.708  0.4317 -0.5264 -0.0371
19798TIP3    H180809   0.134   5.590   4.724  3.1180 -1.1271 -3.0009
19798TIP3    H280810   0.036   5.522   4.632 -0.6521 -0.9998  0.6377
19799TIP3   OH280811   5.144   5.602   5.077 -0.2001  0.4712 -0.0971
19799TIP3    H180812   5.102   5.665   5.135 -0.3882 -0.2332  0.5523
19799TIP3    H280813   5.209   5.558   5.132  0.7570  0.8978 -0.8482
19800TIP3   OH280814   5.839   5.592   0.820  0.2668 -0.2319 -0.2960
19800TIP3    H180815   5.869   5.573   0.731  1.3238 -2.4655  0.4608
19800TIP3    H280816   5.754   5.548   0.826 -0.4920  1.1266 -0.5969
19801TIP3   OH280817   0.942   4.018   3.051  0.1184 -0.0395 -0.0721
19801TIP3    H180818   1.004   4.034   2.980  0.7581 -0.0776  0.4688
19801TIP3    H280819   0.897   4.102   3.063  0.6284  0.2169  0.0644
19802TIP3   OH280820   3.563   5.769   3.036 -0.8202 -0.0224 -0.0789
19802TIP3    H180821   3.496   5.773   3.104 -0.0617  2.1609  0.6227
19802TIP3    H280822   3.628   5.834   3.063  0.8089 -0.9589 -1.5514
19803TIP3   OH280823   1.768   6.105  13.327  0.1740  0.2584 -0.2051
19803TIP3    H180824   1.808   6.073  13.407 -0.9318  1.7138  1.0078
19803TIP3    H280825   1.839   6.149  13.280  0.7953 -0.4612  0.0526
19804TIP3   OH280826   0.140   2.163   2.675 -0.6560  0.3789 -0.3022
19804TIP3    H180827   0.194   2.097   2.631 -0.7670  1.1669 -1.6885
19804TIP3    H280828   0.062   2.115   2.703 -1.5230  0.1701 -2.7789
19805TIP3   OH280829   1.727   2.020  14.096 -0.2429 -0.6889 -0.1499
19805TIP3    H180830   1.734   1.953  14.164  0.0270  0.3841  0.9281
19805TIP3    H280831   1.664   1.985  14.034 -0.7252 -1.5797  0.8107
19806TIP3   OH280832   5.817   6.732   3.238 -0.5207 -0.2709  0.1081
19806TIP3    H180833   5.796   6.808   3.185  0.5382 -0.5658 -0.7578
19806TIP3    H280834   5.892   6.692   3.195  0.0624 -0.8013  1.5532
19807TIP3   OH280835   2.413   0.291   1.087 -0.1205  0.1387 -0.4588
19807TIP3    H180836   2.489   0.322   1.037 -0.7767  0.2631 -1.4039
19807TIP3    H280837   2.337   0.326   1.040 -0.7621  0.6878  0.9192
19808TIP3   OH280838   6.534   0.603  11.548  0.0638  0.2123 -0.2039
19808TIP3    H180839   6.526   0.684  11.498 -1.9630 -0.6610 -1.4354
19808TIP3    H280840   6.621   0.608  11.588  0.1846  2.7461 -0.6174
19809TIP3   OH280841   1.519   2.504   4.777  0.0073 -1.0567  0.5858
19809TIP3    H180842   1.530   2.531   4.869 -1.1282 -0.6134  0.6047
19809TIP3    H280843   1.428   2.476   4.771 -0.3861  0.3708 -0.7555
19810TIP3   OH280844   2.647   4.830  12.197 -0.4574  0.1079  0.1839
19810TIP3    H180845   2.570   4.780  12.168 -2.3011  1.4251  2.4944
19810TIP3    H280846   2.672   4.790  12.280  1.8716 -0.7281 -0.8374
19811TIP3   OH280847   0.297   3.583   1.520 -0.0101  0.2584  0.1479
19811TIP3    H180848   0.217   3.536   1.544  1.2988 -1.6525  1.0822
19811TIP3    H280849   0.294   3.664   1.570 -1.6912  0.5681 -0.4051
19812TIP3   OH280850   4.634   5.371  11.565  0.6859 -0.3125 -0.1003
19812TIP3    H180851   4.709   5.415  11.605 -0.0828 -0.4105  1.4999
19812TIP3    H280852   4.610   5.303  11.627  0.1493 -1.2301 -1.2756
19813TIP3   OH280853   4.495   2.654  11.502  0.3814  0.3923  0.2359
19813TIP3    H180854   4.504   2.749  11.511 -1.0602  0.3564  2.8434
19813TIP3    H280855   4.405   2.635  11.528  1.0806 -1.8359  1.3164
19814TIP3   OH280856   4.996   6.443   4.301  0.0218 -0.6464 -0.2454
19814TIP3    H180857   5.070   6.446   4.362 -0.2902 -0.5739  0.1340
19814TIP3    H280858   4.924   6.484   4.349 -0.4673 -1.3814 -0.3383
19815TIP3   OH280859   4.201   4.069  13.095  0.2159  0.2193 -0.5147
19815TIP3    H180860   4.244   3.989  13.063 -1.9257  0.1476 -3.5266
19815TIP3    H280861   4.129   4.037  13.150 -0.9846 -0.0389 -2.1643
19816TIP3   OH280862   4.843   1.461  12.478  0.0282 -0.2015 -0.2438
19816TIP3    H180863   4.764   1.414  12.449 -0.3131  0.1674  0.0643
19816TIP3    H280864   4.890   1.398  12.533  0.2858 -0.6442 -0.9690
19817TIP3   OH280865   6.096   4.988   0.984 -0.5345  1.1053 -0.1353
19817TIP3    H180866   6.070   4.897   0.995  1.2412  0.5916  0.1183
19817TIP3    H280867   6.100   5.022   1.073  1.3010  0.6651 -0.0216
19818TIP3   OH280868   2.640   1.778   1.507  0.0486  0.0845  0.0258
19818TIP3    H180869   2.643   1.872   1.527  0.8886  0.2587 -0.8228
19818TIP3    H280870   2.732   1.750   1.511 -0.1095 -0.5382 -0.4536
19819TIP3   OH280871   4.127   6.206  13.133  0.6243  0.2774 -0.0021
19819TIP3    H180872   4.146   6.214  13.227 -0.4933  1.7898  0.1318
19819TIP3    H280873   4.201   6.250  13.090  0.9240 -0.0412  0.1796
19820TIP3   OH280874   1.008   5.754   4.599 -0.0280  0.8048  0.5644
19820TIP3    H180875   1.009   5.774   4.693  0.6062 -0.6469  0.8816
19820TIP3    H280876   1.064   5.822   4.560  1.9026 -0.1010  1.5937
19821TIP3   OH280877   4.865   4.588   4.579 -0.7489 -0.3789 -0.1724
19821TIP3    H180878   4.778   4.584   4.617 -0.5915  0.7215  0.3542
19821TIP3    H280879   4.854   4.642   4.501 -0.2510  1.2873  0.8561
19822TIP3   OH280880   3.455   6.326  14.643  0.9625  0.0388 -0.1909
19822TIP3    H180881   3.549   6.319  14.625  0.8315  2.5722 -2.5488
19822TIP3    H280882   3.414   6.325  14.556 -1.0641  0.6696  0.6909
19823TIP3   OH280883   5.552   1.966   4.939  0.0500  0.4471  0.4699
19823TIP3    H180884   5.551   2.058   4.965  1.9097  0.2400  1.4707
19823TIP3    H280885   5.494   1.923   5.003  0.3249  0.7156  0.9047
19824TIP3   OH280886   0.310   3.634   3.639  0.4798  0.2002  0.1333
19824TIP3    H180887   0.310   3.558   3.697  0.3167 -0.3957 -0.6392
19824TIP3    H280888   0.232   3.623   3.585  1.5308 -0.1709 -1.3858
19825TIP3   OH280889   4.939   6.406   5.094  0.2875  0.4431 -0.2428
19825TIP3    H180890   4.972   6.375   5.179 -0.6648 -0.1369 -0.0714
19825TIP3    H280891   4.844   6.416   5.108  0.2591  1.2764 -0.9613
19826TIP3   OH280892   3.375   3.356  15.602 -0.3123 -0.4129  0.7077
19826TIP3    H180893   3.320   3.280  15.585  1.6113 -1.9310  0.8845
19826TIP3    H280894   3.324   3.431  15.571 -2.4020 -1.7226  0.8468
19827TIP3   OH280895   3.820   4.122  12.687 -0.3891  0.1627 -0.0131
19827TIP3    H180896   3.844   4.104  12.778  2.8644  0.2657 -0.7293
19827TIP3    H280897   3.751   4.188  12.694 -0.9346 -0.5430  2.3637
19828TIP3   OH280898   5.079   2.003  12.830  0.1408 -0.2312  0.0919
19828TIP3    H180899   5.072   2.098  12.822  0.8424 -0.2159 -0.4378
19828TIP3    H280900   5.074   1.986  12.924  0.0386  0.3315  0.1895
19829TIP3   OH280901   2.222   4.000   2.998 -0.0688 -0.0510  0.1670
19829TIP3    H180902   2.286   3.929   2.991  1.6147  0.8727  3.6307
19829TIP3    H280903   2.140   3.955   3.019  0.6136 -1.0995  0.7428
19830TIP3   OH280904   3.776   1.403  10.405 -0.3618 -0.4974 -0.5667
19830TIP3    H180905   3.862   1.362  10.419  0.4333  1.4850  0.7496
19830TIP3    H280906   3.793   1.472  10.341 -0.2757  1.8170  1.8244
19831TIP3   OH280907   0.705   0.922   6.229 -0.0559 -0.4280 -0.1279
19831TIP3    H180908   0.736   0.905   6.318 -1.5031  0.0168  0.4831
19831TIP3    H280909   0.702   0.836   6.188  0.5465 -0.6463  0.2712
19832TIP3   OH280910   5.233   5.439  10.755  0.0345  0.6997 -0.1190
19832TIP3    H180911   5.289   5.363  10.739  1.1264  1.7788 -1.7820
19832TIP3    H280912   5.284   5.493  10.816 -0.5949  0.2788  0.8015
19833TIP3   OH280913   4.960   6.140  11.719  0.1766 -0.4157  0.1073
19833TIP3    H180914   5.055   6.145  11.707 -0.0081  0.0371 -1.3559
19833TIP3    H280915   4.924   6.146  11.630 -1.2470 -0.1031  0.6736
19834TIP3   OH280916   5.481   4.358   4.565  0.0083  0.1966  0.0044
19834TIP3    H180917   5.426   4.318   4.632 -1.0350  0.0418 -0.9057
19834TIP3    H280918   5.564   4.310   4.570 -0.6614 -1.0062  0.0237
19835TIP3   OH280919   0.551   2.641   5.594  0.0821 -0.1853  0.0771
19835TIP3    H180920   0.483   2.581   5.565 -0.0576 -0.5835  1.1924
19835TIP3    H280921   0.631   2.589   5.596  0.3675  0.1991 -0.9200
19836TIP3   OH280922   2.564   2.931   4.118  0.0163  0.0133  0.4174
19836TIP3    H180923   2.499   2.863   4.137  1.6366 -1.8659 -0.4402
19836TIP3    H280924   2.588   2.917   4.027  1.0194  1.2206  0.4630
19837TIP3   OH280925   4.826   6.490  15.358 -0.4481 -0.3438 -0.0631
19837TIP3    H180926   4.852   6.414  15.305  0.0063 -0.0415 -0.2777
19837TIP3    H280927   4.881   6.485  15.437 -1.3199 -0.9503  0.5216
19838TIP3   OH280928   0.860   2.042  14.062  0.0193  0.2100  0.0224
19838TIP3    H180929   0.874   2.132  14.091 -0.2487 -0.4817  2.5499
19838TIP3    H280930   0.770   2.023  14.089 -0.3703 -0.4345 -1.6520
19839TIP3   OH280931   2.149   2.732  15.893  0.0181 -0.4720 -0.3927
19839TIP3    H180932   2.240   2.732  15.920 -0.2123 -0.8361  0.4142
19839TIP3    H280933   2.122   2.823  15.898  0.5761 -0.2378 -1.4878
19840TIP3   OH280934   3.579   2.766   4.589  0.2307  0.6999 -0.0863
19840TIP3    H180935   3.513   2.825   4.552 -0.3894 -0.1108 -0.3025
19840TIP3    H280936   3.650   2.766   4.525  0.6864  1.9623  0.3779
19841TIP3   OH280937   3.021   1.865   4.587 -0.0877  0.3068 -0.1751
19841TIP3    H180938   3.110   1.859   4.552 -0.0954  0.9911 -0.3189
19841TIP3    H280939   2.968   1.814   4.526  0.1316  0.2841 -0.3466
19842TIP3   OH280940   5.087   3.542  15.991  0.6461 -0.6876  0.0443
19842TIP3    H180941   5.099   3.620  16.045 -1.2802 -0.5054  0.2965
19842TIP3    H280942   5.175   3.505  15.981  1.3645  0.5814  1.3184
19843TIP3   OH280943   5.943   3.336   1.668 -0.6894  0.4901  0.1174
19843TIP3    H180944   5.932   3.406   1.604 -0.2150  0.1878 -0.3073
19843TIP3    H280945   6.032   3.348   1.701 -1.0861  0.9143  1.0574
19844TIP3   OH280946   5.160   5.088   3.866  1.0266 -0.1419  0.2705
19844TIP3    H180947   5.186   5.176   3.892  1.1530 -0.0766 -0.0698
19844TIP3    H280948   5.240   5.049   3.831  0.9594 -0.3750  0.3767
19845TIP3   OH280949   2.522   6.146  15.757  0.3697  0.0952  0.0882
19845TIP3    H180950   2.507   6.208  15.685 -1.2871  0.0247  0.3411
19845TIP3    H280951   2.440   6.097  15.764  0.6973 -0.2703  1.6773
19846TIP3   OH280952   2.358   3.387   2.357  0.2134 -0.2390  0.4192
19846TIP3    H180953   2.397   3.305   2.325 -0.5933 -0.8704  1.0047
19846TIP3    H280954   2.282   3.359   2.408 -1.2189  0.9619 -0.9289
19847TIP3   OH280955   3.347   3.902   2.776  0.1416  0.1189 -0.1149
19847TIP3    H180956   3.358   3.937   2.688  1.1491 -1.3150 -0.6029
19847TIP3    H280957   3.436   3.879   2.804 -0.3165 -0.7159  0.7154
19848TIP3   OH280958   3.553   5.122   2.350  0.3336 -0.3312  0.3628
19848TIP3    H180959   3.517   5.131   2.262 -0.6393 -1.3738  0.6378
19848TIP3    H280960   3.619   5.053   2.343  1.3995  0.6661  0.1443
19849TIP3   OH280961   0.572   2.931   1.972 -0.1021  0.0309 -0.1504
19849TIP3    H180962   0.547   3.023   1.975 -0.5747 -0.1125  0.5406
19849TIP3    H280963   0.658   2.930   1.929  1.3593  1.1156  2.5169
19850TIP3   OH280964   4.963   4.986  15.893 -0.4276 -0.3177 -0.4777
19850TIP3    H180965   4.885   4.955  15.846  0.1123 -0.8942 -1.0175
19850TIP3    H280966   5.016   5.027  15.825 -1.1252  1.8674  0.2206
19851TIP3   OH280967   2.173   5.279  15.065  0.5297  0.0621  0.7068
19851TIP3    H180968   2.217   5.354  15.106 -0.2384  0.5990  0.5590
19851TIP3    H280969   2.222   5.264  14.984  0.2854  0.8234  0.4115
19852TIP3   OH280970   4.883   3.520   5.917  0.1802  0.3195  0.2091
19852TIP3    H180971   4.877   3.463   5.994  0.4578 -0.1444 -0.1108
19852TIP3    H280972   4.965   3.568   5.930  0.1432  0.3644  0.2823
19853TIP3   OH280973   4.374   4.415  17.308  0.1078  0.5501 -0.7169
19853TIP3    H180974   4.452   4.414  17.364  0.3739  0.6000 -1.0791
19853TIP3    H280975   4.402   4.368  17.229 -0.1981  0.6640 -0.8909
19854TIP3   OH280976   1.145   0.869   1.353 -0.1793  0.3420 -1.0117
19854TIP3    H180977   1.205   0.901   1.287  0.8463  0.4104 -0.0779
19854TIP3    H280978   1.197   0.864   1.433 -1.1299 -0.6288 -0.4110
19855TIP3   OH280979   6.029   4.210  13.370  0.0351 -0.1663 -0.0695
19855TIP3    H180980   5.966   4.141  13.385  0.0354 -0.7307 -2.3085
19855TIP3    H280981   5.983   4.291  13.394 -0.6637 -0.7534  0.6150
19856TIP3   OH280982   3.766   2.620  12.157  0.6068 -0.1621  0.0218
19856TIP3    H180983   3.857   2.649  12.153  0.6856 -0.2453  0.9915
19856TIP3    H280984   3.735   2.649  12.242 -0.4865  0.4325 -0.5524
19857TIP3   OH280985   3.615   5.376  14.917  0.3814  0.2943 -0.1491
19857TIP3    H180986   3.628   5.282  14.931  0.6737  0.6771  2.8688
19857TIP3    H280987   3.533   5.396  14.962  1.5309  1.8365  1.4034
19858TIP3   OH280988   1.998   1.799  13.089 -0.2712  0.0622  0.5505
19858TIP3    H180989   2.022   1.801  12.996  1.1390 -0.4428  0.8786
19858TIP3    H280990   1.934   1.729  13.096 -1.1197  0.7418 -0.1921
19859TIP3   OH280991   0.333   0.346  15.922  0.0142  0.6402  0.0832
19859TIP3    H180992   0.403   0.329  15.985 -0.1546 -0.1138  0.0785
19859TIP3    H280993   0.258   0.297  15.956 -0.2251  0.6375 -0.4352
19860TIP3   OH280994   1.788   1.986  11.477  0.3505  0.1850  0.0675
19860TIP3    H180995   1.800   1.999  11.571 -1.1194 -1.7551  0.6098
19860TIP3    H280996   1.844   1.911  11.456  0.4024  0.3830 -0.5125
19861TIP3   OH280997   0.349   1.387   1.595  0.0835 -0.1916 -1.1174
19861TIP3    H180998   0.258   1.418   1.587  0.8193  1.9176 -1.8867
19861TIP3    H280999   0.343   1.293   1.575 -1.8648 -0.0331 -1.5698
19862TIP3   OH281000   0.009   5.671   2.508 -0.3117  0.3544 -0.0528
19862TIP3    H181001   0.090   5.703   2.547  0.4217 -2.0483  0.5813
19862TIP3    H281002  -0.053   5.669   2.581 -0.4816  0.6604 -0.1840
19863TIP3   OH281003   6.444   0.610  12.640 -0.5491  0.8384 -0.0874
19863TIP3    H181004   6.535   0.638  12.651 -0.4990  0.7770 -0.3409
19863TIP3    H281005   6.450   0.517  12.618 -0.6812  0.7944  0.0639
19864TIP3   OH281006   3.477   2.548  14.709  0.2723  0.0354  0.2754
19864TIP3    H181007   3.528   2.628  14.700 -0.5786  0.4460 -1.2371
19864TIP3    H281008   3.536   2.478  14.681  0.2564  0.4220 -0.7608
19865TIP3   OH281009   3.225   0.791  12.342  0.3095  0.1878  0.0495
19865TIP3    H181010   3.301   0.817  12.291  1.8324 -0.5455  1.8071
19865TIP3    H281011   3.239   0.831  12.428 -0.7256 -0.8922  0.7506
19866TIP3   OH281012   2.957   2.636   1.739 -0.1202  0.1183 -0.2493
19866TIP3    H181013   3.035   2.586   1.763 -0.1552  0.5384  0.7576
19866TIP3    H281014   2.918   2.662   1.822 -0.7969  0.7518 -0.7534
19867TIP3   OH281015   4.718   0.971   6.248  0.4185  0.0087 -0.0992
19867TIP3    H181016   4.732   0.879   6.271 -0.2390 -0.1132 -0.1768
19867TIP3    H281017   4.806   1.006   6.234  0.7854 -0.2476  1.3348
19868TIP3   OH281018   1.733   6.770   2.555 -0.2127  0.0360  0.3647
19868TIP3    H181019   1.658   6.757   2.497  1.6715  1.6259 -2.7077
19868TIP3    H281020   1.789   6.832   2.508  2.6998 -0.5082  2.7960
19869TIP3   OH281021   1.559   2.846   5.084  0.4696 -0.0128  0.4410
19869TIP3    H181022   1.542   2.819   5.175 -0.0862  1.7752  0.9086
19869TIP3    H281023   1.644   2.889   5.088  0.8990 -0.7854 -0.1060
19870TIP3   OH281024   2.734   0.533  16.000  0.0153 -0.3575 -0.2218
19870TIP3    H181025   2.764   0.600  16.062  0.7624 -1.1063  0.2318
19870TIP3    H281026   2.646   0.563  15.975  0.2292  0.6616  0.1651
19871TIP3   OH281027   0.730   5.954   1.929 -0.1517  0.1991  0.0286
19871TIP3    H181028   0.636   5.973   1.930 -0.4864 -1.3033 -0.5472
19871TIP3    H281029   0.764   6.009   1.858 -0.9148 -0.5353 -0.9340
19872TIP3   OH281030   0.627   1.068   1.621 -0.2942  0.6444  0.5039
19872TIP3    H181031   0.599   1.114   1.700  1.2789  1.9080  0.3846
19872TIP3    H281032   0.677   1.133   1.572 -1.0775 -0.1672 -1.4632
19873TIP3   OH281033   0.220   2.558   4.825 -0.1074  0.3984  0.5326
19873TIP3    H181034   0.300   2.526   4.783  0.0219  0.3785  0.7946
19873TIP3    H281035   0.150   2.508   4.784 -0.0059  0.5733  0.1405
19874TIP3   OH281036   0.468   5.278   4.319  0.3490 -0.1854 -0.2494
19874TIP3    H181037   0.525   5.342   4.363  1.4162 -0.8154 -0.6724
19874TIP3    H281038   0.461   5.311   4.230 -0.0702 -0.0434 -0.1672
19875TIP3   OH281039   5.574   2.121   6.622  0.4397 -0.2050 -0.4066
19875TIP3    H181040   5.663   2.089   6.639  0.2650 -0.3544  0.2374
19875TIP3    H281041   5.533   2.049   6.574  0.6509 -0.1511 -0.6742
19876TIP3   OH281042   6.378   4.740   2.490  0.2548 -0.8602 -0.0477
19876TIP3    H181043   6.314   4.670   2.481 -2.4151  1.0793  2.1265
19876TIP3    H281044   6.358   4.800   2.418  0.3356 -0.7797 -0.0043
19877TIP3   OH281045   4.546   1.497   0.580  0.5863 -0.0576 -0.0181
19877TIP3    H181046   4.453   1.505   0.560  0.2567  0.2937  1.5609
19877TIP3    H281047   4.578   1.431   0.518 -0.7485 -0.3448 -0.4325
19878TIP3   OH281048   4.194   5.041   5.170 -0.4251 -0.0801  0.4455
19878TIP3    H181049   4.138   4.986   5.224 -1.0447  2.1395  2.2405
19878TIP3    H281050   4.237   5.100   5.232 -0.9352  2.4435 -1.4147
19879TIP3   OH281051   0.408   3.586   0.176  0.8393  0.0241  0.0076
19879TIP3    H181052   0.450   3.575   0.091  0.0698 -0.0682 -0.3674
19879TIP3    H281053   0.481   3.598   0.237  1.4266 -0.6549 -0.5436
19880TIP3   OH281054   5.053   1.993   1.202 -0.2160  0.4352  0.2064
19880TIP3    H181055   5.023   1.962   1.117 -0.1644  0.2076  0.2704
19880TIP3    H281056   4.978   2.039   1.239  0.2098  1.8030 -0.5729
19881TIP3   OH281057   4.737   0.762  11.594 -0.6733 -0.2501 -0.0779
19881TIP3    H181058   4.699   0.742  11.680 -0.1855  1.4674  0.5715
19881TIP3    H281059   4.680   0.830  11.558  0.5365  0.8429 -0.0031
19882TIP3   OH281060   2.500   2.563  15.198  0.5242  0.3822 -0.1248
19882TIP3    H181061   2.540   2.481  15.169  0.3910 -0.8444  2.7609
19882TIP3    H281062   2.407   2.554  15.176  0.0457 -1.4002  2.1272
19883TIP3   OH281063   0.869   0.813   5.906 -0.1476 -0.0738 -0.0649
19883TIP3    H181064   0.917   0.764   5.839 -1.1042 -0.5797 -0.4084
19883TIP3    H281065   0.904   0.781   5.989 -0.0409 -0.5979 -0.3067
19884TIP3   OH281066   1.408   3.268  15.210 -0.2645 -0.2154 -0.2517
19884TIP3    H181067   1.322   3.257  15.251 -0.9983 -0.8687 -1.8902
19884TIP3    H281068   1.464   3.204  15.253 -0.8471 -0.4505  0.1697
19885TIP3   OH281069   1.681   0.976  16.048 -0.2096 -0.4203  0.8915
19885TIP3    H181070   1.659   0.996  16.139 -2.1679 -3.4905  1.2331
19885TIP3    H281071   1.761   0.925  16.053 -0.9020 -1.5255  1.0554
19886TIP3   OH281072   6.106   2.371  16.123 -0.6655  1.2899  0.2412
19886TIP3    H181073   6.105   2.283  16.085 -1.7278  1.8601 -1.1446
19886TIP3    H281074   6.177   2.369  16.187  0.1299 -0.2020 -0.6423
19887TIP3   OH281075   6.646   0.395   2.240  0.4217  0.0477  0.2384
19887TIP3    H181076   6.709   0.379   2.310  1.8693  2.1470 -0.4803
19887TIP3    H281077   6.578   0.449   2.280  0.2096 -0.4054  0.4924
19888TIP3   OH281078   3.684   6.636  12.830  0.2630  0.0436 -0.9121
19888TIP3    H181079   3.617   6.593  12.882 -0.2484  0.7736 -0.9497
19888TIP3    H281080   3.637   6.705  12.783  0.7324 -0.5337 -2.2637
19889TIP3   OH281081   2.806   2.409   1.803 -0.2188 -0.6364  0.2658
19889TIP3    H181082   2.739   2.420   1.735 -1.2707  2.6319  1.6100
19889TIP3    H281083   2.873   2.474   1.781  1.3046 -2.1129  0.3640
19890TIP3   OH281084   3.674   5.358  13.580  0.4814  0.2202 -0.2056
19890TIP3    H181085   3.605   5.296  13.557  0.6551 -0.1205  0.1736
19890TIP3    H281086   3.653   5.387  13.668  0.2657  0.8950 -0.4781
19891TIP3   OH281087   0.148   2.074  17.257 -0.4444 -0.3837 -0.9250
19891TIP3    H181088   0.082   2.054  17.324  2.2154 -1.0827  1.7065
19891TIP3    H281089   0.187   1.990  17.236  1.5652  0.2978 -0.1508
19892TIP3   OH281090   0.053   0.669  14.283 -0.1207 -0.9908  0.4670
19892TIP3    H181091  -0.028   0.713  14.308  0.9488  1.3983  0.0282
19892TIP3    H281092   0.104   0.664  14.365  0.8064  1.0668  0.0772
19893TIP3   OH281093   0.788   1.441  14.584  0.3548 -0.4026  0.2050
19893TIP3    H181094   0.703   1.420  14.623  0.4445 -0.7480  0.2209
19893TIP3    H281095   0.849   1.381  14.627  0.5480 -0.4010 -0.0654
19894TIP3   OH281096   4.221   1.334   2.669  0.1267  0.1019  0.7252
19894TIP3    H181097   4.227   1.287   2.586 -1.3734  1.7944 -0.4181
19894TIP3    H281098   4.299   1.306   2.718  1.2105 -0.7442 -1.3432
19895TIP3   OH281099   1.822   4.543  16.615  0.3462  0.2636 -0.2596
19895TIP3    H181100   1.906   4.501  16.600  0.5834  1.2506 -2.0545
19895TIP3    H281101   1.836   4.601  16.690  0.9426 -0.4071  0.1478
19896TIP3   OH281102   3.960   5.396   4.563 -0.1178 -0.4458  0.6179
19896TIP3    H181103   3.984   5.310   4.596  1.5625 -0.8130 -1.3593
19896TIP3    H281104   4.042   5.445   4.560 -0.9916  1.1461  1.3994
19897TIP3   OH281105   3.171   2.418   4.744 -0.5488  0.7675  0.1968
19897TIP3    H181106   3.102   2.479   4.718 -0.2069  0.7065 -0.9109
19897TIP3    H281107   3.252   2.468   4.735 -0.2968  0.2708 -0.3621
19898TIP3   OH281108   0.703   0.905  15.507 -0.1421  0.1806  0.0368
19898TIP3    H181109   0.768   0.862  15.562 -0.5902  0.7518  1.0319
19898TIP3    H281110   0.737   0.994  15.496  0.0387  0.0214 -0.7873
19899TIP3   OH281111   4.972   0.274   1.568 -0.5419  0.2269  0.1890
19899TIP3    H181112   5.002   0.248   1.655  2.8936 -0.0469 -0.9405
19899TIP3    H281113   4.906   0.208   1.544 -0.1419 -0.7991  1.7959
19900TIP3   OH281114   2.830   3.831   2.454 -0.6545  0.0348 -0.2025
19900TIP3    H181115   2.909   3.822   2.400 -0.0358 -1.4883  0.8555
19900TIP3    H281116   2.760   3.852   2.392  0.4129  0.5518 -1.2790
19901TIP3   OH281117   5.841   1.585  15.618 -0.0355 -0.2862  0.2636
19901TIP3    H181118   5.783   1.659  15.633 -0.4598 -0.8061  1.3590
19901TIP3    H281119   5.823   1.557  15.529  0.5565  1.2710 -0.3838
19902TIP3   OH281120   0.057   6.554  15.279 -0.2724 -0.2883 -0.0240
19902TIP3    H181121   0.062   6.460  15.262  0.1992  0.1293 -2.6611
19902TIP3    H281122   0.149   6.581  15.289 -0.3056  0.1024 -0.7500
19903TIP3   OH281123   2.540   1.014   6.290  0.2043 -0.0009  0.8136
19903TIP3    H181124   2.590   0.956   6.347 -0.2352 -0.4277  0.7692
19903TIP3    H281125   2.450   1.005   6.320  0.3465  2.1062  2.0836
19904TIP3   OH281126   0.065   1.724   3.478  0.2519  0.2637  0.2080
19904TIP3    H181127   0.133   1.789   3.462 -0.9291  1.9745  1.6391
19904TIP3    H281128   0.109   1.654   3.527  1.2733  0.6432 -0.1564
19905TIP3   OH281129   1.933   3.670   1.398  0.0040  0.2398  0.2186
19905TIP3    H181130   1.863   3.683   1.462 -0.5175 -0.6569 -0.1466
19905TIP3    H281131   1.992   3.744   1.411 -1.5547  1.6183 -0.1788
19906TIP3   OH281132   3.679   0.749  16.193 -0.0825 -0.2398  0.0706
19906TIP3    H181133   3.603   0.768  16.137 -0.1357 -0.9839 -0.1150
19906TIP3    H281134   3.750   0.731  16.132  0.6305  1.8143  0.2211
19907TIP3   OH281135   3.469   2.423  16.399 -0.4637 -0.6839 -0.3042
19907TIP3    H181136   3.466   2.434  16.304  0.9045 -0.6781 -0.3653
19907TIP3    H281137   3.546   2.367  16.414  1.4461  2.0925  0.9962
19908TIP3   OH281138   4.627   3.090   1.490  0.2248 -0.0382  0.2165
19908TIP3    H181139   4.545   3.136   1.510  0.5648  0.8194 -0.3074
19908TIP3    H281140   4.655   3.127   1.406  0.9223 -0.6406  0.1805
19909TIP3   OH281141   0.369   3.105   5.197 -0.2203  0.2144  0.0605
19909TIP3    H181142   0.315   3.026   5.201  1.3178 -1.0109 -1.4569
19909TIP3    H281143   0.433   3.094   5.267 -0.3902  0.4329  0.2515
19910TIP3   OH281144   1.303   5.139  14.885  0.4548 -0.2672  0.3417
19910TIP3    H181145   1.228   5.123  14.942  0.0783 -2.6831 -0.7066
19910TIP3    H281146   1.340   5.221  14.916 -2.2017  0.6578  1.3533
19911TIP3   OH281147   3.770   0.486   2.169  0.1729  0.0115 -0.0492
19911TIP3    H181148   3.676   0.500   2.179  0.0235 -0.6832 -0.3504
19911TIP3    H281149   3.807   0.507   2.254 -0.1938  0.7494 -0.0638
19912TIP3   OH281150   6.664   2.084  12.712 -0.1317 -0.0272 -0.0476
19912TIP3    H181151   6.672   2.100  12.618 -1.5928  0.6738 -0.0907
19912TIP3    H281152   6.678   2.170  12.752  0.9388 -0.4093  0.4210
19913TIP3   OH281153   1.488   3.238   0.330  0.3309  0.4982  0.8790
19913TIP3    H181154   1.463   3.217   0.420  0.3819  0.6431  0.9273
19913TIP3    H281155   1.584   3.247   0.334  0.2119  1.8790  1.1001
19914TIP3   OH281156   4.852   2.812  12.143  0.1502 -0.4323 -0.3874
19914TIP3    H181157   4.917   2.793  12.211  0.5100  1.4328 -0.1409
19914TIP3    H281158   4.776   2.845  12.191  1.4939  3.9913 -0.8084
19915TIP3   OH281159   0.370   5.426  12.825  0.1303 -0.4227  0.5987
19915TIP3    H181160   0.374   5.389  12.736  2.6093  2.8036 -0.8448
19915TIP3    H281161   0.283   5.463  12.832 -0.0945 -0.6988 -0.5299
19916TIP3   OH281162   1.957   1.955   1.559  0.1912  0.3063 -0.3939
19916TIP3    H181163   1.871   1.920   1.537 -0.0752 -0.0382  1.0606
19916TIP3    H281164   2.007   1.880   1.590  0.4717  0.7619  0.2991
19917TIP3   OH281165   6.374   0.726  11.084 -0.6013  0.0421  0.1283
19917TIP3    H181166   6.465   0.752  11.072 -0.6226 -0.0224 -0.1992
19917TIP3    H281167   6.332   0.801  11.127 -0.0242 -0.5723  1.8539
19918TIP3   OH281168   4.183   0.727   2.623 -0.5624 -0.0463 -0.3897
19918TIP3    H181169   4.186   0.631   2.621 -2.1747 -0.2063  1.3307
19918TIP3    H281170   4.142   0.752   2.540 -3.0244 -1.1253  0.3954
19919TIP3   OH281171   3.773   6.339  12.715 -0.7882 -0.2652 -0.6060
19919TIP3    H181172   3.719   6.260  12.707  1.1200 -1.9697  1.8346
19919TIP3    H281173   3.739   6.384  12.792 -0.8128  0.4306 -1.0208
19920TIP3   OH281174   4.778   1.993  14.553 -0.3420 -0.7722  0.1505
19920TIP3    H181175   4.835   2.022  14.482 -0.1944 -1.2936  0.0547
19920TIP3    H281176   4.690   2.013  14.523 -0.3980 -2.2799 -0.8126
19921TIP3   OH281177   5.687   0.207   4.491 -1.0271 -1.3934  0.4370
19921TIP3    H181178   5.734   0.199   4.574  0.6135 -2.0911 -0.5055
19921TIP3    H281179   5.703   0.297   4.463  0.6276 -1.8764 -0.3201
19922TIP3   OH281180   0.201   4.574  13.532  0.0392 -0.0313 -0.0857
19922TIP3    H181181   0.223   4.666  13.548  2.0155 -0.4495 -0.1145
19922TIP3    H281182   0.160   4.545  13.614 -2.5259  1.3577 -0.7920
19923TIP3   OH281183   5.271   2.008   6.082  1.1010 -0.6792  0.0859
19923TIP3    H181184   5.236   1.990   5.995  0.8033  2.8766 -0.6910
19923TIP3    H281185   5.223   1.950   6.140 -1.7102 -0.2890 -1.6629
19924TIP3   OH281186   0.691   1.917  13.174 -0.4102  0.3700 -0.0110
19924TIP3    H181187   0.668   1.983  13.240 -2.1024 -0.5628  0.4020
19924TIP3    H281188   0.732   1.846  13.224 -0.1744  0.3727 -0.1996
19925TIP3   OH281189   2.941   5.251  11.859  0.0987 -0.2593 -0.1326
19925TIP3    H181190   2.946   5.182  11.926  1.8942 -0.2059 -0.1651
19925TIP3    H281191   2.850   5.247  11.828 -0.1970 -1.7221  0.7916
19926TIP3   OH281192   1.707   1.893   0.560  0.0401 -0.0278  0.3751
19926TIP3    H181193   1.678   1.874   0.649 -1.0705 -0.0181  0.0283
19926TIP3    H281194   1.626   1.903   0.509  0.6063 -2.0343 -1.0749
19927TIP3   OH281195   6.212   5.563  13.172  0.2124 -0.1255  0.9694
19927TIP3    H181196   6.245   5.473  13.177  0.9319 -0.2699 -3.0113
19927TIP3    H281197   6.281   5.616  13.213  0.9912 -1.2213  1.1134
19928TIP3   OH281198   5.142   2.714  12.912 -0.5398 -0.1966  0.3537
19928TIP3    H181199   5.155   2.653  12.984 -2.7302  1.3764  2.2082
19928TIP3    H281200   5.147   2.801  12.952 -1.5687  0.7434 -1.4413
19929TIP3   OH281201   0.973   0.927   3.331 -0.0668 -0.4666 -0.6519
19929TIP3    H181202   1.033   0.853   3.338  2.4261  1.2686 -2.2069
19929TIP3    H281203   0.922   0.909   3.252 -1.0521 -1.5262  0.1915
19930TIP3   OH281204   4.298   2.122   2.935 -0.4390 -0.3156  0.0971
19930TIP3    H181205   4.273   2.169   2.856 -0.0573  1.2817  0.8883
19930TIP3    H281206   4.247   2.041   2.932 -0.5708 -0.2109 -1.6718
19931TIP3   OH281207   5.389   5.968  11.438  0.4439 -0.2715 -0.0800
19931TIP3    H181208   5.364   6.060  11.429  2.0945  0.2312  0.1530
19931TIP3    H281209   5.427   5.945  11.353 -2.3048 -1.5635 -1.0694
19932TIP3   OH281210   4.560   4.232  16.336 -0.1584  0.3197  0.5394
19932TIP3    H181211   4.506   4.220  16.414  0.4258  0.1502  0.9242
19932TIP3    H281212   4.583   4.143  16.309 -0.1249  0.3878  0.3410
19933TIP3   OH281213   1.421   1.346  11.821 -0.6337 -0.3273  0.1454
19933TIP3    H181214   1.507   1.304  11.817  0.1813  1.3434 -0.8771
19933TIP3    H281215   1.436   1.435  11.789 -2.4930  0.4417  1.2551
19934TIP3   OH281216   3.689   2.683  13.647  0.0404  0.4842  0.4077
19934TIP3    H181217   3.764   2.640  13.605  2.1044  3.5185  0.6491
19934TIP3    H281218   3.682   2.641  13.732  0.3289 -1.0231 -0.2846
19935TIP3   OH281219   2.240   3.205   2.539  0.2271  0.3490  0.1703
19935TIP3    H181220   2.308   3.138   2.534 -0.8430 -1.0243  2.3762
19935TIP3    H281221   2.182   3.175   2.609 -1.7292  2.3107 -0.4923
19936TIP3   OH281222   2.550   1.244  14.652  0.2271  0.1513 -0.6752
19936TIP3    H181223   2.569   1.154  14.677  1.6229  0.4052 -0.7576
19936TIP3    H281224   2.487   1.274  14.718  2.3042  0.1634  1.4291
19937TIP3   OH281225   1.482   2.072   1.510 -0.0083 -0.4080  0.1191
19937TIP3    H181226   1.527   2.151   1.480  3.2783 -1.3581  2.0799
19937TIP3    H281227   1.400   2.104   1.548  1.2951  2.1439  1.0071
19938TIP3   OH281228   2.768   3.900   0.204 -0.1468  0.3214  0.4256
19938TIP3    H181229   2.727   3.895   0.118  0.4331  0.2504  0.1502
19938TIP3    H281230   2.842   3.840   0.199 -0.3103  0.0522  1.0897
19939TIP3   OH281231   0.179   5.758   6.195 -0.1510 -0.1558 -0.1480
19939TIP3    H181232   0.224   5.786   6.275  1.9428 -2.2518 -0.4810
19939TIP3    H281233   0.127   5.682   6.223 -0.1762 -0.2918 -0.5579
19940TIP3   OH281234   2.292   3.739  16.299 -0.3636  0.1390  0.3280
19940TIP3    H181235   2.205   3.698  16.300 -0.5925  0.6122  0.0911
19940TIP3    H281236   2.351   3.669  16.271 -0.8401  0.1243 -0.7100
19941TIP3   OH281237   1.930   2.212  16.475  0.4821 -0.0500 -0.0456
19941TIP3    H181238   1.881   2.146  16.524  1.8900 -1.1736 -0.0995
19941TIP3    H281239   1.992   2.162  16.422  2.4386  1.3162  0.8171
19942TIP3   OH281240   4.648   3.415  10.904 -0.1925  0.0760  0.7598
19942TIP3    H181241   4.653   3.490  10.845  0.9023  1.3574  2.3987
19942TIP3    H281242   4.583   3.358  10.864 -1.6227  2.2319 -0.1871
19943TIP3   OH281243   4.046   5.489  13.282  0.1777  0.0681 -0.0982
19943TIP3    H181244   3.979   5.550  13.249  0.7529  0.0423 -1.3843
19943TIP3    H281245   3.996   5.420  13.325 -0.4661  2.6260  3.7631
19944TIP3   OH281246   0.910   5.907  12.096 -0.4470  0.3037  0.0946
19944TIP3    H181247   0.866   5.841  12.043 -0.6548  2.7225 -3.0270
19944TIP3    H281248   0.851   5.982  12.096  0.6035  1.2113  1.8660
19945TIP3   OH281249   3.380   1.138  16.470  0.3532  0.4321  0.5110
19945TIP3    H181250   3.289   1.166  16.461  0.0978 -0.2813  0.7421
19945TIP3    H281251   3.387   1.109  16.561  0.5768 -0.3035  0.2678
19946TIP3   OH281252   1.432   5.600   0.187 -0.3555 -0.1697  0.2525
19946TIP3    H181253   1.390   5.567   0.267 -0.0986 -2.1324 -0.3681
19946TIP3    H281254   1.497   5.663   0.219 -2.5000  1.5973  1.3334
19947TIP3   OH281255   6.448   0.940  10.829  0.2459  0.1649  0.3748
19947TIP3    H181256   6.363   0.933  10.785  0.8610  1.0779 -1.0258
19947TIP3    H281257   6.436   1.013  10.890  0.0541  0.3892  0.0765
19948TIP3   OH281258   1.960   5.836  13.349 -0.0842  0.5202  0.2151
19948TIP3    H181259   1.954   5.741  13.344  0.4932  0.4553  0.6483
19948TIP3    H281260   1.999   5.863  13.265  1.8357  0.1690  0.9468
19949TIP3   OH281261   1.557   6.181  15.843 -0.4146 -0.1911  0.1216
19949TIP3    H181262   1.645   6.207  15.817 -0.7149  0.6842 -0.0549
19949TIP3    H281263   1.537   6.234  15.920 -0.3452 -1.2471  0.8972
19950TIP3   OH281264   6.578   5.885  15.380 -0.0872  0.8366  0.2914
19950TIP3    H181265   6.567   5.794  15.352 -1.3877  1.4322 -1.2566
19950TIP3    H281266   6.513   5.897  15.449 -0.9717  1.0094 -0.5639
19951TIP3   OH281267   2.573   4.225   1.300  0.6432 -0.1029 -0.0265
19951TIP3    H181268   2.483   4.230   1.267  1.4210  1.5295 -2.0984
19951TIP3    H281269   2.621   4.178   1.231  1.7087  0.5419  0.2535
19952TIP3   OH281270   2.672   6.297   6.411  0.2551  0.0502  0.5572
19952TIP3    H181271   2.698   6.280   6.501 -0.8562  3.1628  1.6317
19952TIP3    H281272   2.580   6.272   6.407  0.7033 -1.5827 -0.2454
19953TIP3   OH281273   4.260   2.249   5.685 -0.7330  0.0638  0.2268
19953TIP3    H181274   4.233   2.163   5.715  1.2666 -0.5957  0.2283
19953TIP3    H281275   4.341   2.234   5.637  0.4775  2.0957  1.4940
19954TIP3   OH281276   2.082   6.162   2.391  0.4524  0.2150 -0.0255
19954TIP3    H181277   2.118   6.157   2.303  0.3159 -0.7733 -0.0306
19954TIP3    H281278   2.049   6.074   2.409 -0.9292  0.7898  0.4118
19955TIP3   OH281279   3.823   3.424   1.414 -0.1103  0.8134  0.0371
19955TIP3    H181280   3.783   3.510   1.396  1.3484  2.1856  2.6918
19955TIP3    H281281   3.822   3.417   1.509  1.1423 -1.4943 -0.0573
19956TIP3   OH281282   3.325   3.507  15.852 -0.2872  0.3973 -0.1006
19956TIP3    H181283   3.332   3.471  15.764  0.1818  0.6497 -0.1728
19956TIP3    H281284   3.353   3.598  15.843 -0.2890  0.4398  0.2976
19957TIP3   OH281285   5.391   6.573   5.495 -0.9346  0.6094 -0.0978
19957TIP3    H181286   5.347   6.605   5.574 -1.1229  0.5171 -0.1661
19957TIP3    H281287   5.429   6.652   5.456  0.5235  0.4521  0.9213
19958TIP3   OH281288   4.282   2.852  14.231  0.0115  0.2650  0.6096
19958TIP3    H181289   4.235   2.829  14.312  0.2011  0.6784  0.8376
19958TIP3    H281290   4.319   2.938  14.249 -1.5618  1.2473 -0.6133
19959TIP3   OH281291   5.015   1.781  15.208 -0.3877  0.0766 -0.2971
19959TIP3    H181292   4.985   1.770  15.117  0.1870  0.1801 -0.5038
19959TIP3    H281293   5.092   1.837  15.201  0.3332 -0.8362  0.1317
19960TIP3   OH281294   2.744   5.965   3.570 -0.1051  0.1890  0.0990
19960TIP3    H181295   2.668   5.908   3.573  1.2675 -1.8093 -1.1585
19960TIP3    H281296   2.753   5.998   3.660 -1.3399 -1.0382  0.7002
19961TIP3   OH281297   5.107   0.884  11.743 -0.8477  0.2228  0.1160
19961TIP3    H181298   5.125   0.798  11.705 -0.7224  0.2918  0.0171
19961TIP3    H281299   5.016   0.880  11.770 -0.2332 -0.7127  2.1898
19962TIP3   OH281300   3.573   2.482   3.882 -0.3599  0.1115  0.0812
19962TIP3    H181301   3.541   2.570   3.860 -0.2930 -0.0592 -0.7133
19962TIP3    H281302   3.667   2.485   3.863 -0.4552 -0.2941 -0.4501
19963LIG     O181303   5.174   1.769  16.819 -0.0762  0.0181 -0.0184
19963LIG     O281304   5.162   1.701  16.591  0.4063 -0.4545  0.1133
19963LIG     O381305   5.175   1.503  16.701 -0.4389  0.3743 -0.8534
19963LIG     O481306   5.293   2.026  16.661  0.7085  0.0171 -0.2977
19963LIG     O581307   5.526   1.869  16.773 -0.0286 -0.3575  0.3456
19963LIG     O681308   4.889   1.617  16.494 -0.2785  0.3544  0.5372
19963LIG     O781309   5.131   1.544  16.324  0.6417 -0.3945 -1.0435
19963LIG     O881310   5.244   1.290  16.390  0.1003  0.8503  0.1225
19963LIG     O981311   4.970   1.879  16.546 -0.2826  0.4378 -0.5099
19963LIG    O1081312   5.371   1.577  16.906 -0.2975 -0.2626  0.0715
19963LIG    O1181313   5.434   1.261  16.599 -0.4131  0.2998  0.1868
19963LIG     C181314   5.160   1.811  16.683 -0.0972  0.1418 -0.3706
19963LIG     C281315   5.300   1.883  16.642  0.0127 -1.4103 -0.0208
19963LIG     C381316   5.396   1.813  16.740 -0.0844 -0.4954 -0.3019
19963LIG     C481317   5.304   1.803  16.868 -0.1276 -0.1963  0.6112
19963LIG     C581318   5.085   1.592  16.642 -0.0821 -0.3004 -0.1275
19963LIG     C681319   4.995   1.527  16.537 -0.3031 -0.1885 -0.7141
19963LIG     C781320   5.066   1.452  16.421 -0.0809  0.4412  0.0364
19963LIG     C881321   5.167   1.359  16.485  0.0991 -1.6420 -0.0108
19963LIG     C981322   5.257   1.432  16.598  0.2487  0.1489 -0.1197
19963LIG    C1081323   5.034   1.897  16.674  0.5442  0.3361  0.7922
19963LIG    C1181324   5.331   1.695  16.969 -0.4700 -0.2923  0.1297
19963LIG    C1281325   5.341   1.332  16.676 -0.4839 -0.2329  0.4789
19963LIG     H181326   5.335   1.874  16.538 -0.2578  0.9846 -0.3832
19963LIG     H281327   5.410   1.715  16.692 -1.9432 -2.1116  2.1551
19963LIG     H381328   5.300   1.906  16.907  0.2546  0.6360 -1.3889
19963LIG     H481329   5.024   1.621  16.730 -1.5342  0.4309 -1.3106
19963LIG     H581330   4.946   1.445  16.593  2.5357 -1.6780 -0.2167
19963LIG     H681331   4.996   1.384  16.369  0.8604 -1.1171  0.7148
19963LIG     H781332   5.105   1.284  16.538 -2.2995  2.4260  3.6041
19963LIG     H881333   5.326   1.505  16.552  0.6334 -0.5285 -0.6406
19963LIG     H981334   4.965   1.868  16.756 -0.2951  0.7608  0.2488
19963LIG    H1081335   5.046   2.007  16.686 -2.0159  0.5197  2.4491
19963LIG    H1181336   5.415   1.731  17.031 -0.7353  1.9469 -0.7040
19963LIG    H1281337   5.238   1.659  17.020 -1.5572  2.2463  0.0883
19963LIG    H1381338   5.395   1.381  16.759  0.0021 -0.8105  0.5083
19963LIG    H1481339   5.273   1.258  16.722  1.0742 -1.7783  0.4014
19963LIG    H1581340   5.333   2.070  16.585 -0.2132  2.5490  0.5827
19963LIG    H1681341   5.564   1.810  16.839  1.6345 -1.2983 -1.3581
19963LIG    H1781342   4.920   1.701  16.528 -3.8077  1.2918  1.9659
19963LIG    H1881343   5.161   1.487  16.253  1.8512 -0.0187 -0.8669
19963LIG    H1981344   5.316   1.252  16.442 -0.6060  0.3149  0.7282
19963LIG    H2081345   4.890   1.931  16.556  0.3215  1.4226 -0.6695
19963LIG    H2181346   5.294   1.557  16.852  0.5057  0.1678 -1.3008
19963LIG    H2281347   5.514   1.299  16.635 -0.7435  1.1694  0.0160
   6.77137   6.77137  17.32670
